INSANE! Membrane UpperLeaflet>loPI:POPI:DPPI:PYPI:ERGO=180.0:5.0:3.0:2.0:10.0 LowerLeaflet>PSPI:POPI:POPS:YOPS:POPE:YOPE:POPC:YOPC:ERGO=6.0:14.0:21.0:9.0:9.0:21.0:12.0:48.0:60.0
49606
    1loPI    C1    1  15.828   3.858   9.751  0.2838  0.0513 -0.1486
    1loPI    C2    2  15.914   4.228   9.875  0.0764  0.0519 -0.0005
    1loPI    C3    3  16.054   3.912  10.076 -0.0462  0.0519  0.0855
    1loPI   PO4    4  15.547   3.852   9.651 -0.2600  0.2147  0.1233
    1loPI   GL1    5  15.570   3.906   9.257 -0.1757 -0.1755  0.0944
    1loPI   GL2    6  15.389   3.685   9.054 -0.3015  0.2352  0.1895
    1loPI   C1A    7  15.557   4.052   8.775 -0.3032 -0.3267  0.0380
    1loPI   C2A    8  15.374   4.008   8.344 -0.0001 -0.0929 -0.0498
    1loPI   C3A    9  15.341   4.122   7.854  0.0698  0.0244 -0.5160
    1loPI   C4A   10  15.236   4.291   7.549  0.2265  0.1070  0.2332
    1loPI   C5A   11  15.309   4.266   7.116 -0.1882 -0.0048 -0.0657
    1loPI   C6A   12  15.325   4.353   6.692 -0.2190  0.0714 -0.0722
    1loPI   C1B   13  15.583   3.579   8.675 -0.0852 -0.0385  0.1604
    1loPI   C2B   14  15.509   3.532   8.089  0.2811  0.0120 -0.1658
    1loPI   C3B   15  15.437   3.459   7.649  0.0977  0.1629 -0.1587
    1loPI   C4B   16  15.397   3.731   7.182 -0.1715  0.0432  0.0196
    2loPI    C1   17  13.183  12.868   9.922  0.2938  0.0962  0.1761
    2loPI    C2   18  13.536  12.683   9.884  0.1335 -0.1857  0.0234
    2loPI    C3   19  13.461  13.016   9.674  0.2467 -0.2191 -0.0713
    2loPI   PO4   20  13.001  12.625   9.818  0.1670  0.0480 -0.0062
    2loPI   GL1   21  13.241  12.612   9.415 -0.0781 -0.3796  0.3549
    2loPI   GL2   22  13.564  12.620   9.353 -0.2247 -0.1016  0.0746
    2loPI   C1A   23  12.971  12.232   9.331 -0.0265 -0.0065  0.2875
    2loPI   C2A   24  12.735  12.110   8.926 -0.1561 -0.0989  0.2401
    2loPI   C3A   25  12.606  12.163   8.477  0.0025  0.0361 -0.1546
    2loPI   C4A   26  12.510  12.134   8.036 -0.3547  0.0030 -0.0545
    2loPI   C5A   27  12.471  11.914   7.645 -0.2061  0.3043 -0.1410
    2loPI   C6A   28  12.178  11.542   7.564 -0.0652 -0.1292 -0.2646
    2loPI   C1B   29  13.310  12.696   8.913 -0.0886  0.2365 -0.1342
    2loPI   C2B   30  13.252  12.658   8.482 -0.0990 -0.1194  0.0715
    2loPI   C3B   31  13.091  12.537   8.142  0.2909 -0.0051  0.2013
    2loPI   C4B   32  12.936  12.324   7.737 -0.0831  0.1847  0.0137
    3loPI    C1   33  17.300   7.289   9.944 -0.0411  0.0032  0.0851
    3loPI    C2   34  17.493   6.949   9.857 -0.0928  0.0228 -0.1105
    3loPI    C3   35  17.556   7.131  10.207 -0.0812 -0.1995  0.0045
    3loPI   PO4   36  17.043   7.199   9.704 -0.0518 -0.0306  0.2696
    3loPI   GL1   37  16.976   7.033   9.370  0.0577 -0.2534  0.2684
    3loPI   GL2   38  16.740   7.230   9.226 -0.0434  0.3525 -0.1410
    3loPI   C1A   39  16.980   7.011   8.907  0.2875  0.0723  0.1079
    3loPI   C2A   40  16.874   7.268   8.559 -0.0678 -0.4805  0.1297
    3loPI   C3A   41  16.899   7.175   8.222  0.2496 -0.3462 -0.2279
    3loPI   C4A   42  17.109   7.366   7.805  0.1154  0.1667 -0.0196
    3loPI   C5A   43  17.083   7.470   7.420 -0.0948  0.3131 -0.1710
    3loPI   C6A   44  17.182   7.870   7.177 -0.3513 -0.2087 -0.0366
    3loPI   C1B   45  16.865   7.507   8.937 -0.2205 -0.3363 -0.1011
    3loPI   C2B   46  16.847   7.781   8.667  0.1375  0.0167 -0.0900
    3loPI   C3B   47  16.913   7.702   8.277 -0.1519  0.0664 -0.2324
    3loPI   C4B   48  16.906   7.791   7.801  0.2270 -0.0319 -0.1530
    4loPI    C1   49  17.584  15.769  10.280  0.0418 -0.1104  0.2625
    4loPI    C2   50  17.355  16.084  10.371  0.0986  0.0233 -0.0438
    4loPI    C3   51  17.412  15.793  10.640 -0.3159  0.0552  0.0853
    4loPI   PO4   52  17.485  15.695  10.072 -0.0472  0.2926 -0.1648
    4loPI   GL1   53  17.353  15.767   9.652  0.3678  0.3190 -0.1080
    4loPI   GL2   54  17.026  15.821   9.593 -0.2540  0.1747 -0.0943
    4loPI   C1A   55  17.614  15.986   9.251  0.0979  0.1473  0.2101
    4loPI   C2A   56  17.785  16.237   8.947 -0.2947  0.0039  0.0548
    4loPI   C3A   57  17.778  16.228   8.572 -0.0485 -0.1048 -0.1642
    4loPI   C4A   58  17.574  16.438   8.330 -0.2318  0.2186 -0.2217
    4loPI   C5A   59  17.556  16.427   7.930 -0.0424  0.1656 -0.4880
    4loPI   C6A   60  17.505  16.495   7.604 -0.1781 -0.2010 -0.0532
    4loPI   C1B   61  16.867  15.958   9.189  0.1480  0.3750 -0.0425
    4loPI   C2B   62  16.608  16.178   8.823 -0.0466  0.4225  0.1404
    4loPI   C3B   63  16.698  16.331   8.437 -0.0646  0.1552  0.2413
    4loPI   C4B   64  16.659  16.210   8.036  0.1934 -0.3520  0.2260
    5loPI    C1   65   3.209   3.442   9.824 -0.2874  0.1642 -0.3307
    5loPI    C2   66   3.431   3.138   9.959 -0.1254  0.3057 -0.2749
    5loPI    C3   67   3.036   3.094   9.918 -0.1364  0.1647 -0.0375
    5loPI   PO4   68   3.414   3.463   9.542 -0.1324 -0.1883 -0.1832
    5loPI   GL1   69   3.771   3.622   9.214 -0.0860  0.0074 -0.1606
    5loPI   GL2   70   3.458   3.752   9.131 -0.1984 -0.0610 -0.0978
    5loPI   C1A   71   3.806   3.743   8.674 -0.3252  0.0182 -0.2224
    5loPI   C2A   72   3.718   3.811   8.339  0.0042 -0.0319  0.0754
    5loPI   C3A   73   3.749   3.914   7.947 -0.3217 -0.1987 -0.0706
    5loPI   C4A   74   3.803   4.067   7.511  0.2207 -0.2113 -0.3178
    5loPI   C5A   75   4.045   4.260   7.240 -0.0067  0.2557  0.1703
    5loPI   C6A   76   4.009   4.364   6.807  0.1640  0.1431 -0.1410
    5loPI   C1B   77   3.189   3.699   8.652 -0.2094  0.1793 -0.3295
    5loPI   C2B   78   3.257   3.510   8.322  0.1341  0.0125  0.4946
    5loPI   C3B   79   3.251   3.692   7.974 -0.0969  0.1466  0.2479
    5loPI   C4B   80   3.359   3.728   7.385 -0.1546 -0.3113 -0.1712
    6loPI    C1   81   0.819   8.947   9.844 -0.0668 -0.2060 -0.1429
    6loPI    C2   82   0.571   9.116  10.108 -0.0448 -0.0322 -0.2314
    6loPI    C3   83   0.854   8.862  10.233 -0.3981 -0.3975 -0.1519
    6loPI   PO4   84   0.680   9.081   9.576 -0.3478  0.2735 -0.4809
    6loPI   GL1   85   0.941   9.211   9.261  0.1058 -0.4019 -0.1740
    6loPI   GL2   86   1.067   9.475   9.141 -0.3967  0.1425  0.0434
    6loPI   C1A   87   0.906   9.168   8.796 -0.2334  0.0717 -0.1087
    6loPI   C2A   88   0.888   9.000   8.424  0.0150 -0.0768  0.0978
    6loPI   C3A   89   0.965   8.851   8.018 -0.2530 -0.0287  0.3522
    6loPI   C4A   90   1.295   8.755   7.673  0.0379  0.4325  0.0624
    6loPI   C5A   91   1.423   8.590   7.166 -0.0469  0.1220  0.4441
    6loPI   C6A   92   1.778   8.823   6.954 -0.2941  0.2228  0.1040
    6loPI   C1B   93   1.241   9.639   8.752  0.0042  0.0050  0.0228
    6loPI   C2B   94   1.252   9.643   8.301  0.1850 -0.0506 -0.1105
    6loPI   C3B   95   1.323   9.664   7.908  0.2914 -0.0228  0.0026
    6loPI   C4B   96   1.487   9.730   7.443 -0.0554 -0.0933  0.2179
    7loPI    C1   97  15.919  12.904   9.753  0.0413  0.1318  0.1314
    7loPI    C2   98  15.653  12.841  10.044 -0.0667  0.0798  0.0225
    7loPI    C3   99  16.042  12.775  10.111 -0.1203 -0.1962  0.0717
    7loPI   PO4  100  15.901  13.055   9.613 -0.1075 -0.0555 -0.1649
    7loPI   GL1  101  15.943  13.170   9.178  0.1381  0.3374  0.0448
    7loPI   GL2  102  16.169  13.430   9.248 -0.2093 -0.2631 -0.0838
    7loPI   C1A  103  16.099  13.104   8.747  0.2549  0.0933 -0.2609
    7loPI   C2A  104  16.207  13.158   8.307 -0.0845  0.3066  0.1930
    7loPI   C3A  105  16.046  13.252   7.878 -0.1014 -0.0293  0.0353
    7loPI   C4A  106  15.933  13.184   7.407 -0.1161 -0.0452 -0.0666
    7loPI   C5A  107  15.607  12.976   7.086  0.3030 -0.2274  0.0023
    7loPI   C6A  108  15.553  12.676   6.841 -0.0176  0.1455  0.0370
    7loPI   C1B  109  16.292  13.583   8.840 -0.0091  0.0312  0.1460
    7loPI   C2B  110  16.521  13.587   8.400  0.2142  0.0636  0.3073
    7loPI   C3B  111  16.640  13.414   7.926 -0.2168 -0.0897  0.1998
    7loPI   C4B  112  16.926  13.254   7.713  0.2966  0.0681 -0.0523
    8loPI    C1  113   7.123   6.036   9.444  0.0302 -0.1326 -0.2803
    8loPI    C2  114   7.122   6.136   9.831  0.2334 -0.1507 -0.2744
    8loPI    C3  115   6.804   5.955   9.671 -0.0058  0.2015 -0.2068
    8loPI   PO4  116   7.344   5.934   9.407  0.0863 -0.1194  0.4031
    8loPI   GL1  117   7.585   5.901   9.004  0.0019 -0.1025  0.2300
    8loPI   GL2  118   7.706   6.162   9.231 -0.0579 -0.1095 -0.0797
    8loPI   C1A  119   7.433   5.866   8.567 -0.0813 -0.2323 -0.1195
    8loPI   C2A  120   7.497   5.919   8.184  0.2074  0.0703 -0.3939
    8loPI   C3A  121   7.191   5.813   7.875 -0.2627 -0.1291 -0.1262
    8loPI   C4A  122   6.988   6.108   7.626 -0.2474  0.1945 -0.2662
    8loPI   C5A  123   6.866   6.411   7.379 -0.2655  0.0196  0.1588
    8loPI   C6A  124   6.525   6.566   7.193  0.1871 -0.0658  0.0670
    8loPI   C1B  125   7.843   6.282   8.780 -0.1039  0.1198  0.2422
    8loPI   C2B  126   7.530   6.390   8.399 -0.0530  0.3587  0.0400
    8loPI   C3B  127   7.208   6.276   8.094 -0.0329 -0.1673 -0.1142
    8loPI   C4B  128   6.839   6.179   8.094  0.0461  0.0788  0.1944
    9loPI    C1  129  15.836  17.606   9.512  0.2266  0.1966  0.0348
    9loPI    C2  130  15.802  17.950   9.714 -0.4453  0.1507  0.0223
    9loPI    C3  131  15.984  17.636   9.882 -0.0623  0.4262  0.1358
    9loPI   PO4  132  15.897  17.620   9.307  0.1488  0.0335 -0.3378
    9loPI   GL1  133  15.572  17.442   8.987 -0.3630 -0.0063 -0.1477
    9loPI   GL2  134  15.349  17.151   8.894 -0.0300 -0.4324 -0.1134
    9loPI   C1A  135  15.870  17.522   8.669 -0.2207  0.0123  0.1213
    9loPI   C2A  136  15.925  17.490   8.308  0.1451 -0.0741  0.2431
    9loPI   C3A  137  15.989  17.399   7.806  0.2151  0.2776  0.0441
    9loPI   C4A  138  16.088  17.385   7.403  0.1634  0.1421  0.0053
    9loPI   C5A  139  16.281  17.431   7.005 -0.0529  0.1773 -0.2717
    9loPI   C6A  140  16.555  17.209   6.701 -0.0731  0.0580  0.0295
    9loPI   C1B  141  15.543  17.222   8.496 -0.0377 -0.0992  0.1667
    9loPI   C2B  142  15.648  17.103   8.110  0.1436  0.2002  0.0121
    9loPI   C3B  143  15.477  16.968   7.733  0.0503  0.0724 -0.3504
    9loPI   C4B  144  15.523  16.942   7.300 -0.1909  0.1466  0.1899
   10loPI    C1  145  12.025   2.765   9.055 -0.1754 -0.2829 -0.0729
   10loPI    C2  146  11.919   2.966   9.384 -0.0539 -0.3581  0.0133
   10loPI    C3  147  12.050   2.589   9.413  0.1004 -0.3146 -0.1054
   10loPI   PO4  148  12.130   3.001   8.914  0.1371 -0.1133  0.1207
   10loPI   GL1  149  12.338   3.081   8.558  0.0826 -0.3967  0.4102
   10loPI   GL2  150  12.164   3.237   8.476  0.2342 -0.0182 -0.2315
   10loPI   C1A  151  12.493   3.351   8.107 -0.1114  0.3101  0.4629
   10loPI   C2A  152  12.403   3.432   7.617 -0.0354 -0.1463  0.3051
   10loPI   C3A  153  12.362   3.550   7.305 -0.3717  0.2099  0.2180
   10loPI   C4A  154  12.373   3.316   6.875 -0.0294 -0.1564  0.2140
   10loPI   C5A  155  12.318   3.294   6.376 -0.1623  0.4967  0.1216
   10loPI   C6A  156  12.176   2.883   6.072  0.0406 -0.1861 -0.2257
   10loPI   C1B  157  12.127   3.083   8.012  0.0334 -0.0736 -0.0251
   10loPI   C2B  158  12.224   2.967   7.685  0.0935  0.0219  0.0873
   10loPI   C3B  159  12.220   2.983   7.215 -0.0589  0.1704 -0.0318
   10loPI   C4B  160  12.128   2.931   6.680  0.0720 -0.0035 -0.0292
   11loPI    C1  161   3.840  18.385   9.083 -0.0366  0.1267 -0.0896
   11loPI    C2  162   3.757  18.549   9.438  0.0846  0.0218 -0.0121
   11loPI    C3  163   3.967  18.209   9.419 -0.0165 -0.0324 -0.1795
   11loPI   PO4  164   3.901  18.540   8.904  0.2875 -0.1295  0.0935
   11loPI   GL1  165   3.997  18.668   8.537 -0.0193 -0.1911  0.2119
   11loPI   GL2  166   3.789  19.001   8.568 -0.0424 -0.2014  0.0166
   11loPI   C1A  167   4.027  18.567   8.083  0.0295  0.1373  0.1959
   11loPI   C2A  168   4.385  18.738   7.905  0.1135  0.1500 -0.3629
   11loPI   C3A  169   4.669  18.705   7.536 -0.2949 -0.2140  0.1574
   11loPI   C4A  170   4.728  18.845   7.072  0.1121  0.1717 -0.0605
   11loPI   C5A  171   4.868  18.790   6.632  0.2446 -0.2449 -0.2103
   11loPI   C6A  172   4.846  18.917   6.166 -0.3886  0.1129 -0.2579
   11loPI   C1B  173   3.553  18.907   8.166 -0.2803  0.1705  0.3665
   11loPI   C2B  174   3.727  18.768   7.707 -0.1589 -0.1238 -0.2402
   11loPI   C3B  175   3.620  18.892   7.286  0.0582 -0.0721 -0.0906
   11loPI   C4B  176   3.350  18.894   6.907  0.0773 -0.2307  0.1162
   12loPI    C1  177   7.895   5.957   9.594 -0.0624 -0.1178 -0.1207
   12loPI    C2  178   7.903   5.954   9.994 -0.2002  0.0769 -0.1152
   12loPI    C3  179   7.598   6.127   9.801 -0.1656 -0.0704 -0.3051
   12loPI   PO4  180   8.087   6.078   9.519 -0.0469 -0.0669 -0.0953
   12loPI   GL1  181   8.318   6.260   9.073  0.1791 -0.0690  0.1772
   12loPI   GL2  182   8.435   6.511   9.055  0.2516 -0.2139  0.0598
   12loPI   C1A  183   8.499   6.188   8.559 -0.0903 -0.0417 -0.1769
   12loPI   C2A  184   8.567   6.170   8.068  0.2632  0.1392 -0.3192
   12loPI   C3A  185   8.603   6.053   7.617 -0.2270 -0.1692 -0.5044
   12loPI   C4A  186   8.730   5.779   7.237  0.2686  0.2137 -0.3258
   12loPI   C5A  187   8.661   5.345   7.060  0.1325  0.2619 -0.1671
   12loPI   C6A  188   8.580   4.976   6.730  0.0469  0.0710 -0.2076
   12loPI   C1B  189   8.201   6.596   8.631 -0.0814  0.2909 -0.2692
   12loPI   C2B  190   8.204   6.464   8.189 -0.1396  0.2551  0.0507
   12loPI   C3B  191   8.217   6.390   7.722 -0.2020 -0.0243  0.3146
   12loPI   C4B  192   7.902   6.374   7.453  0.2076  0.0621  0.0080
   13loPI    C1  193   3.235  12.589   9.713 -0.1299 -0.2011 -0.1732
   13loPI    C2  194   2.967  12.393   9.489 -0.1623 -0.2257 -0.1132
   13loPI    C3  195   2.965  12.350   9.887 -0.1428 -0.1360 -0.1032
   13loPI   PO4  196   3.272  12.886   9.490  0.1578  0.0530 -0.1455
   13loPI   GL1  197   3.137  12.826   9.156  0.3056 -0.0853  0.0502
   13loPI   GL2  198   2.867  12.965   9.233  0.1873  0.4722 -0.3714
   13loPI   C1A  199   3.201  12.915   8.727 -0.0921  0.0998  0.1755
   13loPI   C2A  200   3.005  12.741   8.384 -0.0453  0.1597 -0.0618
   13loPI   C3A  201   3.078  12.958   7.961 -0.3462 -0.2021 -0.0309
   13loPI   C4A  202   3.082  13.191   7.568 -0.1213  0.2011 -0.1342
   13loPI   C5A  203   3.112  13.340   7.147 -0.1361 -0.1169  0.0669
   13loPI   C6A  204   2.991  13.698   6.991 -0.0208 -0.1701 -0.1111
   13loPI   C1B  205   2.667  12.943   8.837  0.1187 -0.0348  0.1847
   13loPI   C2B  206   2.495  12.786   8.557  0.0845  0.0770 -0.0526
   13loPI   C3B  207   2.546  12.817   8.127  0.2842  0.0218 -0.2245
   13loPI   C4B  208   2.706  12.875   7.701  0.2818  0.1386 -0.1221
   14loPI    C1  209  11.695   6.800   9.306 -0.0929  0.0972  0.0965
   14loPI    C2  210  11.471   7.038   9.535  0.0797  0.1379  0.2251
   14loPI    C3  211  11.510   6.651   9.628  0.0109  0.1165  0.1657
   14loPI   PO4  212  11.794   6.970   9.133  0.1485 -0.0717 -0.2581
   14loPI   GL1  213  11.850   7.329   8.901 -0.1809 -0.0528  0.2287
   14loPI   GL2  214  12.192   7.381   9.023  0.0366  0.0231 -0.2102
   14loPI   C1A  215  11.906   7.395   8.483 -0.1163  0.2299  0.1663
   14loPI   C2A  216  11.911   7.588   8.047  0.1159  0.0065  0.1949
   14loPI   C3A  217  11.977   7.760   7.703  0.0451  0.1163  0.3587
   14loPI   C4A  218  12.073   7.715   7.280 -0.0788 -0.0574  0.1530
   14loPI   C5A  219  11.677   7.731   7.062 -0.1489 -0.0043 -0.1866
   14loPI   C6A  220  11.526   7.419   6.829 -0.2129  0.2486  0.0755
   14loPI   C1B  221  12.462   7.262   8.679  0.2082 -0.1064  0.1161
   14loPI   C2B  222  12.670   7.388   8.259  0.0826 -0.1657 -0.4460
   14loPI   C3B  223  12.807   7.611   7.897 -0.0157 -0.1954  0.0871
   14loPI   C4B  224  12.798   7.421   7.466  0.0078 -0.5273  0.0925
   15loPI    C1  225  13.334   0.847   9.605  0.0434  0.3379 -0.2625
   15loPI    C2  226  13.691   0.758   9.761  0.0338  0.0906 -0.3760
   15loPI    C3  227  13.423   0.962   9.977  0.1015 -0.0560 -0.1500
   15loPI   PO4  228  13.253   0.646   9.529 -0.1271 -0.1821 -0.0457
   15loPI   GL1  229  12.991   0.583   9.147  0.0683  0.2301  0.1028
   15loPI   GL2  230  12.857   0.458   9.034 -0.2328 -0.0836  0.4009
   15loPI   C1A  231  13.074   0.845   8.782 -0.0792 -0.2051 -0.0346
   15loPI   C2A  232  13.088   0.755   8.324 -0.2402  0.1201 -0.0369
   15loPI   C3A  233  13.177   0.714   7.922 -0.3574  0.0834 -0.0263
   15loPI   C4A  234  12.925   0.509   7.587  0.0549  0.1507  0.0100
   15loPI   C5A  235  12.690   0.522   7.231 -0.1555  0.0726  0.0996
   15loPI   C6A  236  12.518   0.603   6.857 -0.1529  0.2671 -0.0176
   15loPI   C1B  237  13.016   0.378   8.613  0.1959 -0.0869 -0.1620
   15loPI   C2B  238  13.148   0.251   8.128  0.0455  0.0380  0.1941
   15loPI   C3B  239  13.349   0.221   7.727 -0.4244 -0.1230 -0.2982
   15loPI   C4B  240  13.232   0.133   7.285 -0.0550 -0.5015  0.4128
   16loPI    C1  241   8.065   5.207   9.580 -0.0823  0.0545  0.1050
   16loPI    C2  242   8.215   5.572   9.641  0.1183 -0.0101  0.0086
   16loPI    C3  243   8.343   5.264   9.862  0.1380 -0.0683 -0.0835
   16loPI   PO4  244   8.116   5.141   9.352  0.0946  0.0826 -0.3008
   16loPI   GL1  245   8.163   5.445   9.038  0.0533 -0.2766  0.1937
   16loPI   GL2  246   8.124   5.765   9.082 -0.0037  0.3713  0.0404
   16loPI   C1A  247   8.582   5.276   8.880 -0.0790  0.0540  0.3807
   16loPI   C2A  248   8.772   5.053   8.635 -0.1747  0.1350  0.1912
   16loPI   C3A  249   8.964   5.045   8.246  0.2157 -0.2331  0.1872
   16loPI   C4A  250   9.043   5.183   7.842  0.0432 -0.2293 -0.2303
   16loPI   C5A  251   9.080   5.152   7.369  0.1181 -0.0798 -0.0739
   16loPI   C6A  252   9.494   4.978   7.058 -0.3107 -0.1305  0.1849
   16loPI   C1B  253   8.066   5.874   8.714  0.1291 -0.1716 -0.1460
   16loPI   C2B  254   7.939   6.043   8.333  0.0255  0.2851  0.2671
   16loPI   C3B  255   7.762   6.273   7.996  0.2089  0.1511 -0.0225
   16loPI   C4B  256   7.624   6.665   7.918 -0.0293 -0.1783  0.1881
   17loPI    C1  257   2.634  19.030   9.476 -0.0844 -0.2131 -0.1636
   17loPI    C2  258   2.279  18.945   9.639 -0.0112  0.2978  0.2910
   17loPI    C3  259   2.615  18.806   9.806  0.0327  0.2939  0.2001
   17loPI   PO4  260   2.580  18.984   9.247 -0.2167 -0.0633  0.2701
   17loPI   GL1  261   2.643  18.817   8.852  0.2754  0.1696 -0.3309
   17loPI   GL2  262   2.881  18.586   8.882 -0.0830 -0.2748 -0.2223
   17loPI   C1A  263   2.725  18.896   8.479  0.0047  0.4259  0.1871
   17loPI   C2A  264   2.671  18.985   8.012  0.0276 -0.2433 -0.2378
   17loPI   C3A  265   2.471  19.205   7.710  0.1849 -0.0689  0.0958
   17loPI   C4A  266   2.282  19.203   7.220 -0.2661 -0.1538 -0.0646
   17loPI   C5A  267   2.560  19.116   6.830  0.0422 -0.4294 -0.1813
   17loPI   C6A  268   2.855  18.834   6.858  0.2389  0.1112 -0.0815
   17loPI   C1B  269   2.932  18.419   8.394  0.1080 -0.2608  0.0400
   17loPI   C2B  270   3.144  18.619   8.070 -0.0966  0.1246  0.0839
   17loPI   C3B  271   3.183  19.000   7.876 -0.1198 -0.0192  0.1376
   17loPI   C4B  272   3.167  19.272   7.477  0.0105 -0.1869  0.0665
   18loPI    C1  273  17.185   5.256   9.575 -0.1839 -0.0753  0.0727
   18loPI    C2  274  17.390   5.041   9.843 -0.2010 -0.0739  0.0868
   18loPI    C3  275  17.253   5.405   9.940 -0.1873 -0.0639  0.0687
   18loPI   PO4  276  17.284   5.264   9.335 -0.3571  0.1963 -0.1790
   18loPI   GL1  277  17.284   5.118   8.973 -0.1562  0.1838 -0.0384
   18loPI   GL2  278  17.621   5.134   8.978  0.0437 -0.1030 -0.1375
   18loPI   C1A  279  17.098   5.112   8.575 -0.0782 -0.1481 -0.2083
   18loPI   C2A  280  17.131   4.997   8.138  0.3030 -0.0679  0.2264
   18loPI   C3A  281  17.123   5.094   7.763  0.1321 -0.0852 -0.0193
   18loPI   C4A  282  17.121   5.547   7.645 -0.2530 -0.3041 -0.0114
   18loPI   C5A  283  17.106   5.981   7.455 -0.0627 -0.0913  0.4476
   18loPI   C6A  284  17.409   6.308   7.395  0.2691  0.0625  0.0295
   18loPI   C1B  285  17.573   4.881   8.563  0.0151  0.2104  0.0100
   18loPI   C2B  286  17.624   4.773   8.220  0.2807 -0.1649 -0.2451
   18loPI   C3B  287  17.583   4.843   7.797  0.1651  0.1659 -0.0341
   18loPI   C4B  288  17.470   5.073   7.419  0.1755  0.0467  0.2448
   19loPI    C1  289  12.846  15.203  10.334 -0.1103 -0.1695 -0.0331
   19loPI    C2  290  12.461  15.168  10.436 -0.0922 -0.0238  0.0886
   19loPI    C3  291  12.733  14.918  10.590 -0.1051  0.0204  0.1837
   19loPI   PO4  292  12.746  15.268   9.996  0.1179  0.0088 -0.1639
   19loPI   GL1  293  12.754  15.542   9.676 -0.1022 -0.0212 -0.0225
   19loPI   GL2  294  12.903  15.700   9.502  0.2212 -0.2201  0.0118
   19loPI   C1A  295  12.698  15.352   9.200 -0.1539  0.1072 -0.3057
   19loPI   C2A  296  12.746  15.546   8.850  0.1184  0.1499  0.2043
   19loPI   C3A  297  12.764  15.416   8.428 -0.0254  0.0802 -0.1148
   19loPI   C4A  298  12.798  15.592   8.000 -0.3320 -0.2730 -0.0229
   19loPI   C5A  299  13.226  15.466   7.626 -0.2630 -0.4750  0.0450
   19loPI   C6A  300  13.318  15.476   7.213  0.0255 -0.2862 -0.0356
   19loPI   C1B  301  12.981  16.002   9.094 -0.1555 -0.0570  0.0686
   19loPI   C2B  302  13.036  16.232   8.711  0.1035  0.2297 -0.1096
   19loPI   C3B  303  13.213  16.395   8.368 -0.2157  0.1755 -0.0306
   19loPI   C4B  304  13.267  16.420   7.928 -0.3119  0.2264 -0.0868
   20loPI    C1  305  15.464  13.736   9.725 -0.0561 -0.2364  0.0285
   20loPI    C2  306  15.225  13.965   9.950 -0.0618 -0.2784  0.0656
   20loPI    C3  307  15.517  13.752  10.121 -0.2420 -0.5285  0.0689
   20loPI   PO4  308  15.506  13.916   9.500 -0.0991  0.2816  0.0950
   20loPI   GL1  309  15.327  14.059   9.177  0.3175 -0.0987 -0.2013
   20loPI   GL2  310  15.306  14.398   9.003 -0.3794 -0.0054 -0.1849
   20loPI   C1A  311  15.284  13.950   8.704  0.3500 -0.0698  0.0936
   20loPI   C2A  312  15.298  13.933   8.242  0.0329 -0.1183  0.1249
   20loPI   C3A  313  15.106  14.046   7.892 -0.1477 -0.2316  0.0629
   20loPI   C4A  314  15.225  13.905   7.513 -0.0149  0.3515  0.1150
   20loPI   C5A  315  15.333  13.430   7.384  0.0657 -0.2617 -0.2104
   20loPI   C6A  316  15.118  13.139   7.099  0.2434  0.1282 -0.0849
   20loPI   C1B  317  15.000  14.344   8.697  0.0340 -0.4221 -0.2804
   20loPI   C2B  318  14.823  14.313   8.292 -0.1013 -0.1086  0.1308
   20loPI   C3B  319  14.920  14.559   7.903  0.1442 -0.2192  0.2644
   20loPI   C4B  320  14.999  14.664   7.445 -0.3267 -0.1588 -0.0886
   21loPI    C1  321  14.865   1.434   9.552  0.0715 -0.1721 -0.0028
   21loPI    C2  322  14.983   1.119   9.769 -0.0167 -0.0634  0.2064
   21loPI    C3  323  14.628   1.290   9.841 -0.0328 -0.0048 -0.0034
   21loPI   PO4  324  14.886   1.376   9.300 -0.1175  0.0956 -0.1995
   21loPI   GL1  325  14.575   1.427   8.984 -0.2878 -0.0981  0.0080
   21loPI   GL2  326  14.710   1.719   8.848 -0.0072  0.0291 -0.1515
   21loPI   C1A  327  14.372   1.261   8.561  0.0913  0.0647  0.2326
   21loPI   C2A  328  14.300   1.280   8.150  0.1118 -0.0059  0.4474
   21loPI   C3A  329  14.354   1.219   7.762 -0.2036  0.2765  0.3889
   21loPI   C4A  330  14.281   1.003   7.378 -0.3645  0.2870  0.1004
   21loPI   C5A  331  13.905   0.769   7.193 -0.0210 -0.2487  0.2546
   21loPI   C6A  332  13.456   0.551   7.003 -0.3958 -0.2113  0.0902
   21loPI   C1B  333  14.600   1.755   8.374 -0.0222 -0.0088 -0.1247
   21loPI   C2B  334  14.460   1.721   7.955  0.2400  0.0791  0.0525
   21loPI   C3B  335  14.726   1.836   7.670  0.1643  0.1041  0.0147
   21loPI   C4B  336  14.654   1.888   7.211 -0.3892  0.0977 -0.0222
   22loPI    C1  337  16.414  14.608   9.620  0.0854  0.2867  0.1755
   22loPI    C2  338  16.449  14.776   9.981 -0.3656  0.1204  0.3024
   22loPI    C3  339  16.144  14.529   9.904 -0.0282 -0.1976 -0.0571
   22loPI   PO4  340  16.761  14.543   9.586  0.1842  0.0041 -0.0005
   22loPI   GL1  341  16.914  14.277   9.367 -0.1496 -0.1013  0.1958
   22loPI   GL2  342  17.093  14.422   9.281  0.4093 -0.3934  0.0728
   22loPI   C1A  343  16.703  14.485   8.966  0.0008  0.2656  0.2023
   22loPI   C2A  344  16.517  14.511   8.565  0.0157 -0.2888  0.2885
   22loPI   C3A  345  16.515  14.446   8.140 -0.0380  0.0685 -0.0116
   22loPI   C4A  346  16.348  14.215   7.793 -0.3258 -0.2353 -0.1949
   22loPI   C5A  347  16.321  14.157   7.368 -0.0900 -0.1468  0.0035
   22loPI   C6A  348  16.512  13.898   7.028  0.1618  0.2432  0.1610
   22loPI   C1B  349  17.207  14.667   9.039 -0.2311 -0.1427 -0.1469
   22loPI   C2B  350  17.187  14.623   8.652  0.0359  0.5129  0.0122
   22loPI   C3B  351  17.150  14.655   8.172 -0.1480  0.1473  0.0592
   22loPI   C4B  352  16.974  14.364   7.796  0.0267 -0.2674 -0.2297
   23loPI    C1  353   3.126  11.676   9.514  0.0793  0.2121  0.0767
   23loPI    C2  354   3.241  11.939   9.792  0.1450  0.3301 -0.0612
   23loPI    C3  355   3.447  11.601   9.740  0.0514  0.2425  0.1268
   23loPI   PO4  356   3.108  11.812   9.295  0.1032  0.1744 -0.0850
   23loPI   GL1  357   3.224  12.041   9.021 -0.0439  0.4336 -0.1481
   23loPI   GL2  358   3.526  12.049   8.940  0.3589 -0.0541 -0.1307
   23loPI   C1A  359   3.190  11.925   8.552  0.0452 -0.0126 -0.3490
   23loPI   C2A  360   3.069  12.001   8.121 -0.2676  0.0950 -0.0612
   23loPI   C3A  361   3.156  11.829   7.634  0.3053 -0.1016 -0.0215
   23loPI   C4A  362   3.171  11.551   7.315 -0.2878 -0.2206 -0.1355
   23loPI   C5A  363   3.391  11.271   7.042  0.0900 -0.4243 -0.1988
   23loPI   C6A  364   3.095  10.870   6.875  0.0200  0.0767  0.0338
   23loPI   C1B  365   3.674  11.932   8.662  0.0185  0.2156  0.1348
   23loPI   C2B  366   3.971  11.990   8.326  0.1242  0.0325 -0.2238
   23loPI   C3B  367   4.133  11.981   7.906 -0.1103 -0.0422  0.0392
   23loPI   C4B  368   4.118  12.085   7.461  0.0053  0.0945 -0.0574
   24loPI    C1  369  19.475  11.911   9.605  0.0714 -0.1403  0.0832
   24loPI    C2  370  19.786  12.129   9.732 -0.0271  0.1109 -0.0991
   24loPI    C3  371  19.413  12.232   9.836 -0.0683 -0.0271 -0.1087
   24loPI   PO4  372  19.568  11.892   9.256 -0.2190  0.3458  0.1934
   24loPI   GL1  373  19.444  11.950   8.829  0.0620 -0.0761  0.1527
   24loPI   GL2  374  19.515  12.231   8.898  0.2171 -0.1785 -0.2230
   24loPI   C1A  375  19.665  11.791   8.372 -0.1892  0.2165 -0.0099
   24loPI   C2A  376  19.536  11.821   7.988  0.0151 -0.4542 -0.2336
   24loPI   C3A  377  19.352  12.103   7.675 -0.0992  0.2484 -0.1188
   24loPI   C4A  378  19.184  12.277   7.210  0.2020 -0.3727 -0.1593
   24loPI   C5A  379  19.101  12.474   6.793  0.3832 -0.0698 -0.4893
   24loPI   C6A  380  18.919  12.396   6.409 -0.0192 -0.3790  0.2404
   24loPI   C1B  381  19.520  12.294   8.385 -0.0992  0.0307 -0.0283
   24loPI   C2B  382  19.135  12.425   8.069  0.0645  0.0974  0.0094
   24loPI   C3B  383  18.843  12.360   7.742 -0.0337  0.2200  0.1139
   24loPI   C4B  384  18.595  12.213   7.489 -0.2134  0.1455 -0.1453
   25loPI    C1  385   9.812  13.597  10.051  0.1360 -0.1194  0.0917
   25loPI    C2  386  10.065  13.503  10.347  0.0127 -0.1729  0.1812
   25loPI    C3  387   9.780  13.778  10.407  0.1005 -0.0528  0.0548
   25loPI   PO4  388  10.014  13.631   9.738 -0.0852  0.0763  0.0797
   25loPI   GL1  389  10.216  13.298   9.387  0.2073  0.1622  0.2761
   25loPI   GL2  390  10.335  12.949   9.473 -0.2539  0.0783  0.2152
   25loPI   C1A  391  10.158  13.466   9.000  0.1389 -0.0710 -0.2196
   25loPI   C2A  392   9.823  13.580   8.718  0.2356 -0.1079  0.2389
   25loPI   C3A  393   9.891  13.694   8.340 -0.0214 -0.2729 -0.0198
   25loPI   C4A  394  10.017  13.723   7.921  0.0542 -0.0926 -0.0311
   25loPI   C5A  395  10.120  13.832   7.604  0.2516 -0.0314  0.2932
   25loPI   C6A  396  10.108  14.009   7.134  0.2906  0.4240  0.1925
   25loPI   C1B  397  10.471  13.024   9.055  0.0643 -0.1598 -0.0227
   25loPI   C2B  398  10.527  13.250   8.724  0.0523 -0.0160  0.1603
   25loPI   C3B  399  10.397  13.394   8.335 -0.1781 -0.0965  0.2790
   25loPI   C4B  400  10.541  13.630   7.889  0.3653 -0.0005  0.0910
   26loPI    C1  401   4.102   4.897   9.851  0.1757 -0.0963  0.1404
   26loPI    C2  402   3.881   4.567   9.811  0.2610 -0.1320 -0.0463
   26loPI    C3  403   4.217   4.557  10.029  0.0238 -0.0489  0.3328
   26loPI   PO4  404   4.094   4.986   9.621 -0.0560  0.0220  0.2289
   26loPI   GL1  405   4.050   5.046   9.230 -0.0140 -0.0096  0.1636
   26loPI   GL2  406   3.879   4.820   9.033 -0.1196  0.2559  0.0759
   26loPI   C1A  407   3.958   5.267   8.796 -0.1774  0.2379 -0.1411
   26loPI   C2A  408   4.029   5.253   8.422 -0.1971  0.1164 -0.2656
   26loPI   C3A  409   4.298   5.382   8.100  0.1325 -0.1202 -0.1526
   26loPI   C4A  410   4.479   5.261   7.715  0.0975 -0.1483  0.5615
   26loPI   C5A  411   4.372   5.439   7.278 -0.0551  0.3264 -0.1141
   26loPI   C6A  412   4.552   5.806   7.074 -0.4463  0.2661  0.1410
   26loPI   C1B  413   3.921   4.774   8.612  0.0444 -0.0677  0.0857
   26loPI   C2B  414   3.949   4.839   8.182 -0.2938  0.3396 -0.0520
   26loPI   C3B  415   3.948   5.113   7.905 -0.2445 -0.0813  0.0914
   26loPI   C4B  416   3.819   5.219   7.492 -0.0784 -0.2396  0.0586
   27loPI    C1  417   0.314   2.926   9.329  0.0708  0.0095  0.2129
   27loPI    C2  418   0.503   3.016   8.988 -0.0021  0.1488  0.2085
   27loPI    C3  419   0.566   3.236   9.316 -0.2528  0.2768  0.1732
   27loPI   PO4  420   0.035   2.954   9.159 -0.3505 -0.0104  0.0858
   27loPI   GL1  421   0.004   3.086   8.757 -0.2340 -0.0003 -0.3517
   27loPI   GL2  422  -0.164   2.826   8.724 -0.1324  0.1168  0.0923
   27loPI   C1A  423  -0.327   3.189   8.443  0.0277 -0.2581  0.0976
   27loPI   C2A  424  -0.198   3.360   8.032  0.2469  0.0457  0.2586
   27loPI   C3A  425  -0.271   3.370   7.586  0.1501  0.0801 -0.2436
   27loPI   C4A  426  -0.440   3.728   7.355  0.2727  0.2750  0.0990
   27loPI   C5A  427  -0.374   3.846   6.892  0.1113  0.0793 -0.1831
   27loPI   C6A  428  -0.605   3.807   6.543  0.2529 -0.1075  0.4558
   27loPI   C1B  429   0.046   2.926   8.220 -0.3407  0.2335 -0.2939
   27loPI   C2B  430   0.089   2.983   7.853  0.0348 -0.0952  0.0305
   27loPI   C3B  431   0.195   3.263   7.450 -0.0441 -0.4647 -0.2498
   27loPI   C4B  432   0.256   3.084   7.157 -0.1184 -0.0980  0.0122
   28loPI    C1  433   7.192  17.964   9.705 -0.0895 -0.0732  0.1027
   28loPI    C2  434   7.279  17.652   9.940 -0.4191  0.0398  0.3840
   28loPI    C3  435   6.924  17.672   9.758 -0.1502 -0.0713 -0.1776
   28loPI   PO4  436   7.447  17.962   9.573  0.0109  0.6560 -0.1151
   28loPI   GL1  437   7.652  18.008   9.124 -0.1719  0.2426 -0.1010
   28loPI   GL2  438   7.619  18.375   8.991  0.4110  0.0314  0.0578
   28loPI   C1A  439   7.500  17.873   8.654 -0.1468  0.0915  0.3671
   28loPI   C2A  440   7.495  17.945   8.169  0.0472  0.0202 -0.1757
   28loPI   C3A  441   7.511  17.916   7.766  0.3708 -0.0925 -0.1389
   28loPI   C4A  442   7.406  17.981   7.299  0.2393 -0.3917 -0.0339
   28loPI   C5A  443   7.805  18.013   6.999  0.1210 -0.2263 -0.2457
   28loPI   C6A  444   8.168  17.994   6.712 -0.3716 -0.0038 -0.0591
   28loPI   C1B  445   7.522  18.401   8.541  0.0944 -0.0830 -0.0617
   28loPI   C2B  446   7.620  18.419   8.172 -0.1147  0.2510  0.0633
   28loPI   C3B  447   7.531  18.461   7.738 -0.1829  0.0379  0.1046
   28loPI   C4B  448   7.485  18.447   7.247 -0.1113 -0.0358 -0.3966
   29loPI    C1  449   3.191   1.686   9.142  0.1999 -0.1856 -0.0844
   29loPI    C2  450   2.902   1.577   8.888 -0.0526  0.0247  0.1066
   29loPI    C3  451   2.967   1.364   9.220  0.1313 -0.1231 -0.0218
   29loPI   PO4  452   3.205   1.987   8.953 -0.0338  0.2986 -0.0449
   29loPI   GL1  453   3.149   2.079   8.584  0.0861 -0.1074 -0.2345
   29loPI   GL2  454   3.430   2.192   8.480 -0.2791  0.0043  0.4226
   29loPI   C1A  455   3.091   1.990   8.168 -0.1111 -0.3364 -0.3242
   29loPI   C2A  456   2.954   2.169   7.669 -0.1277  0.0892 -0.2203
   29loPI   C3A  457   2.677   2.177   7.328 -0.0763  0.0466  0.2618
   29loPI   C4A  458   2.305   2.126   7.129  0.1470 -0.1025  0.2007
   29loPI   C5A  459   1.943   1.878   6.781 -0.1498 -0.3165 -0.3395
   29loPI   C6A  460   1.662   1.734   6.414 -0.2443  0.0657 -0.1921
   29loPI   C1B  461   3.596   2.221   8.067 -0.0173  0.4705  0.2409
   29loPI   C2B  462   3.462   2.147   7.734  0.1330  0.0175 -0.2010
   29loPI   C3B  463   3.559   2.149   7.256 -0.0813 -0.0253  0.0863
   29loPI   C4B  464   3.546   2.365   6.933 -0.3028 -0.2037 -0.2522
   30loPI    C1  465   2.408   5.670   9.441 -0.1144  0.2071 -0.0338
   30loPI    C2  466   2.095   5.882   9.573  0.0477  0.2459  0.3005
   30loPI    C3  467   2.246   5.587   9.797  0.1028  0.0678  0.0345
   30loPI   PO4  468   2.284   5.702   9.104  0.1785  0.2583 -0.0888
   30loPI   GL1  469   2.177   5.815   8.747 -0.2903  0.0054 -0.0150
   30loPI   GL2  470   1.892   5.629   8.697  0.0412  0.1751  0.1830
   30loPI   C1A  471   2.183   5.732   8.253 -0.0406 -0.2116 -0.4502
   30loPI   C2A  472   2.187   5.770   7.841 -0.1518 -0.1176 -0.0987
   30loPI   C3A  473   2.124   5.909   7.345  0.0393  0.0203 -0.1012
   30loPI   C4A  474   2.101   5.661   6.837  0.0026  0.1373 -0.0061
   30loPI   C5A  475   2.153   5.296   6.562 -0.0798 -0.2772 -0.3164
   30loPI   C6A  476   2.144   4.836   6.595  0.2573 -0.0962  0.1965
   30loPI   C1B  477   1.630   5.771   8.373 -0.3594  0.0139  0.2079
   30loPI   C2B  478   1.619   5.850   7.973  0.1882 -0.3204  0.2651
   30loPI   C3B  479   1.528   6.020   7.536 -0.1368 -0.0775 -0.0885
   30loPI   C4B  480   1.703   6.235   7.227 -0.0617 -0.0719 -0.3141
   31loPI    C1  481  19.243   8.188   9.637  0.1670  0.0444  0.0491
   31loPI    C2  482  18.855   8.213   9.734  0.1321  0.0105 -0.0798
   31loPI    C3  483  19.095   8.529   9.785  0.0203  0.1314 -0.2891
   31loPI   PO4  484  19.225   8.069   9.404  0.1610  0.0340 -0.1818
   31loPI   GL1  485  19.115   8.060   8.970 -0.1748 -0.1340  0.1628
   31loPI   GL2  486  19.304   8.063   8.809  0.1524  0.1163  0.2685
   31loPI   C1A  487  19.033   8.343   8.540  0.0245 -0.2462 -0.2525
   31loPI   C2A  488  18.886   8.354   8.090  0.1022 -0.1633  0.3925
   31loPI   C3A  489  18.864   8.394   7.607  0.1884  0.2690 -0.0468
   31loPI   C4A  490  18.720   8.511   7.196  0.1641  0.0585  0.0482
   31loPI   C5A  491  18.299   8.420   6.994 -0.0721  0.0035 -0.2739
   31loPI   C6A  492  18.378   7.898   6.999 -0.2675 -0.1457  0.1735
   31loPI   C1B  493  19.526   8.332   8.626  0.0520 -0.2010  0.1087
   31loPI   C2B  494  19.668   8.257   8.165  0.1251 -0.0169  0.1334
   31loPI   C3B  495  20.019   8.217   7.828 -0.1540  0.3668  0.0731
   31loPI   C4B  496  20.108   8.534   7.629  0.1058  0.0399 -0.2312
   32loPI    C1  497   2.405   9.618   9.847  0.1129 -0.2312 -0.0943
   32loPI    C2  498   2.424   9.975  10.026 -0.3398 -0.0884 -0.3161
   32loPI    C3  499   2.152   9.706  10.144 -0.0285 -0.3494 -0.1778
   32loPI   PO4  500   2.442   9.697   9.585  0.1125  0.0410  0.0949
   32loPI   GL1  501   2.329   9.664   9.199 -0.2237  0.1378  0.0891
   32loPI   GL2  502   1.951   9.591   9.184 -0.0875  0.0056 -0.1354
   32loPI   C1A  503   2.359   9.846   8.810  0.2176 -0.2418 -0.2264
   32loPI   C2A  504   2.033  10.011   8.573 -0.1048  0.2707  0.1662
   32loPI   C3A  505   2.173   9.857   8.170  0.0149  0.2273 -0.0987
   32loPI   C4A  506   2.218  10.095   7.789 -0.1618 -0.2015  0.1504
   32loPI   C5A  507   2.472  10.095   7.499 -0.0764 -0.0352  0.1276
   32loPI   C6A  508   2.499   9.988   7.040  0.2639  0.0302 -0.0270
   32loPI   C1B  509   1.769   9.651   8.814  0.1687  0.1501  0.3595
   32loPI   C2B  510   1.824   9.523   8.309 -0.0046  0.1118 -0.0590
   32loPI   C3B  511   1.823   9.666   7.890 -0.2824  0.0324 -0.1018
   32loPI   C4B  512   2.014   9.783   7.439  0.0210 -0.0457 -0.3373
   33loPI    C1  513   9.911  10.857  10.163  0.0320  0.0277 -0.1445
   33loPI    C2  514  10.237  10.643  10.251 -0.0574 -0.0384  0.0299
   33loPI    C3  515  10.111  10.927  10.502 -0.0685  0.0663 -0.0929
   33loPI   PO4  516   9.920  10.847   9.836 -0.2394 -0.0911  0.0216
   33loPI   GL1  517   9.939  11.047   9.445  0.1861  0.0292  0.0630
   33loPI   GL2  518   9.730  10.792   9.357  0.1104  0.4214  0.1347
   33loPI   C1A  519   9.757  11.211   9.107 -0.2556 -0.0138 -0.2629
   33loPI   C2A  520   9.816  11.175   8.709 -0.3063 -0.1765  0.0310
   33loPI   C3A  521   9.833  11.343   8.292 -0.3002 -0.1482 -0.1447
   33loPI   C4A  522  10.003  11.334   7.931  0.2592  0.1108  0.0124
   33loPI   C5A  523  10.021  11.435   7.580  0.0771 -0.2027  0.2170
   33loPI   C6A  524  10.240  11.268   7.230 -0.0953 -0.1983  0.0534
   33loPI   C1B  525   9.959  10.767   8.838  0.1171 -0.1604  0.2642
   33loPI   C2B  526   9.922  10.672   8.441  0.4502  0.0062 -0.0714
   33loPI   C3B  527   9.973  10.821   8.124  0.1826 -0.3200 -0.0891
   33loPI   C4B  528   9.941  10.855   7.741 -0.0741  0.3112 -0.3453
   34loPI    C1  529   4.120   0.003   9.231  0.0738 -0.0393 -0.1361
   34loPI    C2  530   4.195   0.395   9.211 -0.1134 -0.0053 -0.1876
   34loPI    C3  531   3.955   0.252   9.497  0.2078 -0.1235  0.0280
   34loPI   PO4  532   4.065  -0.045   8.957  0.5468 -0.0335 -0.1190
   34loPI   GL1  533   4.094  -0.022   8.586  0.1892  0.1394  0.2360
   34loPI   GL2  534   4.203   0.067   8.305  0.0238  0.2918 -0.4764
   34loPI   C1A  535   3.726  -0.202   8.228 -0.0247 -0.2616  0.1895
   34loPI   C2A  536   3.582  -0.344   7.780 -0.1668  0.0260 -0.0355
   34loPI   C3A  537   3.613  -0.251   7.303 -0.0912  0.1217  0.1420
   34loPI   C4A  538   3.661  -0.208   6.891  0.1906 -0.2614  0.2919
   34loPI   C5A  539   3.578  -0.491   6.495  0.1020  0.0143 -0.2699
   34loPI   C6A  540   3.285  -0.838   6.349  0.2449 -0.1975 -0.0623
   34loPI   C1B  541   4.301  -0.103   7.922 -0.0813  0.0748  0.1441
   34loPI   C2B  542   4.543  -0.420   7.623  0.0119  0.3452  0.1168
   34loPI   C3B  543   4.214  -0.747   7.377  0.3661  0.0045 -0.0260
   34loPI   C4B  544   3.967  -1.187   7.417  0.2982  0.1330  0.0014
   35loPI    C1  545  13.934   1.918   9.521 -0.2922  0.0473  0.0650
   35loPI    C2  546  13.933   2.017   9.909  0.1804  0.0525  0.0708
   35loPI    C3  547  13.790   1.662   9.793 -0.1069  0.1139  0.2284
   35loPI   PO4  548  13.808   2.117   9.427 -0.0220 -0.0640 -0.2720
   35loPI   GL1  549  13.734   2.111   9.018  0.0004  0.2598 -0.2668
   35loPI   GL2  550  13.800   2.397   8.894  0.4235 -0.4304  0.3141
   35loPI   C1A  551  13.810   2.065   8.541  0.0372  0.0491  0.1187
   35loPI   C2A  552  13.727   2.139   8.140  0.0775  0.0709  0.1272
   35loPI   C3A  553  13.574   2.053   7.634 -0.0628  0.2974 -0.2784
   35loPI   C4A  554  13.508   2.047   7.212 -0.2513 -0.1840 -0.0829
   35loPI   C5A  555  13.575   2.083   6.776  0.1042  0.1466  0.1651
   35loPI   C6A  556  13.292   2.245   6.382 -0.0631 -0.1636  0.2258
   35loPI   C1B  557  13.634   2.606   8.464 -0.0709  0.0404 -0.0693
   35loPI   C2B  558  13.432   2.513   8.150  0.1187 -0.1807  0.0767
   35loPI   C3B  559  13.099   2.510   7.837  0.0987  0.0328  0.0258
   35loPI   C4B  560  12.858   2.552   7.424 -0.0675 -0.0419  0.2572
   36loPI    C1  561  13.793   6.216   9.742  0.1684  0.0050 -0.0575
   36loPI    C2  562  13.518   6.435   9.934 -0.0573 -0.1591 -0.1879
   36loPI    C3  563  13.881   6.587   9.862 -0.1100  0.0571 -0.0065
   36loPI   PO4  564  13.652   6.180   9.516  0.1039  0.2996 -0.0622
   36loPI   GL1  565  13.765   5.917   9.113 -0.1131  0.1603  0.2353
   36loPI   GL2  566  13.888   5.818   8.972 -0.0352  0.1579  0.5032
   36loPI   C1A  567  13.810   6.287   8.785  0.0081 -0.0616  0.4092
   36loPI   C2A  568  13.703   6.370   8.347  0.0812 -0.0871 -0.1516
   36loPI   C3A  569  13.480   6.722   8.081  0.1351 -0.1579 -0.2661
   36loPI   C4A  570  13.520   6.830   7.630 -0.2200  0.0934  0.0885
   36loPI   C5A  571  13.609   6.882   7.234 -0.0860  0.1370 -0.1976
   36loPI   C6A  572  13.604   7.283   7.080 -0.1724  0.1889 -0.1741
   36loPI   C1B  573  14.148   5.876   8.626  0.2839 -0.0429 -0.0206
   36loPI   C2B  574  14.046   6.052   8.234  0.0170 -0.0395  0.0330
   36loPI   C3B  575  14.127   6.046   7.797 -0.1631 -0.1753 -0.1574
   36loPI   C4B  576  14.017   6.087   7.365  0.0997 -0.2624  0.1683
   37loPI    C1  577   6.293   7.767   9.266 -0.0757  0.0830  0.0949
   37loPI    C2  578   6.162   7.530   9.560 -0.0751 -0.2309 -0.1524
   37loPI    C3  579   5.918   7.804   9.400 -0.1521 -0.2240 -0.0243
   37loPI   PO4  580   6.406   7.556   9.136  0.1514 -0.1398 -0.0131
   37loPI   GL1  581   6.398   7.555   8.744  0.2512  0.3643  0.1941
   37loPI   GL2  582   6.110   7.316   8.673  0.0677  0.1062 -0.1494
   37loPI   C1A  583   6.687   7.864   8.511  0.3566  0.0591  0.3094
   37loPI   C2A  584   6.683   8.027   8.117  0.1374 -0.0501 -0.1444
   37loPI   C3A  585   6.764   8.134   7.748 -0.0870  0.1435  0.5136
   37loPI   C4A  586   6.718   7.857   7.308  0.1485 -0.2466  0.0393
   37loPI   C5A  587   6.837   7.438   7.057 -0.0400  0.0722  0.2046
   37loPI   C6A  588   6.539   7.152   6.749 -0.0604  0.0996  0.3090
   37loPI   C1B  589   6.133   7.431   8.318  0.1541 -0.1615  0.1798
   37loPI   C2B  590   6.026   7.595   7.911  0.0612 -0.0113 -0.3445
   37loPI   C3B  591   5.772   7.498   7.481  0.0187  0.1620 -0.1051
   37loPI   C4B  592   5.789   7.321   7.182  0.1510 -0.0420  0.2826
   38loPI    C1  593   1.019  11.578   9.232 -0.2090 -0.0331  0.0936
   38loPI    C2  594   0.826  11.369   9.513  0.0478 -0.2019  0.1480
   38loPI    C3  595   1.168  11.555   9.603 -0.2425  0.3579  0.1356
   38loPI   PO4  596   0.800  11.769   9.150 -0.3164 -0.0442  0.2048
   38loPI   GL1  597   0.948  12.173   9.075  0.0264  0.1100  0.1522
   38loPI   GL2  598   1.347  12.312   9.146 -0.3126 -0.2618 -0.1242
   38loPI   C1A  599   0.780  12.060   8.637  0.1395 -0.4201  0.1318
   38loPI   C2A  600   0.843  12.110   8.255 -0.1624  0.4183 -0.0055
   38loPI   C3A  601   0.756  12.270   7.964 -0.3005  0.3307  0.1435
   38loPI   C4A  602   0.799  12.408   7.490  0.0449  0.4541  0.0744
   38loPI   C5A  603   1.039  12.451   7.059  0.2215  0.1622  0.0516
   38loPI   C6A  604   1.037  12.049   6.702 -0.4352  0.2939  0.1269
   38loPI   C1B  605   1.310  12.268   8.644 -0.2733 -0.0265  0.1140
   38loPI   C2B  606   1.283  12.315   8.163 -0.1580  0.2570  0.1407
   38loPI   C3B  607   1.254  12.340   7.765  0.1128 -0.1025  0.2337
   38loPI   C4B  608   1.269  12.700   7.468 -0.1581  0.0467  0.0610
   39loPI    C1  609   6.074  12.380   9.895  0.1778  0.0822  0.1268
   39loPI    C2  610   6.365  12.573  10.091  0.0239  0.3216  0.1235
   39loPI    C3  611   6.118  12.330  10.290  0.2018  0.1454  0.1322
   39loPI   PO4  612   6.167  12.188   9.685 -0.1234 -0.0888  0.2685
   39loPI   GL1  613   6.089  12.241   9.350 -0.0085  0.1929  0.1351
   39loPI   GL2  614   6.376  12.214   9.160 -0.2102 -0.0499  0.1692
   39loPI   C1A  615   5.796  12.125   8.928 -0.2407  0.1966 -0.0247
   39loPI   C2A  616   5.704  12.318   8.514 -0.3546 -0.1979  0.1551
   39loPI   C3A  617   5.761  12.410   8.072  0.1939 -0.1145  0.0104
   39loPI   C4A  618   5.445  12.505   7.741 -0.1910  0.2636  0.0884
   39loPI   C5A  619   5.128  12.570   7.551  0.1288  0.0921  0.4929
   39loPI   C6A  620   4.740  12.320   7.613 -0.0557 -0.0899  0.1092
   39loPI   C1B  621   6.268  12.178   8.779  0.1168 -0.1485  0.1134
   39loPI   C2B  622   6.278  12.403   8.404  0.1309  0.1739 -0.2088
   39loPI   C3B  623   6.236  12.534   8.029 -0.1124  0.1179 -0.1093
   39loPI   C4B  624   6.003  12.554   7.590 -0.0182 -0.0960 -0.0342
   40loPI    C1  625   0.622  12.250   9.490 -0.0114  0.2247 -0.0449
   40loPI    C2  626   0.644  12.220   9.888  0.0195  0.0681 -0.0579
   40loPI    C3  627   0.812  11.940   9.657 -0.2050  0.0305 -0.1788
   40loPI   PO4  628   0.812  12.518   9.437  0.4544  0.1566  0.0260
   40loPI   GL1  629   0.875  12.885   9.205  0.0008  0.0908 -0.0350
   40loPI   GL2  630   1.059  12.733   9.012 -0.0063 -0.0189 -0.0265
   40loPI   C1A  631   0.664  13.004   8.722 -0.1550 -0.1253 -0.1720
   40loPI   C2A  632   0.538  13.033   8.279 -0.2048 -0.2047 -0.0338
   40loPI   C3A  633   0.625  13.149   7.783 -0.0727 -0.2962 -0.0593
   40loPI   C4A  634   0.598  13.335   7.381  0.0427 -0.0673 -0.0944
   40loPI   C5A  635   0.555  13.564   7.022 -0.2961 -0.3420 -0.0170
   40loPI   C6A  636   0.654  13.734   6.611  0.0203  0.0838 -0.3752
   40loPI   C1B  637   0.904  12.550   8.692  0.1603 -0.0374 -0.0496
   40loPI   C2B  638   0.848  12.608   8.333 -0.1124 -0.0666  0.0449
   40loPI   C3B  639   0.937  12.747   7.830 -0.1583 -0.0641 -0.1184
   40loPI   C4B  640   0.844  12.898   7.416 -0.1964  0.0333  0.0529
   41loPI    C1  641   3.066   8.869   9.597  0.1798 -0.3332  0.0046
   41loPI    C2  642   3.345   9.049   9.820  0.0555 -0.0412 -0.0706
   41loPI    C3  643   3.028   8.880   9.996  0.0867 -0.0363 -0.0094
   41loPI   PO4  644   2.982   9.050   9.390  0.0732  0.1838 -0.1330
   41loPI   GL1  645   3.014   9.292   9.012 -0.1056 -0.0642 -0.2176
   41loPI   GL2  646   2.836   9.531   9.177  0.1638  0.0131  0.0594
   41loPI   C1A  647   3.175   9.314   8.680 -0.0235  0.0177  0.3485
   41loPI   C2A  648   2.958   9.256   8.315 -0.1016  0.0074  0.5615
   41loPI   C3A  649   2.696   9.105   8.074  0.1840 -0.0572  0.0243
   41loPI   C4A  650   2.535   9.041   7.609 -0.1863 -0.3173  0.2451
   41loPI   C5A  651   2.618   8.913   7.169  0.1238 -0.0160  0.0958
   41loPI   C6A  652   2.756   8.860   6.798  0.1486 -0.1233 -0.3053
   41loPI   C1B  653   2.851   9.818   8.819  0.0401  0.1717 -0.1613
   41loPI   C2B  654   2.601   9.902   8.419 -0.2797  0.2462 -0.0671
   41loPI   C3B  655   2.606   9.679   7.960  0.0025 -0.0920 -0.0436
   41loPI   C4B  656   2.609   9.559   7.496  0.1618  0.0584  0.0224
   42loPI    C1  657   3.492  13.152   9.941  0.0856 -0.1719 -0.0982
   42loPI    C2  658   3.141  12.980  10.028  0.0109  0.1460  0.2575
   42loPI    C3  659   3.483  12.785  10.099 -0.0841 -0.0482  0.1886
   42loPI   PO4  660   3.512  13.242   9.786 -0.1265  0.1062 -0.0262
   42loPI   GL1  661   3.670  13.318   9.425 -0.1031  0.1694 -0.5293
   42loPI   GL2  662   3.385  13.329   9.221 -0.1032  0.1330  0.3060
   42loPI   C1A  663   3.878  13.464   9.115 -0.2379  0.1252 -0.2498
   42loPI   C2A  664   4.002  13.662   8.704  0.0859  0.5865 -0.1294
   42loPI   C3A  665   4.119  13.783   8.368 -0.1296  0.1052  0.0958
   42loPI   C4A  666   4.321  13.845   7.961 -0.1438 -0.2199 -0.0048
   42loPI   C5A  667   4.621  13.849   7.666 -0.0777 -0.2205 -0.3370
   42loPI   C6A  668   4.775  13.957   7.217  0.3446  0.0701  0.3762
   42loPI   C1B  669   3.026  13.275   8.923  0.0104 -0.0883 -0.1426
   42loPI   C2B  670   2.778  13.261   8.464  0.2417  0.0781  0.0882
   42loPI   C3B  671   2.765  13.354   8.061  0.2919  0.0664 -0.1492
   42loPI   C4B  672   2.578  13.430   7.586  0.0838 -0.2622 -0.1791
   43loPI    C1  673   0.307  19.490   9.555  0.0642  0.1566 -0.0551
   43loPI    C2  674  -0.021  19.534   9.779  0.1071  0.0644  0.0268
   43loPI    C3  675   0.319  19.406   9.945  0.2072  0.2370 -0.0413
   43loPI   PO4  676   0.106  19.432   9.312 -0.1527 -0.2050 -0.2852
   43loPI   GL1  677   0.270  19.526   8.977  0.0077 -0.1066  0.0719
   43loPI   GL2  678   0.076  19.849   8.973  0.0955 -0.0347  0.2268
   43loPI   C1A  679   0.512  19.316   8.621  0.1928  0.1645  0.1456
   43loPI   C2A  680   0.513  19.299   8.107  0.0946  0.0470 -0.0508
   43loPI   C3A  681   0.519  19.345   7.583  0.0473  0.1609  0.2019
   43loPI   C4A  682   0.632  19.303   7.059 -0.0290 -0.1015 -0.3591
   43loPI   C5A  683   0.636  18.959   6.684 -0.0580 -0.3970 -0.1089
   43loPI   C6A  684   0.879  18.912   6.399 -0.1815 -0.0229 -0.0623
   43loPI   C1B  685   0.210  19.912   8.552 -0.1389  0.0214  0.0455
   43loPI   C2B  686   0.376  19.783   8.204 -0.0038  0.4154  0.3289
   43loPI   C3B  687   0.712  19.778   7.821  0.0258  0.1247 -0.0292
   43loPI   C4B  688   0.730  19.960   7.399 -0.1408  0.0153  0.4234
   44loPI    C1  689   1.664  11.471   9.657 -0.0117  0.0981 -0.2791
   44loPI    C2  690   1.901  11.456   9.979  0.0713  0.2282 -0.3332
   44loPI    C3  691   1.573  11.686   9.982 -0.1794 -0.1216 -0.1779
   44loPI   PO4  692   1.868  11.530   9.503  0.0282 -0.0671  0.0125
   44loPI   GL1  693   1.832  11.569   9.023  0.2012 -0.1675 -0.0851
   44loPI   GL2  694   1.923  11.468   8.681  0.1498 -0.1403  0.0474
   44loPI   C1A  695   2.250  11.756   8.929  0.0391 -0.2218  0.1729
   44loPI   C2A  696   2.286  12.106   8.715  0.0676  0.0776  0.3318
   44loPI   C3A  697   2.268  12.387   8.373 -0.1460  0.1673  0.0169
   44loPI   C4A  698   2.271  12.467   7.801  0.2158 -0.1075 -0.2433
   44loPI   C5A  699   2.272  12.542   7.347 -0.3018  0.0926 -0.0616
   44loPI   C6A  700   2.275  12.652   6.951  0.0587  0.1313  0.0105
   44loPI   C1B  701   2.027  11.623   8.353  0.4088 -0.0986 -0.1653
   44loPI   C2B  702   2.101  11.633   7.963  0.1087  0.0280 -0.2775
   44loPI   C3B  703   2.055  11.571   7.484  0.2572 -0.1557 -0.0497
   44loPI   C4B  704   1.751  11.326   7.188  0.4768  0.0452  0.2014
   45loPI    C1  705  14.990   5.343   9.791 -0.1648  0.2171  0.0020
   45loPI    C2  706  15.015   5.717   9.931  0.0577  0.1510  0.1431
   45loPI    C3  707  15.083   5.407  10.175 -0.0939  0.0184  0.0190
   45loPI   PO4  708  15.117   5.367   9.588  0.0818  0.1266 -0.2401
   45loPI   GL1  709  14.959   5.297   9.233 -0.0357  0.1196  0.2001
   45loPI   GL2  710  14.740   5.183   8.920 -0.1156 -0.0201 -0.0696
   45loPI   C1A  711  15.121   4.867   8.984  0.3545 -0.3408  0.0867
   45loPI   C2A  712  15.137   4.798   8.568  0.0016  0.0391 -0.2046
   45loPI   C3A  713  15.255   4.626   8.217  0.2491  0.1709  0.3817
   45loPI   C4A  714  15.242   4.724   7.831 -0.3789  0.1635  0.0567
   45loPI   C5A  715  15.292   4.806   7.431  0.0131  0.0493  0.4109
   45loPI   C6A  716  15.404   4.775   6.920  0.0147  0.0072 -0.2788
   45loPI   C1B  717  15.172   5.337   8.760 -0.2336  0.0428  0.1617
   45loPI   C2B  718  15.299   5.588   8.372  0.0944 -0.0469  0.0502
   45loPI   C3B  719  15.361   5.726   7.925 -0.0158  0.2996  0.2640
   45loPI   C4B  720  15.392   5.750   7.506  0.1388 -0.2486 -0.3168
   46loPI    C1  721  15.156   4.461   9.820 -0.0046  0.0071 -0.2355
   46loPI    C2  722  15.031   4.109   9.961 -0.1289  0.1111 -0.0833
   46loPI    C3  723  15.418   4.206   9.983 -0.0762 -0.0607 -0.2256
   46loPI   PO4  724  15.091   4.403   9.536  0.2329 -0.3487  0.0698
   46loPI   GL1  725  15.179   4.356   9.083  0.0178  0.0401  0.1367
   46loPI   GL2  726  15.473   4.577   9.040 -0.0067 -0.0139  0.0738
   46loPI   C1A  727  15.127   4.306   8.756 -0.1865 -0.1377  0.0084
   46loPI   C2A  728  14.985   4.277   8.388 -0.2216  0.0922  0.3496
   46loPI   C3A  729  14.888   4.236   7.943  0.0330 -0.3334  0.0506
   46loPI   C4A  730  14.693   4.433   7.569 -0.2288 -0.1476  0.2102
   46loPI   C5A  731  14.448   4.351   7.083  0.1832 -0.1450 -0.2522
   46loPI   C6A  732  14.334   3.939   6.910 -0.3156  0.0904  0.1935
   46loPI   C1B  733  15.607   4.503   8.596 -0.2186  0.2066 -0.0324
   46loPI   C2B  734  15.726   4.498   8.212 -0.1696 -0.0213 -0.0581
   46loPI   C3B  735  15.742   4.535   7.817  0.1919  0.1246 -0.0218
   46loPI   C4B  736  15.833   4.438   7.385  0.3681 -0.2147  0.3454
   47loPI    C1  737   6.407  10.581   9.470  0.1004 -0.0207 -0.0627
   47loPI    C2  738   6.096  10.367   9.601  0.0407  0.2205  0.1981
   47loPI    C3  739   6.449  10.344   9.789  0.1869 -0.0584 -0.1017
   47loPI   PO4  740   6.430  10.554   9.232  0.1385 -0.3612  0.0015
   47loPI   GL1  741   6.617  10.374   8.946  0.2061 -0.3933  0.2240
   47loPI   GL2  742   6.506  10.699   8.756 -0.1277  0.0435  0.2557
   47loPI   C1A  743   6.768  10.269   8.635 -0.0713  0.1080 -0.1389
   47loPI   C2A  744   6.662  10.363   8.154 -0.0610  0.0721  0.1434
   47loPI   C3A  745   6.490  10.245   7.744 -0.0711  0.0162 -0.2118
   47loPI   C4A  746   6.281  10.098   7.531 -0.0808 -0.2511 -0.1021
   47loPI   C5A  747   6.253  10.070   7.065  0.1179  0.1710  0.3825
   47loPI   C6A  748   6.364   9.801   6.634  0.0018  0.1422  0.1821
   47loPI   C1B  749   6.691  10.771   8.502  0.0226  0.0577  0.0520
   47loPI   C2B  750   6.752  10.824   8.131 -0.2122 -0.4509  0.2398
   47loPI   C3B  751   6.468  10.835   7.793 -0.1836  0.1475  0.1204
   47loPI   C4B  752   6.470  10.612   7.429 -0.1553 -0.2138 -0.1247
   48loPI    C1  753   6.595  11.079   9.671  0.0190  0.2218  0.1760
   48loPI    C2  754   6.376  10.928   9.970  0.1215 -0.0877  0.0981
   48loPI    C3  755   6.732  10.768   9.882 -0.0058 -0.1468 -0.3336
   48loPI   PO4  756   6.755  11.355   9.501  0.1049 -0.0313  0.2445
   48loPI   GL1  757   6.787  11.404   9.045 -0.0569  0.0177 -0.4073
   48loPI   GL2  758   6.819  11.745   9.066 -0.0600 -0.1097 -0.0225
   48loPI   C1A  759   6.627  11.235   8.711 -0.2758 -0.0148  0.5045
   48loPI   C2A  760   6.551  11.285   8.401  0.1583  0.0265  0.1722
   48loPI   C3A  761   6.585  11.300   7.971  0.0691  0.1731 -0.3134
   48loPI   C4A  762   6.377  11.293   7.588 -0.1109  0.0265  0.2324
   48loPI   C5A  763   5.939  11.347   7.516  0.2732 -0.0547  0.1562
   48loPI   C6A  764   5.528  11.189   7.289  0.0604  0.1138  0.2410
   48loPI   C1B  765   6.859  11.644   8.608 -0.0663 -0.0746  0.0928
   48loPI   C2B  766   6.830  11.636   8.196  0.1004  0.2720  0.3191
   48loPI   C3B  767   7.085  11.661   7.819 -0.2084 -0.0485  0.0480
   48loPI   C4B  768   7.505  11.835   7.597  0.1820 -0.0505 -0.0633
   49loPI    C1  769  18.091  18.472   9.382 -0.0424  0.1060 -0.1883
   49loPI    C2  770  18.084  18.454   9.781 -0.0292  0.0121 -0.1921
   49loPI    C3  771  17.870  18.732   9.590 -0.1439 -0.0293 -0.1251
   49loPI   PO4  772  18.353  18.453   9.282  0.0345 -0.1768  0.0266
   49loPI   GL1  773  18.411  18.360   8.859 -0.0487 -0.1256  0.0950
   49loPI   GL2  774  18.284  18.640   8.826  0.1821 -0.1932  0.4154
   49loPI   C1A  775  18.455  18.375   8.474 -0.4017  0.3455  0.1251
   49loPI   C2A  776  18.578  18.562   8.066 -0.0433 -0.2928  0.1586
   49loPI   C3A  777  18.765  18.436   7.739 -0.2880  0.1605 -0.1225
   49loPI   C4A  778  18.937  18.400   7.297 -0.0238 -0.3211 -0.3017
   49loPI   C5A  779  19.024  18.200   6.923 -0.0646  0.1300  0.2562
   49loPI   C6A  780  19.021  17.838   6.678 -0.2701  0.1805  0.1083
   49loPI   C1B  781  18.014  18.701   8.414 -0.2324  0.0542  0.1024
   49loPI   C2B  782  18.078  18.545   7.969  0.0783  0.3063  0.0227
   49loPI   C3B  783  18.354  18.688   7.615  0.0474 -0.1792  0.0886
   49loPI   C4B  784  18.589  18.704   7.164  0.0785  0.0038 -0.1466
   50loPI    C1  785   7.179  16.111   9.898 -0.1714  0.0206  0.0731
   50loPI    C2  786   7.007  15.779   9.754  0.1280 -0.0355 -0.1664
   50loPI    C3  787   7.047  15.828  10.149 -0.2645 -0.1043 -0.1133
   50loPI   PO4  788   7.192  16.210   9.596  0.0921 -0.1522 -0.0816
   50loPI   GL1  789   7.215  16.217   9.219 -0.1775 -0.1144  0.1569
   50loPI   GL2  790   6.865  16.317   9.200  0.2348 -0.0839 -0.0489
   50loPI   C1A  791   7.467  16.484   8.854  0.1042 -0.2903 -0.3251
   50loPI   C2A  792   7.482  16.607   8.443 -0.3224 -0.2290 -0.0012
   50loPI   C3A  793   7.418  16.608   8.015  0.1312  0.3665  0.3328
   50loPI   C4A  794   7.473  16.432   7.596 -0.2641  0.2422 -0.1718
   50loPI   C5A  795   7.781  16.009   7.612 -0.0722  0.1460 -0.3505
   50loPI   C6A  796   8.159  15.927   7.720  0.0506  0.0581  0.0694
   50loPI   C1B  797   6.922  16.342   8.730 -0.0802 -0.3655 -0.2528
   50loPI   C2B  798   7.019  16.500   8.354  0.1447 -0.0438  0.3699
   50loPI   C3B  799   6.997  16.275   7.962  0.1289 -0.1238 -0.0213
   50loPI   C4B  800   7.009  16.111   7.481 -0.1945 -0.0651 -0.3091
   51loPI    C1  801   7.131   4.951   9.372  0.1732  0.1048  0.2149
   51loPI    C2  802   6.833   4.849   9.619  0.2047 -0.1003  0.1701
   51loPI    C3  803   7.074   5.155   9.711  0.0832 -0.0389  0.2871
   51loPI   PO4  804   7.143   4.890   9.152  0.2193 -0.1267 -0.1608
   51loPI   GL1  805   6.787   5.088   8.778  0.1527  0.4485  0.0421
   51loPI   GL2  806   6.990   5.285   8.805  0.0114 -0.0295 -0.3982
   51loPI   C1A  807   6.532   4.841   8.539  0.0902  0.3430  0.1548
   51loPI   C2A  808   6.288   4.561   8.212  0.0405  0.1085 -0.1513
   51loPI   C3A  809   6.052   4.508   7.843 -0.2391  0.4454 -0.0509
   51loPI   C4A  810   5.775   4.529   7.588  0.0539  0.0276  0.1618
   51loPI   C5A  811   5.720   4.774   7.213 -0.0165 -0.0125  0.0233
   51loPI   C6A  812   5.682   5.112   6.834  0.0270  0.1834  0.1397
   51loPI   C1B  813   7.323   5.327   8.456 -0.2029  0.0082 -0.3213
   51loPI   C2B  814   7.416   5.253   7.979  0.4025 -0.1211 -0.3464
   51loPI   C3B  815   7.412   5.234   7.498  0.2058  0.0509  0.0087
   51loPI   C4B  816   7.534   5.213   7.055  0.1381  0.0170 -0.1008
   52loPI    C1  817   8.529  12.143   9.703  0.0932  0.0842  0.2155
   52loPI    C2  818   8.213  12.298   9.893  0.0567  0.1154  0.1302
   52loPI    C3  819   8.571  12.289  10.073  0.0311  0.1803  0.1850
   52loPI   PO4  820   8.604  12.305   9.532 -0.1878 -0.0275 -0.0884
   52loPI   GL1  821   8.566  12.580   9.137 -0.1418  0.2354 -0.0453
   52loPI   GL2  822   8.672  12.910   9.178  0.1372 -0.0492 -0.0040
   52loPI   C1A  823   8.538  12.676   8.657 -0.0224 -0.1367  0.0351
   52loPI   C2A  824   8.574  12.871   8.269  0.0187 -0.1900 -0.0638
   52loPI   C3A  825   8.584  12.921   7.924  0.0106 -0.1173  0.2925
   52loPI   C4A  826   8.547  12.815   7.454 -0.1972 -0.3402  0.2148
   52loPI   C5A  827   8.329  13.065   7.196  0.1086 -0.0210  0.2211
   52loPI   C6A  828   8.558  13.191   6.808 -0.2018 -0.1228  0.0353
   52loPI   C1B  829   8.944  12.956   8.840  0.1123  0.1133  0.1554
   52loPI   C2B  830   8.981  13.160   8.392 -0.1970  0.5271  0.1402
   52loPI   C3B  831   9.011  13.272   7.937  0.6767  0.0007 -0.1562
   52loPI   C4B  832   8.839  13.313   7.591 -0.1731 -0.1110  0.1519
   53loPI    C1  833  13.981  10.216   9.609 -0.0462  0.0728 -0.2242
   53loPI    C2  834  13.814   9.968   9.874  0.0302 -0.1389 -0.3715
   53loPI    C3  835  14.212   9.992   9.847  0.0225 -0.1160 -0.4652
   53loPI   PO4  836  13.837  10.198   9.473 -0.1368 -0.3082 -0.2087
   53loPI   GL1  837  13.791  10.094   9.099 -0.0484 -0.1603  0.2827
   53loPI   GL2  838  13.913   9.771   8.860  0.1288 -0.2969 -0.3301
   53loPI   C1A  839  14.131  10.283   8.897  0.0017 -0.3988  0.0398
   53loPI   C2A  840  14.308  10.349   8.649  0.2560  0.0607 -0.0403
   53loPI   C3A  841  14.421  10.276   8.295  0.2099 -0.0043  0.3413
   53loPI   C4A  842  14.244  10.407   7.946 -0.4926 -0.2422 -0.0451
   53loPI   C5A  843  14.220  10.489   7.523 -0.3838 -0.0504  0.0568
   53loPI   C6A  844  14.468  10.536   7.196  0.0069 -0.2266  0.0497
   53loPI   C1B  845  14.040   9.956   8.456 -0.1956  0.4357 -0.1636
   53loPI   C2B  846  14.074   9.962   8.002 -0.1398  0.3459  0.2589
   53loPI   C3B  847  14.243   9.997   7.566 -0.1161 -0.0438 -0.1737
   53loPI   C4B  848  14.590  10.038   7.306 -0.1037 -0.4041 -0.0861
   54loPI    C1  849   5.001  12.022   9.930  0.0003 -0.3305 -0.2871
   54loPI    C2  850   4.835  11.756  10.180 -0.0760  0.0507  0.0788
   54loPI    C3  851   5.231  11.815  10.185 -0.0985  0.1969  0.2532
   54loPI   PO4  852   4.849  12.027   9.650 -0.2933 -0.2924  0.1416
   54loPI   GL1  853   4.764  12.373   9.321  0.0460  0.0534  0.0865
   54loPI   GL2  854   4.485  12.390   9.198  0.1929 -0.2707  0.2245
   54loPI   C1A  855   5.005  12.504   8.982 -0.0549 -0.0188 -0.3234
   54loPI   C2A  856   5.387  12.721   9.003  0.0398  0.0169 -0.1768
   54loPI   C3A  857   5.521  12.761   8.577 -0.0917 -0.2510  0.2613
   54loPI   C4A  858   5.354  12.875   8.135 -0.0533 -0.1285 -0.1488
   54loPI   C5A  859   5.258  12.973   7.773  0.0204  0.1680 -0.0163
   54loPI   C6A  860   5.312  12.930   7.268  0.2108 -0.0056 -0.0593
   54loPI   C1B  861   4.332  12.493   8.820  0.2199 -0.3548  0.1318
   54loPI   C2B  862   4.143  12.880   8.590 -0.0405 -0.1782  0.0808
   54loPI   C3B  863   3.952  13.150   8.430  0.3265  0.2103 -0.2445
   54loPI   C4B  864   3.767  13.329   8.157 -0.0190 -0.3817  0.3203
   55loPI    C1  865   8.849  13.911  10.091  0.1020  0.2453  0.2663
   55loPI    C2  866   8.974  14.118   9.773  0.1960 -0.1450  0.0423
   55loPI    C3  867   9.017  14.270  10.140  0.0006  0.3520 -0.1316
   55loPI   PO4  868   8.584  13.764   9.806  0.0102 -0.0917  0.2370
   55loPI   GL1  869   8.473  14.075   9.541  0.0732  0.3548  0.1070
   55loPI   GL2  870   8.486  14.359   9.448 -0.3470  0.0817  0.0336
   55loPI   C1A  871   8.510  13.848   9.137  0.0921  0.0275 -0.2688
   55loPI   C2A  872   8.478  13.778   8.642 -0.3626  0.0954  0.0721
   55loPI   C3A  873   8.509  13.888   8.235  0.0046  0.0788  0.0190
   55loPI   C4A  874   8.703  13.739   7.831 -0.0377 -0.1358 -0.1452
   55loPI   C5A  875   8.996  13.809   7.464 -0.2466 -0.0151 -0.0863
   55loPI   C6A  876   9.271  13.855   7.215 -0.2006 -0.1836  0.2748
   55loPI   C1B  877   8.799  14.331   9.120 -0.1744 -0.0150  0.1267
   55loPI   C2B  878   9.061  14.552   8.893  0.2938 -0.0403 -0.0543
   55loPI   C3B  879   9.393  14.514   8.715 -0.1470  0.1238  0.0516
   55loPI   C4B  880   9.777  14.437   8.511  0.2088 -0.1287  0.2963
   56loPI    C1  881   4.341   4.238   9.676 -0.1500 -0.2077 -0.1513
   56loPI    C2  882   4.093   3.987   9.865  0.0578 -0.2714  0.0412
   56loPI    C3  883   4.477   3.887   9.812  0.0612 -0.1419 -0.1897
   56loPI   PO4  884   4.155   4.369   9.429  0.0245  0.0757  0.3989
   56loPI   GL1  885   3.980   4.109   9.000 -0.1693 -0.1041  0.1852
   56loPI   GL2  886   3.804   4.303   8.856  0.0607  0.1651  0.2811
   56loPI   C1A  887   4.288   3.892   8.692  0.2261  0.0915  0.1490
   56loPI   C2A  888   4.237   3.959   8.324 -0.2580 -0.1813  0.1175
   56loPI   C3A  889   4.183   4.057   7.910  0.0459  0.1071  0.1983
   56loPI   C4A  890   4.461   4.212   7.578  0.0007  0.2919  0.1825
   56loPI   C5A  891   4.946   4.208   7.323 -0.1966  0.2887  0.0754
   56loPI   C6A  892   5.142   4.130   7.040 -0.0715  0.0326 -0.0638
   56loPI   C1B  893   3.767   4.338   8.364  0.0129  0.0475 -0.1087
   56loPI   C2B  894   3.621   4.473   7.905 -0.1774 -0.3139 -0.0280
   56loPI   C3B  895   3.662   4.607   7.534  0.2323 -0.1829 -0.4143
   56loPI   C4B  896   3.862   4.796   7.174  0.0455 -0.0610  0.4859
   57loPI    C1  897   4.197   8.647   9.234 -0.1620  0.0683 -0.0090
   57loPI    C2  898   3.960   8.598   9.553 -0.1028 -0.2043 -0.0041
   57loPI    C3  899   4.232   8.320   9.462  0.2837  0.1477  0.0456
   57loPI   PO4  900   4.110   8.857   9.087 -0.0590 -0.3191 -0.3135
   57loPI   GL1  901   3.878   8.853   8.704  0.0600 -0.0204 -0.1799
   57loPI   GL2  902   3.829   8.540   8.566 -0.2703  0.3187 -0.0268
   57loPI   C1A  903   3.559   9.078   8.465  0.2063 -0.0388 -0.0598
   57loPI   C2A  904   3.456   9.305   8.196  0.0126  0.0754  0.0836
   57loPI   C3A  905   3.487   9.266   7.800  0.0969 -0.0239 -0.2879
   57loPI   C4A  906   3.524   9.517   7.448 -0.3450  0.0819 -0.2591
   57loPI   C5A  907   3.422   9.926   7.211 -0.1421 -0.0042 -0.0019
   57loPI   C6A  908   3.282  10.356   7.007 -0.3069  0.0157 -0.1105
   57loPI   C1B  909   3.815   8.698   8.118 -0.2116 -0.1405  0.3114
   57loPI   C2B  910   3.921   8.734   7.652 -0.1167  0.1642  0.3262
   57loPI   C3B  911   3.639   8.950   7.433 -0.2202  0.2363  0.2918
   57loPI   C4B  912   3.582   9.194   7.007  0.2545  0.0245 -0.0712
   58loPI    C1  913   3.835   5.934   9.818 -0.0161 -0.1787  0.0688
   58loPI    C2  914   3.933   5.802  10.182 -0.2938 -0.0647  0.1873
   58loPI    C3  915   3.569   5.728  10.033 -0.1865 -0.0988 -0.0624
   58loPI   PO4  916   3.981   5.867   9.653 -0.3323 -0.2018 -0.1588
   58loPI   GL1  917   4.168   5.567   9.290 -0.1231 -0.2847 -0.1564
   58loPI   GL2  918   4.062   5.707   9.018  0.1111  0.2902  0.1829
   58loPI   C1A  919   4.432   5.378   8.998  0.1442 -0.0101  0.1173
   58loPI   C2A  920   4.468   5.427   8.561  0.4009 -0.2253 -0.2750
   58loPI   C3A  921   4.756   5.408   8.219 -0.1802  0.1370 -0.0016
   58loPI   C4A  922   4.861   5.559   7.838 -0.1843 -0.1053 -0.4541
   58loPI   C5A  923   4.984   5.634   7.399 -0.1641  0.2435  0.1793
   58loPI   C6A  924   5.102   5.616   6.933  0.2213 -0.1501  0.1070
   58loPI   C1B  925   4.456   5.873   8.907 -0.0876  0.1855 -0.0368
   58loPI   C2B  926   4.736   5.986   8.668 -0.4514 -0.0217 -0.2226
   58loPI   C3B  927   5.125   5.792   8.344  0.0183 -0.1363  0.0607
   58loPI   C4B  928   5.315   5.564   8.054  0.0651 -0.1522 -0.0831
   59loPI    C1  929   6.634  18.004   9.544 -0.0483 -0.0586 -0.1255
   59loPI    C2  930   6.486  18.374   9.579 -0.0259 -0.0666  0.0638
   59loPI    C3  931   6.543  18.150   9.905 -0.0138 -0.2277 -0.0477
   59loPI   PO4  932   6.795  17.988   9.321  0.3847 -0.0300 -0.1556
   59loPI   GL1  933   6.926  18.016   8.897  0.0044  0.3432 -0.1355
   59loPI   GL2  934   7.193  17.870   9.101 -0.2881 -0.1655 -0.0438
   59loPI   C1A  935   7.060  17.980   8.488  0.4643  0.2855 -0.1595
   59loPI   C2A  936   7.053  17.769   8.017 -0.1815 -0.0816 -0.1224
   59loPI   C3A  937   7.103  17.534   7.594 -0.1216 -0.1442 -0.4108
   59loPI   C4A  938   6.929  17.153   7.399 -0.1805 -0.0412 -0.2329
   59loPI   C5A  939   6.752  17.146   7.042 -0.0585 -0.0925 -0.1597
   59loPI   C6A  940   6.741  16.978   6.711 -0.1428 -0.0729 -0.1082
   59loPI   C1B  941   7.122  17.483   8.774 -0.2453 -0.1705  0.1017
   59loPI   C2B  942   7.210  17.470   8.365  0.1789  0.1696 -0.3159
   59loPI   C3B  943   7.402  17.421   8.000 -0.2798 -0.1162  0.2221
   59loPI   C4B  944   7.487  17.199   7.593  0.0862  0.0293 -0.1332
   60loPI    C1  945   7.516  13.249  10.122 -0.0083 -0.2176  0.1176
   60loPI    C2  946   7.318  13.595  10.163 -0.0531 -0.2226 -0.0473
   60loPI    C3  947   7.170  13.260  10.323 -0.1039 -0.1996 -0.0455
   60loPI   PO4  948   7.693  13.322   9.927  0.0052  0.4255  0.0304
   60loPI   GL1  949   7.675  13.449   9.528 -0.0231  0.3986 -0.0077
   60loPI   GL2  950   7.426  13.364   9.388 -0.0459 -0.1322 -0.0441
   60loPI   C1A  951   7.697  13.931   9.477  0.0281  0.0612  0.2031
   60loPI   C2A  952   7.639  14.375   9.290 -0.0336  0.2348 -0.1039
   60loPI   C3A  953   7.707  14.316   8.866  0.2082  0.1288  0.0514
   60loPI   C4A  954   7.865  14.141   8.524 -0.3564  0.1105  0.2353
   60loPI   C5A  955   7.716  14.096   8.176  0.2789 -0.0952 -0.3369
   60loPI   C6A  956   7.510  14.021   7.837  0.1995 -0.1244 -0.0211
   60loPI   C1B  957   7.426  13.382   8.946  0.1547  0.4664  0.1735
   60loPI   C2B  958   7.602  13.292   8.557  0.0072  0.0889 -0.1337
   60loPI   C3B  959   7.603  12.977   8.167 -0.1151  0.0536  0.0824
   60loPI   C4B  960   7.593  12.824   7.795  0.0276  0.0489  0.0705
   61loPI    C1  961  11.436   8.417   9.780 -0.0185 -0.1339 -0.1808
   61loPI    C2  962  11.708   8.149   9.898  0.0742  0.0161 -0.0496
   61loPI    C3  963  11.397   8.234  10.134  0.0332  0.0085 -0.1007
   61loPI   PO4  964  11.450   8.340   9.462 -0.4983  0.1433  0.0797
   61loPI   GL1  965  11.236   8.316   9.044  0.1707  0.0030 -0.1290
   61loPI   GL2  966  11.595   8.280   8.939  0.1586  0.3475 -0.2947
   61loPI   C1A  967  11.179   8.657   8.755  0.0308 -0.0292 -0.4024
   61loPI   C2A  968  11.264   8.830   8.531 -0.1622  0.1827  0.1743
   61loPI   C3A  969  11.206   9.012   8.044 -0.0797  0.0723  0.0279
   61loPI   C4A  970  11.145   9.228   7.620  0.0581 -0.2640  0.1370
   61loPI   C5A  971  10.993   9.116   7.319 -0.1963  0.2697 -0.0363
   61loPI   C6A  972  11.116   9.132   6.921 -0.0024  0.0348  0.1601
   61loPI   C1B  973  11.418   8.250   8.527  0.2035  0.1042  0.0263
   61loPI   C2B  974  11.384   8.432   8.087  0.0292 -0.4041 -0.2637
   61loPI   C3B  975  11.263   8.630   7.691  0.0625 -0.0610 -0.2170
   61loPI   C4B  976  11.471   8.802   7.275 -0.1008  0.3732 -0.0898
   62loPI    C1  977   0.363   7.301   9.529 -0.0575 -0.0361  0.0560
   62loPI    C2  978   0.688   7.232   9.306 -0.0225  0.1404  0.0512
   62loPI    C3  979   0.727   7.318   9.695 -0.0782 -0.0769  0.1057
   62loPI   PO4  980   0.175   7.018   9.535  0.0069  0.3851 -0.3635
   62loPI   GL1  981   0.176   6.765   9.319 -0.3368 -0.0637  0.1414
   62loPI   GL2  982   0.539   6.739   9.276 -0.1073  0.1021  0.1613
   62loPI   C1A  983   0.219   6.683   8.949  0.2998 -0.0774  0.0110
   62loPI   C2A  984   0.031   6.651   8.548 -0.1201 -0.0731  0.3354
   62loPI   C3A  985   0.010   6.733   8.071 -0.0420 -0.3449  0.0048
   62loPI   C4A  986   0.168   6.727   7.613  0.2131 -0.0920  0.0780
   62loPI   C5A  987   0.138   6.832   7.151  0.2358  0.1143  0.2655
   62loPI   C6A  988   0.281   6.986   6.729 -0.1928 -0.1381  0.2686
   62loPI   C1B  989   0.636   7.002   8.889 -0.0322 -0.1854  0.3444
   62loPI   C2B  990   0.501   6.977   8.468 -0.1672 -0.2967  0.0539
   62loPI   C3B  991   0.436   7.086   8.061  0.1494 -0.1642 -0.1957
   62loPI   C4B  992   0.565   7.009   7.669 -0.2130  0.1140  0.0737
   63loPI    C1  993   3.100  19.580   9.101  0.0146 -0.0831  0.0646
   63loPI    C2  994   3.222  19.319   8.823  0.0273 -0.0860  0.0728
   63loPI    C3  995   2.847  19.304   8.960 -0.0747  0.1169 -0.1754
   63loPI   PO4  996   3.219  19.857   8.970  0.0966 -0.1660  0.0567
   63loPI   GL1  997   3.450  20.133   8.691 -0.0420 -0.0725 -0.1113
   63loPI   GL2  998   3.204  20.263   8.566  0.0889  0.4565  0.3504
   63loPI   C1A  999   3.807  19.974   8.354 -0.1629 -0.2628  0.0268
   63loPI   C2A 1000   3.853  19.824   7.963 -0.1927 -0.3455  0.2389
   63loPI   C3A 1001   3.977  19.818   7.519  0.3819 -0.0016  0.1417
   63loPI   C4A 1002   3.884  19.794   7.167 -0.0532 -0.0180 -0.0272
   63loPI   C5A 1003   4.188  19.709   6.819  0.0633  0.1233  0.2202
   63loPI   C6A 1004   4.564  19.739   6.711 -0.1278 -0.1262 -0.2482
   63loPI   C1B 1005   3.153  20.125   8.158 -0.0163  0.2590 -0.2653
   63loPI   C2B 1006   3.029  20.131   7.742  0.0524 -0.0473 -0.0629
   63loPI   C3B 1007   3.197  20.293   7.379 -0.2665 -0.1742 -0.2586
   63loPI   C4B 1008   3.060  20.489   7.052  0.0169 -0.2411 -0.3200
   64loPI    C1 1009   3.339   6.193   9.928 -0.1293  0.0789 -0.0646
   64loPI    C2 1010   2.978   6.260  10.087 -0.2084 -0.0257 -0.1980
   64loPI    C3 1011   3.084   5.889   9.982 -0.1053  0.0221 -0.2645
   64loPI   PO4 1012   3.301   6.284   9.661  0.0369 -0.0984 -0.0228
   64loPI   GL1 1013   3.348   6.341   9.222 -0.0492  0.0685 -0.1591
   64loPI   GL2 1014   3.141   6.120   9.007  0.1484 -0.1004  0.1390
   64loPI   C1A 1015   3.395   6.590   8.925  0.1093  0.2732 -0.0727
   64loPI   C2A 1016   3.448   6.586   8.464 -0.5558  0.0148  0.2131
   64loPI   C3A 1017   3.761   6.695   8.060 -0.1966 -0.0089 -0.0016
   64loPI   C4A 1018   4.001   6.511   7.767  0.2568  0.0558  0.0704
   64loPI   C5A 1019   4.365   6.375   7.497  0.0363  0.0394  0.1858
   64loPI   C6A 1020   4.562   6.431   7.118  0.0116  0.1006 -0.1108
   64loPI   C1B 1021   3.401   6.090   8.622 -0.4301 -0.3538 -0.1352
   64loPI   C2B 1022   3.405   6.171   8.186 -0.2529 -0.0118 -0.4356
   64loPI   C3B 1023   3.326   6.531   7.882  0.0715  0.0295  0.0850
   64loPI   C4B 1024   3.041   6.873   7.660  0.0297  0.0831 -0.2119
   65loPI    C1 1025   4.065   6.930   9.602  0.0883  0.0599  0.0512
   65loPI    C2 1026   4.084   7.241   9.351  0.3574  0.0101  0.0068
   65loPI    C3 1027   4.269   7.258   9.705  0.2006 -0.0216  0.0908
   65loPI   PO4 1028   4.220   6.754   9.553  0.1934  0.0464 -0.1226
   65loPI   GL1 1029   4.473   6.812   9.139 -0.1645  0.1793  0.0627
   65loPI   GL2 1030   4.535   6.519   9.188  0.2343  0.1803 -0.1740
   65loPI   C1A 1031   4.395   6.808   8.683 -0.2453 -0.1179  0.0472
   65loPI   C2A 1032   4.265   6.799   8.191 -0.0853 -0.1983  0.1148
   65loPI   C3A 1033   4.366   6.854   7.688  0.1397  0.0120 -0.0154
   65loPI   C4A 1034   4.635   6.868   7.272  0.0362  0.1523 -0.1246
   65loPI   C5A 1035   5.004   7.027   7.038 -0.1594 -0.3198  0.4540
   65loPI   C6A 1036   5.407   7.132   7.007  0.3226  0.1240  0.0603
   65loPI   C1B 1037   4.351   6.314   8.824  0.0856 -0.3566  0.0273
   65loPI   C2B 1038   4.410   6.242   8.408  0.3244  0.2820 -0.0344
   65loPI   C3B 1039   4.435   6.331   8.023  0.1630 -0.0338 -0.0073
   65loPI   C4B 1040   4.607   6.019   7.710  0.1469 -0.1591  0.2475
   66loPI    C1 1041   4.925   4.482   9.812  0.0313  0.1824 -0.1106
   66loPI    C2 1042   4.664   4.301  10.055  0.2498  0.0930  0.0611
   66loPI    C3 1043   4.712   4.698  10.073 -0.1613  0.1636 -0.2504
   66loPI   PO4 1044   4.861   4.326   9.594  0.2278  0.0042 -0.1643
   66loPI   GL1 1045   4.695   4.252   9.237  0.6041  0.0023 -0.0574
   66loPI   GL2 1046   4.481   4.118   9.100 -0.4159 -0.3143  0.0384
   66loPI   C1A 1047   4.807   4.466   8.851 -0.3873  0.0822 -0.4100
   66loPI   C2A 1048   4.959   4.585   8.493  0.0023 -0.2188 -0.1320
   66loPI   C3A 1049   5.095   4.563   8.102 -0.1861 -0.1929 -0.4464
   66loPI   C4A 1050   5.137   4.548   7.686  0.1237  0.2100 -0.3681
   66loPI   C5A 1051   5.173   4.659   7.263  0.1782  0.3407 -0.2117
   66loPI   C6A 1052   5.228   5.036   7.049  0.2952  0.3705  0.1583
   66loPI   C1B 1053   4.324   4.377   8.748  0.3007  0.0013 -0.0721
   66loPI   C2B 1054   4.259   4.447   8.267  0.0931 -0.0840  0.1554
   66loPI   C3B 1055   4.121   4.533   7.804 -0.3019  0.1572  0.0844
   66loPI   C4B 1056   4.294   4.661   7.459  0.0181  0.0060 -0.3026
   67loPI    C1 1057  14.659  10.078   9.984 -0.2169 -0.2296  0.1876
   67loPI    C2 1058  14.748   9.842  10.294  0.0060 -0.0967  0.2275
   67loPI    C3 1059  14.940  10.189  10.246 -0.0104 -0.1265 -0.0729
   67loPI   PO4 1060  14.725   9.977   9.804  0.2915 -0.2012 -0.0849
   67loPI   GL1 1061  14.680  10.033   9.430  0.0174  0.0154  0.0872
   67loPI   GL2 1062  14.431  10.256   9.441 -0.0340  0.0017  0.0871
   67loPI   C1A 1063  14.543   9.978   8.986  0.1242 -0.2135  0.2136
   67loPI   C2A 1064  14.566   9.910   8.644 -0.1964  0.0513 -0.2953
   67loPI   C3A 1065  14.505   9.729   8.313  0.1373  0.0900  0.1434
   67loPI   C4A 1066  14.335   9.515   7.902 -0.0706 -0.4037  0.1448
   67loPI   C5A 1067  14.470   9.459   7.514 -0.1307 -0.0878 -0.0234
   67loPI   C6A 1068  14.397   9.156   7.223 -0.0023 -0.3329 -0.4688
   67loPI   C1B 1069  14.667  10.468   9.154 -0.2610  0.0452 -0.2224
   67loPI   C2B 1070  14.675  10.635   8.716  0.1137 -0.0312 -0.2170
   67loPI   C3B 1071  14.653  10.790   8.243  0.1164  0.0938 -0.1064
   67loPI   C4B 1072  14.741  10.758   7.848 -0.0313  0.0398 -0.2248
   68loPI    C1 1073   7.722  11.049   9.638  0.0921  0.1785 -0.0690
   68loPI    C2 1074   7.783  10.709   9.839 -0.0713  0.1101 -0.1329
   68loPI    C3 1075   7.561  11.000  10.001  0.1276  0.2167 -0.0479
   68loPI   PO4 1076   7.906  11.032   9.409 -0.0964  0.0169  0.1560
   68loPI   GL1 1077   8.010  11.248   9.001 -0.1502 -0.1338 -0.2342
   68loPI   GL2 1078   7.993  10.801   8.919 -0.1015  0.0637  0.2941
   68loPI   C1A 1079   8.362  11.147   8.668  0.0302 -0.3010 -0.1527
   68loPI   C2A 1080   8.413  10.813   8.472  0.2538 -0.5976 -0.3608
   68loPI   C3A 1081   8.281  10.586   8.300  0.0121  0.0230 -0.0796
   68loPI   C4A 1082   8.019  10.762   8.075  0.2784  0.0298 -0.1052
   68loPI   C5A 1083   7.864  11.011   7.767 -0.1599  0.1194 -0.0042
   68loPI   C6A 1084   7.567  11.227   7.643  0.1395  0.1018 -0.1219
   68loPI   C1B 1085   7.872  10.946   8.575  0.0867 -0.0917  0.0442
   68loPI   C2B 1086   7.521  10.910   8.237 -0.2564 -0.2349  0.0215
   68loPI   C3B 1087   7.302  10.825   7.804  0.3511 -0.5872 -0.3900
   68loPI   C4B 1088   6.908  10.683   7.623 -0.0243 -0.3020 -0.3945
   69loPI    C1 1089  16.934   8.010   9.745 -0.0214  0.2440 -0.0272
   69loPI    C2 1090  16.628   7.953   9.996  0.1178  0.1851  0.1307
   69loPI    C3 1091  16.918   7.678   9.969  0.1084  0.1955 -0.0887
   69loPI   PO4 1092  17.000   8.352   9.708  0.4552 -0.1562 -0.4263
   69loPI   GL1 1093  17.257   8.460   9.383 -0.0310 -0.1384 -0.0609
   69loPI   GL2 1094  17.187   8.108   9.359 -0.2025 -0.1366  0.0511
   69loPI   C1A 1095  17.062   8.371   8.966 -0.0964  0.2113  0.0196
   69loPI   C2A 1096  16.932   8.229   8.537  0.0575 -0.0716  0.0724
   69loPI   C3A 1097  16.679   8.105   8.236 -0.1040  0.0299 -0.0989
   69loPI   C4A 1098  16.704   8.279   7.891 -0.0494  0.0275 -0.0922
   69loPI   C5A 1099  16.749   8.212   7.534  0.1705 -0.0595  0.4443
   69loPI   C6A 1100  16.720   8.120   7.072  0.2457  0.2077 -0.0828
   69loPI   C1B 1101  17.230   7.910   8.956 -0.1554  0.0419 -0.0669
   69loPI   C2B 1102  17.316   7.909   8.539  0.2049 -0.2372 -0.3343
   69loPI   C3B 1103  17.400   7.658   8.107  0.1624  0.2550 -0.0741
   69loPI   C4B 1104  17.462   7.708   7.661  0.1741 -0.3383 -0.0226
   70loPI    C1 1105  12.887  11.416   9.912 -0.1089  0.0334  0.3610
   70loPI    C2 1106  12.710  11.126   9.701 -0.0821  0.0920  0.2571
   70loPI    C3 1107  12.747  11.091  10.098 -0.1266 -0.0221  0.2514
   70loPI   PO4 1108  12.833  11.656   9.719  0.2512  0.0636 -0.0098
   70loPI   GL1 1109  12.699  11.789   9.348  0.2168 -0.1849  0.1408
   70loPI   GL2 1110  12.487  11.646   9.349  0.0877  0.1381 -0.2715
   70loPI   C1A 1111  12.893  11.329   9.233  0.0800  0.0036  0.2100
   70loPI   C2A 1112  12.845  11.098   8.836  0.2659 -0.3716 -0.2323
   70loPI   C3A 1113  13.040  11.235   8.439  0.2297  0.2138 -0.0785
   70loPI   C4A 1114  13.124  11.178   8.017  0.1680  0.2254  0.5150
   70loPI   C5A 1115  13.173  11.211   7.605 -0.1394  0.0164  0.0138
   70loPI   C6A 1116  13.372  10.966   7.291  0.0603  0.0701 -0.4224
   70loPI   C1B 1117  12.398  11.726   8.980  0.1188 -0.0246  0.0901
   70loPI   C2B 1118  12.390  11.626   8.491  0.1946 -0.0092 -0.0345
   70loPI   C3B 1119  12.205  11.714   8.075 -0.0751  0.2125  0.3690
   70loPI   C4B 1120  11.846  11.849   7.737 -0.0108 -0.1198 -0.0273
   71loPI    C1 1121  12.420  18.164   9.761 -0.1367  0.4310 -0.1847
   71loPI    C2 1122  12.510  18.107  10.147  0.1180  0.1942 -0.2762
   71loPI    C3 1123  12.697  18.392   9.938 -0.0354  0.3367 -0.2204
   71loPI   PO4 1124  12.271  17.940   9.747  0.1704 -0.1448  0.0619
   71loPI   GL1 1125  12.189  17.829   9.266  0.1816 -0.4590 -0.0747
   71loPI   GL2 1126  12.395  18.167   9.253  0.1774 -0.1314 -0.0633
   71loPI   C1A 1127  12.060  17.684   8.855 -0.2596 -0.1487 -0.0554
   71loPI   C2A 1128  12.075  17.740   8.519  0.0952  0.1907  0.0089
   71loPI   C3A 1129  12.169  17.750   8.047  0.0789  0.1555  0.0962
   71loPI   C4A 1130  11.882  17.795   7.671 -0.0723 -0.1801 -0.0271
   71loPI   C5A 1131  11.637  18.102   7.597  0.1204  0.0341 -0.0788
   71loPI   C6A 1132  11.290  18.401   7.526 -0.1999  0.3189 -0.0960
   71loPI   C1B 1133  12.509  17.926   8.776  0.2401 -0.1823 -0.2943
   71loPI   C2B 1134  12.664  17.817   8.322 -0.2007  0.2199  0.2281
   71loPI   C3B 1135  12.617  17.810   7.847 -0.0917 -0.1008 -0.2367
   71loPI   C4B 1136  12.626  18.074   7.512  0.0484 -0.2516 -0.0651
   72loPI    C1 1137   9.362   4.863   9.503 -0.0211 -0.1013  0.0111
   72loPI    C2 1138   9.536   4.951   9.852 -0.0795  0.0393  0.0054
   72loPI    C3 1139   9.256   4.666   9.835  0.0484 -0.0897  0.0403
   72loPI   PO4 1140   9.531   4.891   9.317  0.0417 -0.2115 -0.0101
   72loPI   GL1 1141   9.788   4.986   8.923 -0.2026 -0.0065 -0.0075
   72loPI   GL2 1142  10.072   5.078   8.871 -0.0329  0.4275  0.1587
   72loPI   C1A 1143   9.798   5.323   8.519 -0.1382 -0.1176 -0.2037
   72loPI   C2A 1144   9.803   5.449   8.129  0.0385  0.1629  0.0000
   72loPI   C3A 1145   9.929   5.740   7.883  0.0539  0.0306  0.1953
   72loPI   C4A 1146   9.950   5.713   7.556  0.1995  0.1844  0.1765
   72loPI   C5A 1147   9.986   5.570   7.065 -0.0338 -0.1644 -0.1010
   72loPI   C6A 1148  10.186   5.406   6.699 -0.1305  0.1474 -0.1072
   72loPI   C1B 1149  10.060   4.802   8.505  0.2377  0.2218 -0.1463
   72loPI   C2B 1150  10.135   4.574   8.199  0.2072 -0.1798  0.3215
   72loPI   C3B 1151  10.039   4.270   7.885 -0.2579 -0.1781 -0.2804
   72loPI   C4B 1152  10.117   4.310   7.502  0.0830  0.1083 -0.1053
   73loPI    C1 1153   6.672   5.605   9.301 -0.1993 -0.0724 -0.0379
   73loPI    C2 1154   6.664   5.207   9.262 -0.1936 -0.0848  0.0828
   73loPI    C3 1155   6.586   5.375   9.617  0.1215  0.0071  0.1119
   73loPI   PO4 1156   6.561   5.702   9.009 -0.2211  0.0023  0.0738
   73loPI   GL1 1157   6.489   5.722   8.584 -0.2748  0.1292 -0.0212
   73loPI   GL2 1158   6.430   5.447   8.602 -0.0554  0.1752 -0.0729
   73loPI   C1A 1159   6.552   5.813   8.196  0.2545  0.0228  0.1638
   73loPI   C2A 1160   6.597   5.803   7.757  0.0058  0.0606  0.1910
   73loPI   C3A 1161   6.728   5.751   7.297 -0.0104 -0.1869 -0.2636
   73loPI   C4A 1162   7.024   5.911   7.041  0.0607  0.0169  0.0173
   73loPI   C5A 1163   7.292   6.145   7.157  0.1474 -0.4683  0.1302
   73loPI   C6A 1164   7.537   6.429   7.131 -0.0294  0.0284  0.1496
   73loPI   C1B 1165   6.522   5.260   8.197 -0.2419  0.1125 -0.2401
   73loPI   C2B 1166   6.503   4.930   8.036 -0.1115  0.0358 -0.0178
   73loPI   C3B 1167   6.435   4.767   7.598 -0.0106 -0.3770  0.0712
   73loPI   C4B 1168   6.638   4.720   7.188  0.0778  0.2111  0.1187
   74loPI    C1 1169   9.950  12.652   9.789  0.1114  0.0261  0.1167
   74loPI    C2 1170  10.317  12.738   9.921  0.0582  0.1817  0.1656
   74loPI    C3 1171   9.999  12.813  10.152 -0.0157  0.1987  0.0590
   74loPI   PO4 1172   9.962  12.455   9.654 -0.0633 -0.0088 -0.0932
   74loPI   GL1 1173  10.096  12.239   9.397 -0.0471  0.0994  0.0922
   74loPI   GL2 1174  10.451  12.425   9.532 -0.0702  0.0669  0.3607
   74loPI   C1A 1175  10.062  12.157   8.941  0.0674 -0.2056  0.0200
   74loPI   C2A 1176   9.993  12.171   8.664  0.1782 -0.0231  0.3300
   74loPI   C3A 1177  10.021  12.255   8.202 -0.2629 -0.1316 -0.0183
   74loPI   C4A 1178   9.900  12.574   7.886 -0.0757  0.0471  0.3946
   74loPI   C5A 1179   9.910  12.984   7.705 -0.1243  0.2325  0.0246
   74loPI   C6A 1180   9.990  13.336   7.485  0.2496 -0.1275  0.2859
   74loPI   C1B 1181  10.706  12.272   9.158  0.2899  0.0513 -0.1113
   74loPI   C2B 1182  10.672  12.306   8.657 -0.2879  0.1116  0.0721
   74loPI   C3B 1183  10.695  12.439   8.236 -0.2544  0.0824 -0.0869
   74loPI   C4B 1184  10.870  12.470   7.834 -0.0262 -0.0467  0.0815
   75loPI    C1 1185   7.072   0.530   9.462 -0.2771 -0.2772 -0.0760
   75loPI    C2 1186   7.406   0.314   9.509  0.0663  0.2193 -0.1491
   75loPI    C3 1187   7.139   0.337   9.806  0.2399  0.0572  0.0222
   75loPI   PO4 1188   6.821   0.362   9.170 -0.2072  0.0310  0.1267
   75loPI   GL1 1189   6.936   0.198   8.767 -0.0041 -0.2234  0.0046
   75loPI   GL2 1190   6.835   0.459   8.686 -0.0124 -0.2911 -0.3420
   75loPI   C1A 1191   7.111  -0.056   8.445  0.1745 -0.1669 -0.0609
   75loPI   C2A 1192   7.179  -0.100   8.055 -0.0735 -0.2506 -0.1940
   75loPI   C3A 1193   7.375  -0.209   7.626  0.2113 -0.1859  0.2037
   75loPI   C4A 1194   7.707  -0.243   7.373 -0.2364 -0.1220  0.2550
   75loPI   C5A 1195   8.087  -0.168   7.210  0.0941  0.0880  0.0325
   75loPI   C6A 1196   8.505   0.051   6.927 -0.3349  0.0704 -0.0087
   75loPI   C1B 1197   7.101   0.401   8.275 -0.1054 -0.0146 -0.3185
   75loPI   C2B 1198   6.819   0.248   7.934 -0.0765  0.0338 -0.0801
   75loPI   C3B 1199   6.663   0.226   7.553  0.4177  0.0547 -0.4199
   75loPI   C4B 1200   6.465   0.254   7.116  0.0536  0.1513  0.0357
   76loPI    C1 1201   9.646  18.761   9.533 -0.0856  0.0451 -0.0438
   76loPI    C2 1202   9.308  18.549   9.568 -0.0757  0.0353 -0.0071
   76loPI    C3 1203   9.318  18.931   9.685  0.0057 -0.0478  0.2636
   76loPI   PO4 1204   9.824  18.774   9.287 -0.1199 -0.1880 -0.2920
   76loPI   GL1 1205   9.681  18.663   8.925 -0.0705 -0.0002 -0.1459
   76loPI   GL2 1206   9.301  18.821   9.152  0.2956  0.1579  0.2127
   76loPI   C1A 1207   9.668  18.451   8.477 -0.0361  0.1774  0.0437
   76loPI   C2A 1208   9.759  18.212   8.103 -0.2006  0.2265  0.0429
   76loPI   C3A 1209   9.902  18.348   7.724  0.1036  0.0800  0.1401
   76loPI   C4A 1210  10.084  18.213   7.301 -0.1170 -0.0606 -0.0565
   76loPI   C5A 1211  10.288  18.041   7.003  0.4561  0.0488 -0.0124
   76loPI   C6A 1212  10.325  17.911   6.651 -0.4921 -0.0388 -0.0242
   76loPI   C1B 1213   9.248  18.686   8.776 -0.0690 -0.1356  0.0391
   76loPI   C2B 1214   9.267  18.646   8.290  0.2247 -0.1361 -0.1584
   76loPI   C3B 1215   9.397  18.428   7.873 -0.1935 -0.1686 -0.0237
   76loPI   C4B 1216   9.143  18.576   7.436  0.1102  0.0871  0.0306
   77loPI    C1 1217   6.745  19.306   9.410  0.1284  0.1196  0.0151
   77loPI    C2 1218   6.752  19.687   9.533 -0.0580  0.1837 -0.1660
   77loPI    C3 1219   6.410  19.479   9.544  0.0758 -0.0291  0.0769
   77loPI   PO4 1220   6.858  19.146   9.156  0.1287 -0.0117 -0.2686
   77loPI   GL1 1221   6.993  19.143   8.746  0.2272  0.0680  0.0092
   77loPI   GL2 1222   6.658  19.297   8.673  0.1135  0.4626 -0.3339
   77loPI   C1A 1223   7.228  19.044   8.383 -0.1150 -0.0304  0.0519
   77loPI   C2A 1224   7.378  19.014   7.968  0.2135 -0.0031 -0.2288
   77loPI   C3A 1225   7.301  18.891   7.509  0.0250 -0.2420  0.2633
   77loPI   C4A 1226   7.579  18.957   7.163 -0.1758  0.2569  0.0109
   77loPI   C5A 1227   7.681  19.289   6.852  0.0691 -0.3188 -0.2158
   77loPI   C6A 1228   7.729  19.797   6.930 -0.1757 -0.0534 -0.1237
   77loPI   C1B 1229   6.729  19.294   8.221 -0.0866  0.2116 -0.2688
   77loPI   C2B 1230   6.788  19.335   7.805  0.1209 -0.1460 -0.2049
   77loPI   C3B 1231   6.934  19.379   7.326  0.0040  0.0736 -0.0635
   77loPI   C4B 1232   6.894  19.675   6.992  0.0812  0.0987 -0.0378
   78loPI    C1 1233   7.747  12.134   9.905  0.0501 -0.1366  0.1858
   78loPI    C2 1234   7.664  11.870   9.616  0.2979  0.0937 -0.1031
   78loPI    C3 1235   7.426  11.897   9.936  0.1303 -0.3029 -0.1874
   78loPI   PO4 1236   7.716  12.410   9.785 -0.0277  0.1387  0.0805
   78loPI   GL1 1237   7.635  12.602   9.313 -0.1666 -0.0090 -0.0571
   78loPI   GL2 1238   7.699  12.307   9.272  0.2792 -0.1579  0.1361
   78loPI   C1A 1239   7.542  12.794   8.960 -0.0930 -0.0658 -0.0665
   78loPI   C2A 1240   7.548  12.768   8.576 -0.2551  0.0293 -0.0265
   78loPI   C3A 1241   7.635  12.410   8.197  0.0424 -0.3879 -0.2048
   78loPI   C4A 1242   7.731  12.098   8.051 -0.0391  0.0835 -0.3326
   78loPI   C5A 1243   7.952  11.998   7.652  0.1789 -0.0281 -0.0870
   78loPI   C6A 1244   8.283  12.002   7.447  0.0494 -0.0146  0.0843
   78loPI   C1B 1245   7.685  12.276   8.802 -0.0761  0.3530 -0.2585
   78loPI   C2B 1246   7.962  12.049   8.519 -0.0222 -0.1026  0.1032
   78loPI   C3B 1247   8.229  11.948   8.201  0.4288  0.0760 -0.0128
   78loPI   C4B 1248   8.568  11.948   7.932  0.0084  0.0103  0.1155
   79loPI    C1 1249   2.416  12.222   9.984  0.1245 -0.1118 -0.2554
   79loPI    C2 1250   2.659  11.911  10.049 -0.1667 -0.2566  0.1841
   79loPI    C3 1251   2.664  12.224  10.298 -0.0390 -0.0072 -0.1253
   79loPI   PO4 1252   2.465  12.362   9.732 -0.1852  0.1433 -0.2612
   79loPI   GL1 1253   2.546  12.539   9.337 -0.3175 -0.2357 -0.1127
   79loPI   GL2 1254   2.307  12.374   9.129 -0.1394 -0.1583  0.0847
   79loPI   C1A 1255   2.872  12.503   8.954 -0.0885 -0.0126  0.1381
   79loPI   C2A 1256   2.748  12.265   8.486  0.0004 -0.1399  0.0702
   79loPI   C3A 1257   2.766  12.416   8.062  0.0786 -0.2135  0.1322
   79loPI   C4A 1258   2.831  12.456   7.602  0.2094  0.5448  0.0078
   79loPI   C5A 1259   2.735  12.321   7.263 -0.2098  0.1915 -0.1145
   79loPI   C6A 1260   2.287  12.150   7.052  0.0807  0.3888  0.1429
   79loPI   C1B 1261   2.589  12.091   9.079 -0.2551  0.3218  0.0795
   79loPI   C2B 1262   2.725  11.774   8.726  0.1190  0.0697 -0.2641
   79loPI   C3B 1263   2.631  11.828   8.370 -0.0297  0.1917 -0.0492
   79loPI   C4B 1264   2.415  12.006   8.069  0.0929  0.0759  0.0928
   80loPI    C1 1265  15.450  10.290   9.809 -0.1769  0.4185 -0.0197
   80loPI    C2 1266  15.773  10.325  10.041 -0.0840 -0.1900 -0.0420
   80loPI    C3 1267  15.412  10.279  10.207 -0.0907 -0.0552 -0.0186
   80loPI   PO4 1268  15.515  10.137   9.610 -0.5405  0.0545 -0.2743
   80loPI   GL1 1269  15.788   9.945   9.323  0.3880 -0.1659 -0.0042
   80loPI   GL2 1270  15.939  10.168   9.198 -0.0691  0.1027  0.1262
   80loPI   C1A 1271  15.483   9.861   9.015 -0.1862  0.0064 -0.2341
   80loPI   C2A 1272  15.422   9.959   8.598  0.2141 -0.0398 -0.0002
   80loPI   C3A 1273  15.296  10.074   8.190 -0.0691 -0.2333  0.3055
   80loPI   C4A 1274  15.199   9.878   7.899  0.1866 -0.0761  0.1901
   80loPI   C5A 1275  14.977   9.885   7.560 -0.0201 -0.3176 -0.0944
   80loPI   C6A 1276  14.655   9.924   7.813  0.3883  0.0281  0.1480
   80loPI   C1B 1277  15.858  10.323   8.759 -0.0404 -0.0299  0.1300
   80loPI   C2B 1278  15.617  10.374   8.391 -0.0414 -0.2106  0.0803
   80loPI   C3B 1279  15.670  10.346   7.973 -0.2877 -0.0208 -0.0124
   80loPI   C4B 1280  15.865  10.325   7.460 -0.1131 -0.1549 -0.0354
   81loPI    C1 1281   7.230  19.438   9.581  0.1346  0.1029 -0.1383
   81loPI    C2 1282   7.322  19.540   9.957  0.0159 -0.3488  0.0193
   81loPI    C3 1283   7.048  19.257   9.887  0.1105 -0.3424 -0.4072
   81loPI   PO4 1284   7.554  19.482   9.460  0.3681 -0.0278 -0.1560
   81loPI   GL1 1285   7.699  19.532   9.079  0.0640 -0.3093 -0.1080
   81loPI   GL2 1286   7.505  19.642   8.911  0.1025  0.0689 -0.0064
   81loPI   C1A 1287   7.990  19.680   8.774  0.0795 -0.3598  0.0773
   81loPI   C2A 1288   7.991  20.061   8.460  0.2090  0.5242 -0.1890
   81loPI   C3A 1289   7.861  20.341   8.052  0.1200  0.0269 -0.2608
   81loPI   C4A 1290   7.772  20.181   7.653 -0.2573 -0.1382  0.0458
   81loPI   C5A 1291   7.589  19.903   7.426  0.2221  0.2145  0.0849
   81loPI   C6A 1292   7.156  20.049   7.122 -0.3147 -0.1331 -0.0666
   81loPI   C1B 1293   7.561  19.724   8.493 -0.1483  0.4672 -0.0684
   81loPI   C2B 1294   7.574  19.836   8.064 -0.3104 -0.0014 -0.2307
   81loPI   C3B 1295   7.309  20.044   7.826 -0.1836  0.0727  0.0011
   81loPI   C4B 1296   7.229  20.351   7.507 -0.0034 -0.0390  0.1098
   82loPI    C1 1297  11.258   4.777   9.814 -0.3146 -0.0966  0.2558
   82loPI    C2 1298  11.488   4.455   9.873 -0.3667 -0.1906 -0.0394
   82loPI    C3 1299  11.481   4.748  10.145  0.2111 -0.1183 -0.0898
   82loPI   PO4 1300  11.211   4.737   9.512  0.1088  0.2655  0.0718
   82loPI   GL1 1301  11.388   5.027   9.097 -0.1873 -0.0885  0.0054
   82loPI   GL2 1302  11.148   4.891   8.875 -0.0485  0.0836 -0.4394
   82loPI   C1A 1303  11.706   5.125   8.730  0.2130  0.1875 -0.0495
   82loPI   C2A 1304  11.967   5.033   8.356 -0.5504 -0.1366 -0.0040
   82loPI   C3A 1305  12.175   5.290   7.996  0.1842  0.0781  0.2848
   82loPI   C4A 1306  12.436   5.305   7.633  0.0301  0.0841 -0.1516
   82loPI   C5A 1307  12.626   5.252   7.248  0.2088 -0.0634 -0.2782
   82loPI   C6A 1308  12.685   5.294   6.793  0.0341  0.2784 -0.1181
   82loPI   C1B 1309  11.206   5.091   8.633 -0.0466 -0.1938  0.2066
   82loPI   C2B 1310  11.339   5.025   8.220 -0.3716 -0.1369 -0.0499
   82loPI   C3B 1311  11.707   5.010   7.908 -0.3433 -0.0817 -0.3044
   82loPI   C4B 1312  11.905   5.164   7.497 -0.1183  0.1230  0.3275
   83loPI    C1 1313  11.381  10.451   9.947 -0.0815  0.1695  0.1006
   83loPI    C2 1314  11.203  10.666  10.234 -0.0932 -0.0419  0.2543
   83loPI    C3 1315  11.236  10.269  10.273 -0.0071 -0.0608  0.0072
   83loPI   PO4 1316  11.402  10.682   9.746 -0.0616 -0.2451  0.1228
   83loPI   GL1 1317  11.497  10.757   9.282 -0.1449 -0.0694  0.0250
   83loPI   GL2 1318  11.389  10.913   9.020 -0.1835 -0.0849  0.0274
   83loPI   C1A 1319  11.400  10.367   9.024 -0.0291  0.3377 -0.2519
   83loPI   C2A 1320  11.562  10.229   8.680 -0.2296 -0.0576 -0.0675
   83loPI   C3A 1321  11.561  10.112   8.326  0.0006 -0.2458 -0.0414
   83loPI   C4A 1322  11.307  10.251   7.954  0.1144  0.0088  0.0537
   83loPI   C5A 1323  11.100  10.162   7.568 -0.3705 -0.1352  0.1488
   83loPI   C6A 1324  11.012  10.032   7.165 -0.0547 -0.1025  0.1527
   83loPI   C1B 1325  11.368  10.910   8.597 -0.1898  0.0365 -0.1212
   83loPI   C2B 1326  11.495  11.051   8.278  0.2572  0.1293  0.1328
   83loPI   C3B 1327  11.410  11.089   7.784 -0.0008 -0.3079 -0.1890
   83loPI   C4B 1328  11.293  11.188   7.509  0.1224  0.0372  0.1790
   84loPI    C1 1329  17.803   4.261   9.712 -0.2383  0.3589  0.1995
   84loPI    C2 1330  17.456   4.063   9.685  0.0564 -0.1781  0.2215
   84loPI    C3 1331  17.722   3.965   9.968  0.3001  0.1116  0.0988
   84loPI   PO4 1332  17.926   4.225   9.444  0.2219 -0.0368 -0.2108
   84loPI   GL1 1333  18.262   4.252   9.330 -0.3712 -0.2918 -0.0658
   84loPI   GL2 1334  18.518   4.477   9.209  0.1182 -0.0724 -0.2347
   84loPI   C1A 1335  18.367   4.188   8.887 -0.0437 -0.1719 -0.1533
   84loPI   C2A 1336  18.150   3.782   8.591 -0.4770  0.0329  0.0160
   84loPI   C3A 1337  17.931   3.863   8.110  0.0312  0.1452 -0.3907
   84loPI   C4A 1338  17.970   4.006   7.721 -0.0147 -0.1157 -0.2521
   84loPI   C5A 1339  18.060   4.003   7.302 -0.2153  0.0026 -0.0730
   84loPI   C6A 1340  17.976   3.857   6.891  0.1301  0.1034  0.1533
   84loPI   C1B 1341  18.455   4.727   8.906 -0.2055 -0.3067  0.1281
   84loPI   C2B 1342  18.438   4.716   8.508 -0.1351 -0.0476  0.0049
   84loPI   C3B 1343  18.110   4.789   8.317  0.0541 -0.0668 -0.1728
   84loPI   C4B 1344  17.983   4.471   8.038  0.0773  0.0252 -0.0901
   85loPI    C1 1345  10.713   3.171   9.240 -0.1767  0.0438  0.0522
   85loPI    C2 1346  10.472   2.944   9.464 -0.0513 -0.0375  0.1062
   85loPI    C3 1347  10.868   2.912   9.502 -0.0320  0.1497  0.0722
   85loPI   PO4 1348  10.634   3.174   9.020 -0.1384 -0.1154  0.0820
   85loPI   GL1 1349  10.703   3.130   8.617  0.0477 -0.2088  0.0070
   85loPI   GL2 1350  10.641   2.839   8.642 -0.4695 -0.1046 -0.0671
   85loPI   C1A 1351  10.782   3.337   8.264 -0.1400  0.0956 -0.2777
   85loPI   C2A 1352  10.781   3.302   7.898  0.1319  0.1822  0.2121
   85loPI   C3A 1353  10.779   3.429   7.470 -0.3279  0.0320 -0.0812
   85loPI   C4A 1354  11.011   3.304   6.986 -0.2795  0.0898 -0.3346
   85loPI   C5A 1355  11.410   3.245   6.850  0.1771  0.0139 -0.2276
   85loPI   C6A 1356  11.808   3.340   6.663 -0.3978 -0.1250  0.0764
   85loPI   C1B 1357  10.627   2.893   8.106  0.3297  0.2379 -0.1065
   85loPI   C2B 1358  10.907   2.754   7.849  0.1220  0.0995 -0.2399
   85loPI   C3B 1359  10.763   2.472   7.556  0.1565  0.1195  0.0907
   85loPI   C4B 1360  10.690   2.351   7.155  0.0829 -0.1080 -0.1915
   86loPI    C1 1361  18.995  17.315  10.051  0.0650 -0.1298  0.1217
   86loPI    C2 1362  19.077  17.703  10.107 -0.0796 -0.1051  0.1678
   86loPI    C3 1363  19.023  17.462  10.422 -0.3341 -0.0874  0.1393
   86loPI   PO4 1364  18.923  17.452   9.767  0.1107  0.3204  0.0933
   86loPI   GL1 1365  18.872  17.349   9.353  0.0348 -0.1165  0.0549
   86loPI   GL2 1366  19.165  17.508   9.223  0.5235  0.2269 -0.0291
   86loPI   C1A 1367  18.874  17.331   8.887  0.0014 -0.0375  0.0154
   86loPI   C2A 1368  18.921  17.453   8.477 -0.1600  0.1411 -0.1127
   86loPI   C3A 1369  19.213  17.195   8.248  0.1904 -0.0348 -0.3869
   86loPI   C4A 1370  19.213  17.124   7.802 -0.3221 -0.0896 -0.0616
   86loPI   C5A 1371  19.351  17.517   7.503 -0.0612  0.0124  0.0662
   86loPI   C6A 1372  19.148  17.590   7.121  0.1239 -0.1171 -0.1415
   86loPI   C1B 1373  19.122  17.741   8.797 -0.0786  0.2314  0.1307
   86loPI   C2B 1374  19.071  18.013   8.341  0.2637 -0.0366  0.4154
   86loPI   C3B 1375  19.085  18.044   7.882  0.0019 -0.1900  0.0092
   86loPI   C4B 1376  18.875  17.963   7.483 -0.4072 -0.3021  0.0458
   87loPI    C1 1377  14.601   2.203   9.695 -0.0716  0.2245  0.0232
   87loPI    C2 1378  14.544   2.133  10.085  0.1722 -0.0048  0.0206
   87loPI    C3 1379  14.782   1.893   9.872  0.3624  0.3546 -0.1806
   87loPI   PO4 1380  14.358   2.137   9.616  0.1367 -0.0453 -0.2136
   87loPI   GL1 1381  14.222   2.125   9.179  0.0320  0.0089  0.1129
   87loPI   GL2 1382  14.594   2.169   9.167  0.2416 -0.1198  0.2307
   87loPI   C1A 1383  14.235   2.014   8.675 -0.3716  0.1406  0.4629
   87loPI   C2A 1384  14.200   2.040   8.212 -0.1795  0.2785  0.1520
   87loPI   C3A 1385  14.060   2.046   7.707 -0.1416  0.3682  0.0995
   87loPI   C4A 1386  14.053   2.055   7.261  0.1955  0.1718 -0.1542
   87loPI   C5A 1387  14.113   2.155   6.848  0.6303  0.1197 -0.0772
   87loPI   C6A 1388  13.964   2.273   6.512  0.0013 -0.2084  0.0029
   87loPI   C1B 1389  14.642   2.193   8.675 -0.1522  0.0913  0.0711
   87loPI   C2B 1390  14.596   2.306   8.151  0.3234  0.1384 -0.1310
   87loPI   C3B 1391  14.458   2.334   7.706  0.0960 -0.2388  0.1881
   87loPI   C4B 1392  14.513   2.365   7.243  0.1077  0.0448  0.1350
   88loPI    C1 1393   5.544  12.676   9.981 -0.0136 -0.1427  0.1785
   88loPI    C2 1394   5.553  13.014  10.195 -0.0703  0.0881 -0.1753
   88loPI    C3 1395   5.763  12.696  10.316 -0.1310  0.1993  0.2394
   88loPI   PO4 1396   5.499  12.729   9.772  0.0399 -0.1078  0.0069
   88loPI   GL1 1397   5.618  12.599   9.467 -0.1532  0.0124  0.1840
   88loPI   GL2 1398   5.529  12.310   9.287 -0.2257 -0.2785  0.2481
   88loPI   C1A 1399   5.878  12.734   9.061 -0.3764 -0.0508 -0.1135
   88loPI   C2A 1400   6.023  12.717   8.704  0.2680 -0.1114  0.1795
   88loPI   C3A 1401   5.931  12.821   8.338  0.0882 -0.1849  0.1863
   88loPI   C4A 1402   5.806  12.886   7.913  0.0678 -0.2227  0.0130
   88loPI   C5A 1403   5.746  12.897   7.512 -0.0832  0.1294 -0.1618
   88loPI   C6A 1404   5.624  12.521   7.292  0.0764  0.3435  0.1848
   88loPI   C1B 1405   5.302  12.096   8.947  0.1189 -0.4139 -0.0397
   88loPI   C2B 1406   5.364  11.930   8.539  0.1512  0.0267  0.1049
   88loPI   C3B 1407   5.388  11.916   8.087 -0.3782  0.1546  0.0934
   88loPI   C4B 1408   5.199  12.062   7.730  0.1614 -0.0548  0.1283
   89loPI    C1 1409  10.267   3.707   9.050  0.0085 -0.0998  0.0584
   89loPI    C2 1410  10.292   3.383   9.282 -0.1394  0.0404  0.2739
   89loPI    C3 1411  10.588   3.651   9.281  0.0841 -0.1995 -0.0697
   89loPI   PO4 1412  10.169   3.604   8.792  0.0153  0.1158 -0.0549
   89loPI   GL1 1413   9.926   3.630   8.484 -0.3174  0.2607 -0.1307
   89loPI   GL2 1414   9.795   3.268   8.547 -0.0142  0.3536  0.1839
   89loPI   C1A 1415   9.959   3.483   8.143 -0.1462 -0.0925  0.0158
   89loPI   C2A 1416   9.948   3.671   7.639 -0.0847 -0.0506 -0.3657
   89loPI   C3A 1417  10.242   3.416   7.322 -0.1956 -0.2783 -0.1011
   89loPI   C4A 1418  10.488   3.252   7.076  0.0582  0.0575 -0.3327
   89loPI   C5A 1419  10.660   2.866   6.985  0.3886  0.2030 -0.0457
   89loPI   C6A 1420  11.135   2.742   6.968  0.2528 -0.2338  0.0046
   89loPI   C1B 1421   9.804   2.936   8.366  0.1576  0.2174 -0.0955
   89loPI   C2B 1422   9.933   2.682   8.095  0.2492  0.2756 -0.0248
   89loPI   C3B 1423   9.936   2.363   7.850 -0.2196 -0.1105  0.2031
   89loPI   C4B 1424   9.757   2.067   7.651  0.0850  0.0902 -0.1186
   90loPI    C1 1425  12.946   0.207   9.777 -0.0341 -0.1580 -0.0384
   90loPI    C2 1426  13.211   0.434   9.973  0.0698 -0.1894 -0.1410
   90loPI    C3 1427  12.828   0.429  10.088  0.1710 -0.3814  0.2048
   90loPI   PO4 1428  12.984   0.260   9.537  0.3419  0.1958 -0.0608
   90loPI   GL1 1429  13.406   0.364   9.204 -0.4928  0.4717  0.0001
   90loPI   GL2 1430  13.427   0.114   9.109  0.3363 -0.1226 -0.0560
   90loPI   C1A 1431  13.480   0.522   8.780  0.4659  0.0344  0.0858
   90loPI   C2A 1432  13.534   0.554   8.308 -0.0086  0.2776 -0.3659
   90loPI   C3A 1433  13.631   0.676   7.901  0.0773 -0.2335 -0.2438
   90loPI   C4A 1434  13.489   0.700   7.514  0.0660  0.0541  0.0747
   90loPI   C5A 1435  13.416   1.016   7.128 -0.0541 -0.0752 -0.0556
   90loPI   C6A 1436  12.883   1.160   6.999 -0.1926 -0.3163 -0.2850
   90loPI   C1B 1437  13.376   0.067   8.651 -0.0687  0.0439  0.1913
   90loPI   C2B 1438  13.508  -0.067   8.260  0.1250 -0.1800 -0.0437
   90loPI   C3B 1439  13.595  -0.264   7.965  0.2943  0.1832 -0.0209
   90loPI   C4B 1440  13.521  -0.309   7.472 -0.1330 -0.0417 -0.1031
   91loPI    C1 1441   9.052  17.852  10.072  0.0785  0.1140 -0.0087
   91loPI    C2 1442   9.402  17.756  10.241 -0.0042 -0.0876  0.0499
   91loPI    C3 1443   9.058  17.649  10.416 -0.0938 -0.0366 -0.0927
   91loPI   PO4 1444   9.027  17.746   9.831  0.1120  0.2991  0.0337
   91loPI   GL1 1445   8.838  17.687   9.519  0.3491  0.0110 -0.1425
   91loPI   GL2 1446   8.659  17.941   9.333 -0.1529  0.1134  0.1246
   91loPI   C1A 1447   9.039  17.718   8.991 -0.1188  0.1160 -0.1798
   91loPI   C2A 1448   9.086  17.636   8.570  0.0583 -0.2850 -0.0733
   91loPI   C3A 1449   8.842  17.718   8.214 -0.3686 -0.1160 -0.1798
   91loPI   C4A 1450   8.938  17.577   7.848 -0.4469 -0.5861 -0.0741
   91loPI   C5A 1451   8.937  17.678   7.466 -0.2128  0.0463 -0.2140
   91loPI   C6A 1452   8.826  17.531   7.127  0.0762 -0.2211 -0.0256
   91loPI   C1B 1453   8.572  17.875   8.907  0.2518 -0.1309 -0.1807
   91loPI   C2B 1454   8.469  18.007   8.402  0.0369  0.1057  0.0343
   91loPI   C3B 1455   8.469  18.022   7.921 -0.2119  0.0088 -0.3832
   91loPI   C4B 1456   8.656  18.276   7.628  0.0195  0.0773 -0.1605
   92loPI    C1 1457  10.494  19.331   9.789  0.0359  0.0481  0.0272
   92loPI    C2 1458  10.669  18.973   9.752 -0.1171 -0.0313  0.0644
   92loPI    C3 1459  10.685  19.168  10.101 -0.0214  0.0047  0.0399
   92loPI   PO4 1460  10.498  19.453   9.579 -0.0353  0.2694  0.3205
   92loPI   GL1 1461  10.386  19.696   9.220  0.0127 -0.4014 -0.0559
   92loPI   GL2 1462  10.060  19.714   9.263  0.0430 -0.0398 -0.1964
   92loPI   C1A 1463  10.306  19.830   8.820 -0.1312 -0.3276  0.2288
   92loPI   C2A 1464  10.620  19.840   8.423  0.0406  0.0823 -0.2955
   92loPI   C3A 1465  10.665  19.702   8.121 -0.1177  0.0395 -0.0826
   92loPI   C4A 1466  10.538  19.844   7.744 -0.0305  0.1403 -0.0189
   92loPI   C5A 1467  10.749  19.757   7.430 -0.0942  0.3721 -0.0571
   92loPI   C6A 1468  11.110  19.511   7.357  0.0362 -0.0730 -0.1724
   92loPI   C1B 1469   9.801  19.903   8.888 -0.0825  0.3043  0.3323
   92loPI   C2B 1470   9.510  20.086   8.576  0.0875 -0.0529 -0.0320
   92loPI   C3B 1471   9.580  19.871   8.145 -0.0469 -0.2167 -0.0176
   92loPI   C4B 1472   9.356  19.668   7.795 -0.0010  0.3412 -0.1551
   93loPI    C1 1473   9.374  12.363   9.732  0.1091 -0.0316  0.0051
   93loPI    C2 1474   9.043  12.168   9.845  0.0179  0.0949 -0.0408
   93loPI    C3 1475   9.377  12.139  10.063 -0.0514  0.0444  0.0593
   93loPI   PO4 1476   9.390  12.270   9.544 -0.0565 -0.4703 -0.0719
   93loPI   GL1 1477   9.616  12.479   9.270  0.1306 -0.1939 -0.0559
   93loPI   GL2 1478   9.853  12.797   9.303  0.1161 -0.2847 -0.0731
   93loPI   C1A 1479   9.711  12.532   8.801  0.1177  0.1287 -0.2265
   93loPI   C2A 1480   9.727  12.634   8.393 -0.2920 -0.2408  0.1274
   93loPI   C3A 1481   9.504  12.923   8.056 -0.1663 -0.2462 -0.2707
   93loPI   C4A 1482   9.391  13.204   7.667  0.2107 -0.0659 -0.1279
   93loPI   C5A 1483   9.320  13.367   7.294  0.1436  0.1173 -0.1442
   93loPI   C6A 1484   8.944  13.460   7.097  0.1096 -0.1318 -0.3314
   93loPI   C1B 1485   9.895  13.061   9.011  0.0806  0.0688 -0.4201
   93loPI   C2B 1486   9.903  13.080   8.542 -0.0028  0.3052  0.0754
   93loPI   C3B 1487   9.941  13.202   8.201 -0.3075  0.0760  0.1007
   93loPI   C4B 1488  10.291  13.209   7.888 -0.1115  0.0061  0.1876
   94loPI    C1 1489   8.541   0.392  10.023 -0.1002  0.1623 -0.1202
   94loPI    C2 1490   8.589   0.788  10.055  0.2043  0.1139  0.0607
   94loPI    C3 1491   8.897   0.557   9.945 -0.0951 -0.0273 -0.5249
   94loPI   PO4 1492   8.287   0.299   9.902 -0.2511 -0.2015  0.1432
   94loPI   GL1 1493   8.245   0.065   9.383 -0.0766 -0.3800  0.1839
   94loPI   GL2 1494   8.241  -0.191   9.112 -0.0953 -0.3246  0.2840
   94loPI   C1A 1495   8.302   0.430   8.987 -0.0068 -0.2175  0.1034
   94loPI   C2A 1496   8.147   0.803   8.712 -0.1178 -0.2124  0.0876
   94loPI   C3A 1497   8.457   0.865   8.342 -0.3182 -0.1158  0.1727
   94loPI   C4A 1498   8.609   0.792   7.996  0.0078  0.2144  0.4522
   94loPI   C5A 1499   8.601   0.857   7.559 -0.2512 -0.0251 -0.2445
   94loPI   C6A 1500   8.533   0.564   7.174 -0.2337 -0.3202 -0.0914
   94loPI   C1B 1501   8.505  -0.051   8.735 -0.0055 -0.0462 -0.2084
   94loPI   C2B 1502   8.698  -0.146   8.311 -0.0807  0.0221 -0.1888
   94loPI   C3B 1503   8.856  -0.231   8.001 -0.3303  0.1628 -0.0072
   94loPI   C4B 1504   8.925  -0.064   7.510 -0.3720 -0.1638 -0.2080
   95loPI    C1 1505   8.473  18.885   9.691 -0.1972  0.0839 -0.0709
   95loPI    C2 1506   8.133  18.881   9.902  0.0662  0.2436  0.3690
   95loPI    C3 1507   8.481  18.959  10.084  0.3419  0.0888 -0.0756
   95loPI   PO4 1508   8.473  19.113   9.498  0.2306 -0.0139  0.4707
   95loPI   GL1 1509   8.685  19.146   9.096 -0.0856  0.2544  0.0989
   95loPI   GL2 1510   8.887  19.343   8.884 -0.0892 -0.0463 -0.3101
   95loPI   C1A 1511   8.511  19.008   8.698 -0.3576  0.0864 -0.2857
   95loPI   C2A 1512   8.425  18.965   8.243  0.2073  0.0551 -0.2315
   95loPI   C3A 1513   8.234  19.054   7.880  0.1301  0.1650  0.0672
   95loPI   C4A 1514   8.492  19.182   7.617  0.2442  0.1087 -0.0095
   95loPI   C5A 1515   8.670  19.298   7.208 -0.1211 -0.0498 -0.1120
   95loPI   C6A 1516   8.949  19.526   6.828 -0.2158 -0.0185 -0.1011
   95loPI   C1B 1517   9.064  19.172   8.604  0.0563  0.2142  0.4164
   95loPI   C2B 1518   8.886  18.992   8.250 -0.1489 -0.1482  0.2108
   95loPI   C3B 1519   8.873  18.793   7.801 -0.1712  0.1160 -0.2718
   95loPI   C4B 1520   9.004  19.036   7.568  0.1408  0.2271 -0.1039
   96loPI    C1 1521  10.393   7.242   9.422 -0.0356  0.0702  0.1184
   96loPI    C2 1522  10.587   6.892   9.431 -0.1214  0.0225  0.1250
   96loPI    C3 1523  10.575   7.122   9.758  0.2774  0.2210  0.0072
   96loPI   PO4 1524  10.507   7.419   9.293  0.2026 -0.2012  0.0476
   96loPI   GL1 1525  10.693   7.505   8.879  0.0937 -0.0288 -0.1251
   96loPI   GL2 1526  10.936   7.673   8.968 -0.1575  0.0693 -0.1994
   96loPI   C1A 1527  10.774   7.480   8.420 -0.1482  0.0800  0.1031
   96loPI   C2A 1528  10.804   7.403   7.922 -0.1877 -0.0048  0.0376
   96loPI   C3A 1529  10.864   7.507   7.408  0.1147  0.2252 -0.1384
   96loPI   C4A 1530  10.590   7.693   7.207 -0.5086  0.1066  0.0509
   96loPI   C5A 1531  10.210   7.683   7.165 -0.0918  0.1060  0.1900
   96loPI   C6A 1532  10.082   7.331   7.047 -0.0753 -0.0895  0.2005
   96loPI   C1B 1533  11.117   7.814   8.574 -0.1450 -0.0671  0.0196
   96loPI   C2B 1534  11.067   7.902   8.113  0.1046 -0.0440 -0.0989
   96loPI   C3B 1535  11.128   7.812   7.758  0.1103  0.3360 -0.0386
   96loPI   C4B 1536  11.353   7.807   7.471 -0.0415 -0.3522 -0.0571
   97loPI    C1 1537  19.477   4.441   9.600 -0.1128  0.2797 -0.0102
   97loPI    C2 1538  19.753   4.637   9.814 -0.0904  0.1620  0.0699
   97loPI    C3 1539  19.540   4.343   9.983 -0.1952  0.1850 -0.0204
   97loPI   PO4 1540  19.494   4.619   9.335 -0.1701 -0.2480 -0.1847
   97loPI   GL1 1541  19.435   4.581   8.932  0.0668  0.4802 -0.3672
   97loPI   GL2 1542  19.387   4.393   8.633 -0.3758 -0.1774  0.1708
   97loPI   C1A 1543  19.695   4.759   8.517 -0.1370 -0.1461  0.1665
   97loPI   C2A 1544  19.710   4.927   8.150 -0.3185 -0.1207 -0.2651
   97loPI   C3A 1545  19.885   5.162   7.639 -0.0723  0.0214 -0.1974
   97loPI   C4A 1546  19.707   5.416   7.288 -0.2069 -0.1063 -0.3485
   97loPI   C5A 1547  19.880   5.803   7.047  0.4036 -0.1593 -0.1357
   97loPI   C6A 1548  20.055   5.864   6.716 -0.1987  0.0150  0.2208
   97loPI   C1B 1549  19.210   4.233   8.279  0.0852  0.3774  0.0131
   97loPI   C2B 1550  19.012   4.267   7.896  0.1636  0.2425  0.0551
   97loPI   C3B 1551  19.070   4.266   7.347  0.2831  0.0298 -0.0447
   97loPI   C4B 1552  18.948   4.276   6.881 -0.0575  0.0764 -0.0431
   98loPI    C1 1553  15.230  11.742   9.576 -0.1999 -0.3620  0.1275
   98loPI    C2 1554  15.247  11.992   9.888  0.2326  0.0859 -0.2369
   98loPI    C3 1555  14.907  11.953   9.681 -0.0001 -0.0670  0.1622
   98loPI   PO4 1556  15.446  11.680   9.426 -0.0553 -0.1667  0.1577
   98loPI   GL1 1557  15.311  11.528   9.085 -0.2718  0.2203  0.1799
   98loPI   GL2 1558  14.884  11.622   9.185 -0.4222 -0.1976  0.3642
   98loPI   C1A 1559  15.423  11.503   8.632 -0.0609  0.0970 -0.1749
   98loPI   C2A 1560  15.436  11.429   8.207  0.1278 -0.3785  0.2252
   98loPI   C3A 1561  15.535  11.445   7.848  0.1826  0.0575 -0.2475
   98loPI   C4A 1562  15.406  11.569   7.477 -0.0830  0.1958  0.1372
   98loPI   C5A 1563  15.239  11.681   7.082  0.0668  0.0386 -0.0368
   98loPI   C6A 1564  14.808  11.661   6.787 -0.1005 -0.1161 -0.1725
   98loPI   C1B 1565  14.786  11.524   8.811 -0.3738 -0.1284  0.2569
   98loPI   C2B 1566  14.978  11.552   8.447  0.2074  0.1771  0.0688
   98loPI   C3B 1567  14.955  11.618   8.027  0.0876 -0.0804  0.3692
   98loPI   C4B 1568  14.902  11.491   7.555 -0.2334  0.0259 -0.2346
   99loPI    C1 1569  13.238  10.100   9.799  0.3041 -0.0338  0.0884
   99loPI    C2 1570  13.075   9.869  10.083  0.0745  0.1490  0.1088
   99loPI    C3 1571  13.414  10.069  10.157  0.0809  0.1002  0.2128
   99loPI   PO4 1572  13.240   9.976   9.573 -0.3069 -0.0863 -0.0669
   99loPI   GL1 1573  13.334   9.998   9.175  0.1044  0.1645 -0.1051
   99loPI   GL2 1574  13.022  10.042   9.125  0.1989 -0.0546 -0.1026
   99loPI   C1A 1575  13.462   9.944   8.742 -0.0634 -0.2484 -0.1260
   99loPI   C2A 1576  13.616   9.919   8.290  0.2465 -0.2357 -0.2371
   99loPI   C3A 1577  13.359   9.865   7.930  0.0593  0.5723  0.3407
   99loPI   C4A 1578  13.200  10.167   7.654 -0.0104 -0.0102  0.0300
   99loPI   C5A 1579  13.143  10.267   7.216  0.1741  0.0305  0.2274
   99loPI   C6A 1580  12.926  10.397   6.770  0.0022 -0.2020 -0.3047
   99loPI   C1B 1581  13.173  10.308   8.783  0.3242 -0.0903 -0.2350
   99loPI   C2B 1582  13.163  10.217   8.390 -0.1644 -0.1806 -0.0595
   99loPI   C3B 1583  12.830  10.385   8.074 -0.1067 -0.0167  0.1205
   99loPI   C4B 1584  12.751  10.338   7.718 -0.0865 -0.1983 -0.0526
  100loPI    C1 1585   5.943  16.605   9.759 -0.0568  0.0492 -0.1615
  100loPI    C2 1586   5.646  16.699  10.009  0.1506  0.0684  0.0814
  100loPI    C3 1587   5.763  16.319   9.973 -0.0304  0.0332 -0.1603
  100loPI   PO4 1588   5.976  16.540   9.458 -0.1762 -0.1415 -0.3046
  100loPI   GL1 1589   6.141  16.799   9.048 -0.0498  0.2155 -0.0540
  100loPI   GL2 1590   6.354  16.599   8.917  0.2036 -0.1681  0.0923
  100loPI   C1A 1591   5.886  17.095   8.716 -0.4779 -0.0798 -0.1734
  100loPI   C2A 1592   5.999  17.480   8.509 -0.0326  0.2386 -0.0249
  100loPI   C3A 1593   6.221  17.557   8.238 -0.0552  0.2288 -0.4668
  100loPI   C4A 1594   6.152  17.575   7.804 -0.4460  0.2010  0.3664
  100loPI   C5A 1595   6.383  17.375   7.437  0.2330  0.0893 -0.1430
  100loPI   C6A 1596   6.462  16.931   7.365 -0.0765 -0.1992  0.1473
  100loPI   C1B 1597   6.622  16.688   8.629 -0.2003 -0.1378 -0.0238
  100loPI   C2B 1598   6.659  16.799   8.172  0.3108  0.1838  0.0915
  100loPI   C3B 1599   6.517  17.064   7.880  0.2293 -0.0185 -0.0283
  100loPI   C4B 1600   6.026  17.069   7.893  0.0648 -0.1981  0.0147
  101loPI    C1 1601  18.364  11.659   9.172 -0.0411 -0.1482 -0.0754
  101loPI    C2 1602  18.459  11.441   9.494  0.0142  0.0026  0.0115
  101loPI    C3 1603  18.122  11.364   9.292  0.0076 -0.1290  0.0717
  101loPI   PO4 1604  18.479  11.642   9.007 -0.0931 -0.2703  0.4553
  101loPI   GL1 1605  18.679  11.775   8.657  0.0921  0.4328 -0.1622
  101loPI   GL2 1606  18.900  12.002   8.805 -0.1809  0.1880 -0.4162
  101loPI   C1A 1607  18.798  11.422   8.328  0.4176 -0.0408 -0.2387
  101loPI   C2A 1608  18.920  11.332   7.854  0.2099 -0.1352  0.1070
  101loPI   C3A 1609  18.794  11.383   7.422  0.1088 -0.0026 -0.0121
  101loPI   C4A 1610  18.661  11.535   6.988  0.2741 -0.0657 -0.0701
  101loPI   C5A 1611  18.508  11.958   7.024  0.1805  0.0345 -0.2262
  101loPI   C6A 1612  18.151  12.218   7.008 -0.2539  0.3833  0.0450
  101loPI   C1B 1613  19.153  11.936   8.381  0.0685  0.3040 -0.0666
  101loPI   C2B 1614  18.935  11.846   7.887 -0.0954  0.1841 -0.1752
  101loPI   C3B 1615  18.899  11.841   7.370 -0.2770  0.0075  0.0513
  101loPI   C4B 1616  19.119  11.664   7.042 -0.2637  0.0434 -0.1362
  102loPI    C1 1617  16.263   8.688   9.758  0.2674  0.1676 -0.1560
  102loPI    C2 1618  16.317   8.499  10.106 -0.0900  0.1706 -0.0952
  102loPI    C3 1619  16.484   8.354   9.773  0.0340  0.0180  0.0315
  102loPI   PO4 1620  15.947   8.662   9.796  0.1797 -0.1956  0.0575
  102loPI   GL1 1621  15.681   8.660   9.373 -0.1990 -0.1149  0.1081
  102loPI   GL2 1622  15.630   8.318   9.301  0.0808  0.1730 -0.0664
  102loPI   C1A 1623  15.733   8.840   8.931  0.2921 -0.0783 -0.1799
  102loPI   C2A 1624  15.659   9.037   8.545 -0.0802 -0.1586  0.0940
  102loPI   C3A 1625  15.418   9.070   8.228 -0.2450  0.1417 -0.1804
  102loPI   C4A 1626  15.184   9.096   7.901  0.2318 -0.0461 -0.2434
  102loPI   C5A 1627  15.293   8.874   7.588  0.2157 -0.1189  0.0565
  102loPI   C6A 1628  15.397   8.914   7.138 -0.2223  0.2936 -0.0740
  102loPI   C1B 1629  15.817   8.345   8.900 -0.0837  0.1691  0.0152
  102loPI   C2B 1630  15.888   8.558   8.551 -0.0367 -0.0608 -0.3863
  102loPI   C3B 1631  15.928   8.755   8.203  0.0666  0.1289 -0.0054
  102loPI   C4B 1632  16.224   8.976   7.912 -0.1751  0.1698  0.1671
  103loPI    C1 1633  18.706  12.930   9.595 -0.3511 -0.2387  0.0469
  103loPI    C2 1634  18.565  13.288   9.484 -0.0986 -0.1165  0.1133
  103loPI    C3 1635  18.514  13.159   9.860  0.2650  0.0813  0.2351
  103loPI   PO4 1636  18.707  12.797   9.246  0.0981 -0.3568  0.0613
  103loPI   GL1 1637  18.696  12.997   8.831  0.0249 -0.3879  0.0640
  103loPI   GL2 1638  18.404  12.941   8.581 -0.0294  0.0884 -0.2575
  103loPI   C1A 1639  18.873  12.933   8.422  0.2863  0.1421  0.3024
  103loPI   C2A 1640  18.887  12.875   7.951 -0.0068 -0.1032 -0.2193
  103loPI   C3A 1641  19.088  12.746   7.553 -0.1891  0.2406 -0.0873
  103loPI   C4A 1642  19.287  12.765   7.141  0.0183 -0.0003  0.3559
  103loPI   C5A 1643  19.564  12.482   6.987  0.1644  0.2077 -0.1000
  103loPI   C6A 1644  19.908  12.238   6.777 -0.0563 -0.3616  0.1289
  103loPI   C1B 1645  18.292  12.940   8.176 -0.1719 -0.3061  0.3459
  103loPI   C2B 1646  18.357  12.812   7.820  0.0954 -0.0116 -0.0775
  103loPI   C3B 1647  18.614  12.784   7.532 -0.2141  0.0494  0.1227
  103loPI   C4B 1648  18.772  12.572   7.220 -0.3225 -0.0923 -0.1600
  104loPI    C1 1649  19.010   5.439   9.654 -0.0798  0.1115 -0.1499
  104loPI    C2 1650  19.136   5.097   9.820  0.0220  0.3249  0.2231
  104loPI    C3 1651  18.745   5.181   9.807  0.0062  0.2575  0.2570
  104loPI   PO4 1652  19.219   5.455   9.495  0.2087  0.2461 -0.1384
  104loPI   GL1 1653  19.227   5.593   9.127 -0.1514  0.0616 -0.2356
  104loPI   GL2 1654  18.984   5.372   9.005  0.1023  0.0044 -0.0030
  104loPI   C1A 1655  19.000   6.015   8.853 -0.1067 -0.1841  0.0253
  104loPI   C2A 1656  18.875   6.157   8.407  0.2369  0.2864  0.0586
  104loPI   C3A 1657  18.680   6.092   8.065 -0.3195 -0.0300  0.0232
  104loPI   C4A 1658  18.635   5.967   7.719 -0.1309  0.1852 -0.1337
  104loPI   C5A 1659  18.747   5.709   7.227  0.0666  0.3078  0.1704
  104loPI   C6A 1660  19.009   5.987   7.067 -0.0192  0.1363 -0.1891
  104loPI   C1B 1661  18.982   5.455   8.585 -0.1085  0.3401 -0.1163
  104loPI   C2B 1662  18.853   5.122   8.349  0.3098 -0.2345  0.2368
  104loPI   C3B 1663  18.973   5.147   7.929  0.0064  0.1180  0.1734
  104loPI   C4B 1664  18.986   5.516   7.659 -0.0440  0.1270 -0.2806
  105loPI    C1 1665  14.076  10.932  10.023 -0.0499 -0.0328  0.0566
  105loPI    C2 1666  14.095  10.730  10.367 -0.2095  0.0718  0.1278
  105loPI    C3 1667  13.981  11.114  10.366  0.0921  0.1636 -0.0066
  105loPI   PO4 1668  13.991  10.671   9.880 -0.0816  0.1161  0.1466
  105loPI   GL1 1669  13.862  10.744   9.544  0.0483 -0.2047  0.0619
  105loPI   GL2 1670  14.196  10.691   9.453 -0.0175 -0.0993 -0.2932
  105loPI   C1A 1671  13.771  10.981   9.302  0.1721  0.0365  0.1045
  105loPI   C2A 1672  13.713  11.001   8.875 -0.1803  0.0149 -0.4491
  105loPI   C3A 1673  13.663  11.121   8.480 -0.1507 -0.1986  0.0612
  105loPI   C4A 1674  13.639  11.050   8.072 -0.3856 -0.3359  0.2190
  105loPI   C5A 1675  13.702  11.075   7.675  0.0767  0.0205  0.0425
  105loPI   C6A 1676  13.808  11.368   7.491 -0.1505  0.3050 -0.0453
  105loPI   C1B 1677  14.190  10.834   9.020 -0.1107  0.2318 -0.1403
  105loPI   C2B 1678  14.133  10.892   8.610 -0.5013 -0.0811  0.1076
  105loPI   C3B 1679  14.146  10.882   8.235 -0.0477 -0.3894  0.1480
  105loPI   C4B 1680  14.138  10.878   7.830  0.0821 -0.0530 -0.1514
  106loPI    C1 1681  15.739   4.856   9.529  0.2098 -0.0408 -0.0581
  106loPI    C2 1682  15.345   4.866   9.593  0.2002  0.0852 -0.1344
  106loPI    C3 1683  15.588   4.708   9.868  0.1058  0.0991 -0.0425
  106loPI   PO4 1684  15.790   4.774   9.320  0.0483 -0.0316 -0.0145
  106loPI   GL1 1685  16.082   4.724   8.949  0.0230 -0.0110  0.0487
  106loPI   GL2 1686  16.323   4.665   8.965 -0.0517 -0.1195 -0.3921
  106loPI   C1A 1687  16.058   4.802   8.556  0.0038 -0.1787  0.1188
  106loPI   C2A 1688  16.118   4.794   8.090  0.1185  0.1397 -0.1245
  106loPI   C3A 1689  16.167   4.750   7.630 -0.2187  0.0856 -0.0051
  106loPI   C4A 1690  16.403   4.920   7.326 -0.0790 -0.1388  0.1291
  106loPI   C5A 1691  16.252   4.817   6.929  0.2462 -0.4166 -0.2559
  106loPI   C6A 1692  15.817   4.515   6.887 -0.1318 -0.2862  0.2507
  106loPI   C1B 1693  16.511   4.459   8.567 -0.0179  0.0858  0.4115
  106loPI   C2B 1694  16.646   4.404   8.199  0.5894  0.2085  0.2499
  106loPI   C3B 1695  16.689   4.301   7.824  0.0243  0.1229 -0.1679
  106loPI   C4B 1696  16.568   4.434   7.510 -0.2499 -0.0789  0.1800
  107loPI    C1 1697  12.841   4.559   9.583  0.1715 -0.0912 -0.0163
  107loPI    C2 1698  12.785   4.214   9.389  0.2038 -0.1368  0.0551
  107loPI    C3 1699  13.120   4.425   9.330  0.1081 -0.0312 -0.1189
  107loPI   PO4 1700  12.638   4.804   9.543 -0.1525  0.2021  0.0163
  107loPI   GL1 1701  12.459   4.867   9.143 -0.1812 -0.0543 -0.0648
  107loPI   GL2 1702  12.798   4.690   9.029 -0.0408  0.1022 -0.1311
  107loPI   C1A 1703  12.232   5.182   8.830  0.1705  0.2715  0.2649
  107loPI   C2A 1704  12.287   5.375   8.474 -0.3428  0.2704  0.2157
  107loPI   C3A 1705  12.553   5.565   8.367  0.2174  0.1538 -0.0161
  107loPI   C4A 1706  12.654   5.808   7.889  0.3356  0.3511 -0.1106
  107loPI   C5A 1707  12.612   5.829   7.429  0.3249 -0.2716 -0.0783
  107loPI   C6A 1708  12.863   5.661   7.074 -0.1113  0.2343 -0.1616
  107loPI   C1B 1709  12.648   4.741   8.587 -0.0828 -0.1776 -0.0711
  107loPI   C2B 1710  12.446   4.893   8.215  0.0328  0.0530  0.1464
  107loPI   C3B 1711  12.550   4.816   7.889 -0.1148  0.1801 -0.0826
  107loPI   C4B 1712  12.832   4.894   7.629  0.3930  0.3655  0.0479
  108loPI    C1 1713   9.444   9.555   9.617 -0.0996  0.0978 -0.1059
  108loPI    C2 1714   9.328   9.781   9.926  0.3218  0.3916 -0.1533
  108loPI    C3 1715   9.516   9.434   9.991 -0.1236  0.1568 -0.0822
  108loPI   PO4 1716   9.517   9.702   9.476 -0.1154 -0.1808 -0.2954
  108loPI   GL1 1717   9.543   9.859   9.095  0.1516  0.0528  0.0028
  108loPI   GL2 1718   9.827   9.768   9.073  0.0903  0.2969 -0.3126
  108loPI   C1A 1719   9.486   9.757   8.662 -0.0114 -0.5423  0.1459
  108loPI   C2A 1720   9.478   9.785   8.199  0.3313  0.2303  0.2809
  108loPI   C3A 1721   9.288  10.006   7.881  0.2058  0.0401 -0.0609
  108loPI   C4A 1722   9.211  10.248   7.476 -0.3434 -0.0519 -0.0098
  108loPI   C5A 1723   9.040  10.467   7.216 -0.1162  0.2165  0.1532
  108loPI   C6A 1724   8.988  10.629   6.858  0.2040 -0.1034 -0.1607
  108loPI   C1B 1725   9.983   9.874   8.627  0.0818  0.2759  0.0165
  108loPI   C2B 1726   9.970   9.954   8.181 -0.1248  0.0879 -0.0285
  108loPI   C3B 1727   9.765   9.964   7.782 -0.1946  0.0953 -0.2813
  108loPI   C4B 1728   9.728  10.289   7.538 -0.0634  0.0818 -0.1033
  109loPI    C1 1729  15.128  13.602  10.286  0.1453 -0.1899 -0.1368
  109loPI    C2 1730  15.033  13.416  10.627  0.0029 -0.1242 -0.1401
  109loPI    C3 1731  15.226  13.766  10.637  0.1668 -0.2139 -0.1316
  109loPI   PO4 1732  15.184  13.359  10.029  0.0777  0.1333 -0.1426
  109loPI   GL1 1733  15.084  13.512   9.518  0.3628  0.5946 -0.1588
  109loPI   GL2 1734  14.946  13.854   9.426  0.4639 -0.1826  0.0368
  109loPI   C1A 1735  15.141  13.583   9.030  0.0398  0.2288  0.0385
  109loPI   C2A 1736  15.126  13.482   8.671  0.1783 -0.0888  0.0482
  109loPI   C3A 1737  15.353  13.458   8.277  0.5519 -0.0211  0.0432
  109loPI   C4A 1738  15.586  13.584   7.970  0.1490 -0.0539  0.0522
  109loPI   C5A 1739  15.813  13.668   7.582 -0.3353 -0.0103  0.1397
  109loPI   C6A 1740  15.676  13.843   7.105 -0.2124 -0.1498 -0.2130
  109loPI   C1B 1741  14.831  13.948   9.017  0.1357 -0.1882 -0.0055
  109loPI   C2B 1742  14.864  13.815   8.506 -0.1355 -0.1340 -0.5292
  109loPI   C3B 1743  14.863  13.485   8.235  0.1685 -0.0024  0.2090
  109loPI   C4B 1744  15.013  13.556   7.785 -0.4438  0.0357 -0.2517
  110loPI    C1 1745  14.772  16.091  10.016  0.1294 -0.0532  0.0477
  110loPI    C2 1746  14.626  15.722  10.067  0.1994 -0.0807  0.0509
  110loPI    C3 1747  14.447  16.034  10.242  0.1088 -0.1066  0.0048
  110loPI   PO4 1748  14.757  16.037   9.647 -0.0772  0.3811  0.3163
  110loPI   GL1 1749  15.072  15.986   9.330 -0.4275  0.1888 -0.1205
  110loPI   GL2 1750  14.822  16.217   9.158 -0.0414  0.0926  0.0925
  110loPI   C1A 1751  15.396  16.117   9.036 -0.2135 -0.0189  0.1426
  110loPI   C2A 1752  15.453  16.313   8.661 -0.3249 -0.0048 -0.0587
  110loPI   C3A 1753  15.401  16.314   8.238 -0.0995 -0.1647  0.3116
  110loPI   C4A 1754  15.156  16.212   7.930 -0.1751 -0.0890 -0.0591
  110loPI   C5A 1755  14.770  16.081   7.737  0.1088  0.5243 -0.0389
  110loPI   C6A 1756  14.467  16.129   7.327  0.0081  0.2217 -0.0185
  110loPI   C1B 1757  14.935  16.315   8.777  0.1856  0.1942 -0.2988
  110loPI   C2B 1758  14.970  16.409   8.432 -0.1234  0.0221  0.4880
  110loPI   C3B 1759  14.762  16.454   8.096  0.0540  0.0629 -0.0696
  110loPI   C4B 1760  14.440  16.487   7.808 -0.0879 -0.2948  0.3398
  111loPI    C1 1761  12.124   6.567   9.685  0.2059  0.1536 -0.2397
  111loPI    C2 1762  12.004   6.947   9.710  0.0410  0.1000 -0.2003
  111loPI    C3 1763  12.138   6.758  10.036 -0.1114  0.0493 -0.1661
  111loPI   PO4 1764  11.956   6.429   9.532 -0.1901  0.0233 -0.3510
  111loPI   GL1 1765  12.009   6.160   9.061  0.2558  0.0407 -0.1509
  111loPI   GL2 1766  11.828   6.389   8.955  0.0735  0.2363 -0.1757
  111loPI   C1A 1767  12.058   5.950   8.584 -0.0165  0.1839 -0.1368
  111loPI   C2A 1768  12.018   6.088   8.202  0.0818 -0.2165  0.1678
  111loPI   C3A 1769  12.139   5.993   7.864 -0.4097 -0.0638  0.1164
  111loPI   C4A 1770  12.153   6.046   7.368 -0.0546  0.1129 -0.0260
  111loPI   C5A 1771  11.909   5.945   6.892  0.0268  0.0783 -0.0679
  111loPI   C6A 1772  11.939   5.835   6.487 -0.3444  0.1356 -0.1194
  111loPI   C1B 1773  11.887   6.456   8.553  0.1208 -0.0695  0.0270
  111loPI   C2B 1774  11.987   6.583   8.134  0.0905  0.0472  0.1675
  111loPI   C3B 1775  11.988   6.437   7.684 -0.0735 -0.1187  0.0046
  111loPI   C4B 1776  12.082   6.675   7.319  0.1754  0.0483  0.3382
  112loPI    C1 1777   2.725   4.988   9.049 -0.2503 -0.0947 -0.1858
  112loPI    C2 1778   2.662   4.931   9.439 -0.1599  0.1651 -0.1314
  112loPI    C3 1779   2.729   5.299   9.299 -0.1229  0.0647 -0.3829
  112loPI   PO4 1780   2.548   4.864   8.958  0.0068  0.2185 -0.1573
  112loPI   GL1 1781   2.269   4.864   8.628 -0.0014 -0.1145 -0.3066
  112loPI   GL2 1782   2.477   4.581   8.542 -0.3757 -0.0933 -0.1305
  112loPI   C1A 1783   2.317   5.163   8.292 -0.0747 -0.0395  0.1485
  112loPI   C2A 1784   2.368   5.294   7.923 -0.0731  0.1828  0.0123
  112loPI   C3A 1785   2.387   5.454   7.411  0.0801 -0.2073  0.0610
  112loPI   C4A 1786   2.610   5.379   7.036 -0.0648 -0.1161 -0.0675
  112loPI   C5A 1787   2.780   5.219   6.809  0.1224 -0.0006  0.0062
  112loPI   C6A 1788   3.209   4.991   6.635 -0.2452  0.5058 -0.1519
  112loPI   C1B 1789   2.477   4.638   8.156 -0.2985 -0.1496 -0.0320
  112loPI   C2B 1790   2.509   4.725   7.776 -0.0709 -0.0546 -0.1956
  112loPI   C3B 1791   2.419   4.913   7.420  0.2258 -0.0615 -0.0884
  112loPI   C4B 1792   2.506   4.772   6.986 -0.2215  0.3169 -0.2155
  113loPI    C1 1793  19.026  13.625   9.786 -0.1689  0.0153 -0.0934
  113loPI    C2 1794  18.887  13.999   9.751 -0.1138  0.0550  0.0981
  113loPI    C3 1795  19.262  13.936   9.877 -0.1417 -0.0665  0.1209
  113loPI   PO4 1796  19.035  13.550   9.519 -0.0618 -0.0489  0.3030
  113loPI   GL1 1797  18.938  13.486   8.958 -0.1851  0.0100 -0.0078
  113loPI   GL2 1798  18.968  13.738   8.997 -0.4065 -0.0835 -0.1984
  113loPI   C1A 1799  18.754  13.442   8.548  0.0328  0.3242 -0.0093
  113loPI   C2A 1800  18.657  13.333   8.142 -0.1090 -0.0600 -0.1233
  113loPI   C3A 1801  18.441  13.294   7.774  0.1616  0.0213 -0.1800
  113loPI   C4A 1802  18.239  13.137   7.414  0.0514 -0.1190 -0.2782
  113loPI   C5A 1803  18.433  13.149   7.027  0.1758 -0.4818 -0.0005
  113loPI   C6A 1804  18.840  12.922   6.899  0.2397  0.2490 -0.0125
  113loPI   C1B 1805  19.087  13.825   8.607  0.2618 -0.2502 -0.1017
  113loPI   C2B 1806  19.246  13.855   8.288  0.2544 -0.1905 -0.0629
  113loPI   C3B 1807  19.252  13.963   7.853 -0.0758 -0.2412 -0.1786
  113loPI   C4B 1808  19.246  13.755   7.446 -0.0397  0.0188 -0.1676
  114loPI    C1 1809  17.051  12.800   9.826  0.2977  0.0433 -0.0467
  114loPI    C2 1810  16.781  12.596  10.040  0.4634 -0.1735 -0.0410
  114loPI    C3 1811  16.950  12.925  10.192  0.0759  0.0652 -0.1140
  114loPI   PO4 1812  16.938  12.803   9.487 -0.0066  0.1003 -0.0707
  114loPI   GL1 1813  16.946  12.956   9.061  0.2087  0.0968 -0.0212
  114loPI   GL2 1814  16.906  12.702   8.967 -0.1428  0.1554  0.1496
  114loPI   C1A 1815  17.127  13.178   8.633  0.2382  0.1552  0.1232
  114loPI   C2A 1816  17.406  13.368   8.437 -0.0879 -0.2763 -0.1794
  114loPI   C3A 1817  17.713  13.655   8.186  0.2175  0.1686  0.2369
  114loPI   C4A 1818  17.820  13.878   7.823  0.1688 -0.0823 -0.1096
  114loPI   C5A 1819  17.642  14.226   7.681  0.2106  0.1320 -0.0764
  114loPI   C6A 1820  17.554  14.449   7.915 -0.1753  0.0297 -0.2896
  114loPI   C1B 1821  16.828  12.707   8.533  0.2565  0.3148  0.0321
  114loPI   C2B 1822  16.544  12.527   8.293 -0.0984 -0.2284 -0.2300
  114loPI   C3B 1823  16.479  12.492   7.919 -0.1423 -0.2524  0.3100
  114loPI   C4B 1824  16.334  12.383   7.487  0.4418  0.3491 -0.3801
  115loPI    C1 1825   9.119   5.286   9.805 -0.1582  0.2181  0.0170
  115loPI    C2 1826   8.782   5.078   9.864 -0.0224 -0.0053  0.0169
  115loPI    C3 1827   9.095   5.025  10.108  0.1328 -0.0585 -0.1909
  115loPI   PO4 1828   9.071   5.242   9.459  0.0040 -0.0914 -0.1077
  115loPI   GL1 1829   9.100   5.134   9.110 -0.3939  0.1716  0.2202
  115loPI   GL2 1830   9.161   4.904   8.956 -0.2797  0.1370 -0.0837
  115loPI   C1A 1831   9.011   5.463   8.714 -0.3153  0.0470  0.2407
  115loPI   C2A 1832   9.106   5.565   8.354 -0.0593  0.1774 -0.0671
  115loPI   C3A 1833   9.278   5.624   8.019 -0.1335 -0.0371  0.2762
  115loPI   C4A 1834   9.477   5.342   7.745 -0.1545  0.1384  0.0179
  115loPI   C5A 1835   9.506   5.447   7.326  0.2346  0.1151  0.0853
  115loPI   C6A 1836   9.125   5.549   7.047  0.1718  0.0514  0.0800
  115loPI   C1B 1837   9.307   5.093   8.602  0.0146 -0.1126  0.2864
  115loPI   C2B 1838   9.639   4.938   8.262 -0.1224  0.1130  0.1096
  115loPI   C3B 1839   9.862   4.842   7.930  0.0808  0.1987  0.0219
  115loPI   C4B 1840  10.241   4.765   7.682 -0.1299  0.2885 -0.4332
  116loPI    C1 1841  10.808   2.290   9.490 -0.1342 -0.1470  0.0347
  116loPI    C2 1842  10.412   2.337   9.526 -0.0994  0.2126 -0.0179
  116loPI    C3 1843  10.659   2.512   9.788  0.0290  0.0549 -0.0319
  116loPI   PO4 1844  10.930   2.438   9.327  0.2454  0.1842 -0.0927
  116loPI   GL1 1845  10.934   2.423   8.866 -0.0980  0.0139 -0.0951
  116loPI   GL2 1846  11.077   2.250   8.740 -0.3202  0.0106 -0.2414
  116loPI   C1A 1847  10.852   2.529   8.346 -0.3669 -0.3800  0.1032
  116loPI   C2A 1848  10.728   2.276   8.007  0.1469 -0.0754  0.0700
  116loPI   C3A 1849  10.429   2.067   7.736 -0.3062  0.0450 -0.0698
  116loPI   C4A 1850  10.300   1.991   7.275 -0.1139  0.0251 -0.0489
  116loPI   C5A 1851  10.471   1.663   7.083  0.0032 -0.0294  0.0597
  116loPI   C6A 1852  10.741   1.557   6.688  0.1868  0.1991  0.3270
  116loPI   C1B 1853  10.860   2.040   8.444  0.0758 -0.1122 -0.0623
  116loPI   C2B 1854  10.496   1.946   8.250  0.0644 -0.0892 -0.1297
  116loPI   C3B 1855   9.972   2.039   8.186 -0.2263 -0.2627 -0.1433
  116loPI   C4B 1856   9.707   1.825   8.429 -0.3961  0.0275  0.0998
  117loPI    C1 1857  18.543   2.675   9.532 -0.1172 -0.1624 -0.0461
  117loPI    C2 1858  18.509   2.966   9.260  0.1245 -0.2922 -0.2190
  117loPI    C3 1859  18.624   3.053   9.633 -0.2140 -0.1125 -0.1533
  117loPI   PO4 1860  18.262   2.562   9.450 -0.0781  0.0962  0.0493
  117loPI   GL1 1861  18.112   2.739   9.146  0.2960 -0.0264  0.3009
  117loPI   GL2 1862  17.940   2.993   9.095  0.1767  0.0695 -0.1795
  117loPI   C1A 1863  18.117   2.665   8.732 -0.2109 -0.0938 -0.1773
  117loPI   C2A 1864  18.162   2.813   8.355 -0.3320 -0.1445 -0.3100
  117loPI   C3A 1865  18.148   2.850   7.949 -0.1669 -0.2651  0.1609
  117loPI   C4A 1866  18.301   3.104   7.597  0.0249  0.0908 -0.2465
  117loPI   C5A 1867  18.369   2.942   7.204 -0.2209  0.0616 -0.1258
  117loPI   C6A 1868  17.952   2.697   7.109 -0.6013 -0.2618  0.0939
  117loPI   C1B 1869  17.815   3.051   8.643  0.1350  0.1345 -0.2137
  117loPI   C2B 1870  17.762   3.022   8.217  0.2769  0.1249  0.0047
  117loPI   C3B 1871  17.762   3.109   7.792  0.0157 -0.0487  0.1379
  117loPI   C4B 1872  17.761   3.084   7.359 -0.0678  0.4275 -0.0902
  118loPI    C1 1873   7.684   4.851   9.487 -0.2331  0.1731 -0.0652
  118loPI    C2 1874   7.570   5.080   9.795 -0.0031 -0.0535  0.1938
  118loPI    C3 1875   7.388   4.730   9.728  0.2133 -0.1919  0.3184
  118loPI   PO4 1876   7.660   5.063   9.228  0.3000 -0.1128 -0.1888
  118loPI   GL1 1877   7.831   5.102   8.816  0.2832 -0.0905 -0.1256
  118loPI   GL2 1878   8.106   4.948   8.838  0.1144 -0.2579  0.3744
  118loPI   C1A 1879   7.851   5.407   8.614 -0.1195 -0.1153  0.2401
  118loPI   C2A 1880   7.825   5.464   8.206  0.1999  0.0232  0.1076
  118loPI   C3A 1881   7.658   5.671   7.796 -0.2522 -0.2830 -0.1331
  118loPI   C4A 1882   7.507   6.044   7.623 -0.3708 -0.0902  0.1028
  118loPI   C5A 1883   7.428   6.354   7.594 -0.2206  0.0594  0.0691
  118loPI   C6A 1884   7.261   6.682   7.462 -0.0417  0.0154  0.1391
  118loPI   C1B 1885   8.283   5.227   8.523  0.1783  0.0143  0.0966
  118loPI   C2B 1886   8.556   5.281   8.213  0.0817 -0.4236 -0.1136
  118loPI   C3B 1887   8.789   5.630   7.973 -0.1751 -0.4645 -0.0982
  118loPI   C4B 1888   9.072   5.622   7.565 -0.3689 -0.2323  0.2337
  119loPI    C1 1889   4.976  15.017   9.588 -0.1367 -0.1460 -0.0868
  119loPI    C2 1890   4.928  15.259   9.903  0.3146 -0.0595 -0.0785
  119loPI    C3 1891   4.746  14.903   9.895 -0.1998  0.1931 -0.0040
  119loPI   PO4 1892   4.980  15.242   9.386 -0.1899  0.1200  0.1366
  119loPI   GL1 1893   5.108  15.358   9.024  0.1046  0.0949 -0.1973
  119loPI   GL2 1894   5.219  15.553   8.780  0.0599 -0.1103 -0.1875
  119loPI   C1A 1895   4.758  15.367   8.739  0.0213  0.0257 -0.1189
  119loPI   C2A 1896   4.669  15.234   8.360 -0.1922 -0.3422 -0.0587
  119loPI   C3A 1897   4.673  15.032   7.986 -0.0101  0.0114 -0.0289
  119loPI   C4A 1898   4.314  14.926   7.720  0.0419 -0.2327  0.0445
  119loPI   C5A 1899   4.075  15.061   7.446 -0.2223  0.0304  0.1714
  119loPI   C6A 1900   4.049  15.475   7.436  0.1510  0.1318 -0.0741
  119loPI   C1B 1901   5.213  15.519   8.359 -0.2568  0.1031  0.1742
  119loPI   C2B 1902   5.270  15.428   7.974 -0.0937 -0.1297  0.1089
  119loPI   C3B 1903   5.093  15.391   7.640 -0.6467  0.1889  0.2448
  119loPI   C4B 1904   4.973  15.198   7.248  0.0336 -0.2564 -0.0083
  120loPI    C1 1905  16.103  11.057   9.888 -0.1496 -0.1345 -0.1004
  120loPI    C2 1906  15.848  10.813  10.076  0.0545 -0.0236  0.3344
  120loPI    C3 1907  15.909  11.184  10.214  0.0401  0.1432 -0.0915
  120loPI   PO4 1908  16.112  11.021   9.617  0.0688 -0.2068 -0.1375
  120loPI   GL1 1909  16.366  11.334   9.360  0.2764  0.0039 -0.1796
  120loPI   GL2 1910  16.467  11.180   9.194 -0.4977  0.0547  0.1592
  120loPI   C1A 1911  16.268  11.668   9.042 -0.0134  0.2610  0.0673
  120loPI   C2A 1912  16.198  11.957   8.739  0.0037 -0.2115  0.1635
  120loPI   C3A 1913  16.243  12.082   8.316 -0.2515  0.0028 -0.4677
  120loPI   C4A 1914  16.294  11.979   7.884  0.1525 -0.1285  0.1387
  120loPI   C5A 1915  16.473  11.947   7.381  0.1590  0.0435 -0.0289
  120loPI   C6A 1916  16.395  12.125   6.979  0.1232  0.1466  0.1295
  120loPI   C1B 1917  16.475  11.110   8.813 -0.0254  0.0497  0.1710
  120loPI   C2B 1918  16.500  11.056   8.391  0.0211 -0.3451 -0.2003
  120loPI   C3B 1919  16.567  11.025   7.876  0.0772 -0.3149 -0.2725
  120loPI   C4B 1920  16.567  10.858   7.468 -0.2459 -0.2356  0.0275
  121loPI    C1 1921  18.726   1.714   9.579  0.0125  0.0083 -0.0697
  121loPI    C2 1922  19.012   1.569   9.340  0.0453 -0.0656  0.0136
  121loPI    C3 1923  18.889   1.357   9.657 -0.0765 -0.0178 -0.0010
  121loPI   PO4 1924  18.585   1.824   9.276 -0.4886 -0.1135  0.1815
  121loPI   GL1 1925  18.747   1.775   8.919  0.0254 -0.0863  0.0272
  121loPI   GL2 1926  19.084   1.757   8.842 -0.2603  0.2027 -0.2047
  121loPI   C1A 1927  18.616   1.683   8.581  0.0700 -0.0929 -0.0268
  121loPI   C2A 1928  18.475   1.845   8.167  0.1264 -0.0083 -0.0436
  121loPI   C3A 1929  18.450   1.959   7.733 -0.1727 -0.2506 -0.2830
  121loPI   C4A 1930  18.205   1.964   7.375 -0.2429 -0.1330 -0.0426
  121loPI   C5A 1931  18.390   2.244   7.052  0.4180  0.1017 -0.1932
  121loPI   C6A 1932  18.358   2.651   6.777  0.0630 -0.0184 -0.2976
  121loPI   C1B 1933  19.058   1.489   8.348  0.2691  0.2171 -0.0738
  121loPI   C2B 1934  18.856   1.608   7.947  0.0356  0.3180 -0.0309
  121loPI   C3B 1935  18.808   1.691   7.448  0.0150 -0.0634  0.0452
  121loPI   C4B 1936  18.620   1.488   7.109  0.1732  0.1870  0.1303
  122loPI    C1 1937   0.475   5.794   9.640  0.0631 -0.0779 -0.0315
  122loPI    C2 1938   0.709   5.492   9.760  0.1033  0.0696  0.2695
  122loPI    C3 1939   0.325   5.505   9.873  0.0245 -0.0179  0.0183
  122loPI   PO4 1940   0.592   5.772   9.364  0.4257 -0.1993 -0.1339
  122loPI   GL1 1941   0.336   5.536   8.992  0.2127  0.1640  0.0650
  122loPI   GL2 1942   0.164   5.344   9.085 -0.1853  0.3694  0.0862
  122loPI   C1A 1943   0.268   5.595   8.617 -0.0997 -0.2930 -0.1631
  122loPI   C2A 1944   0.158   5.675   8.184 -0.1459 -0.0635 -0.0833
  122loPI   C3A 1945   0.063   5.700   7.806 -0.0333  0.1212  0.0390
  122loPI   C4A 1946  -0.136   5.841   7.423  0.0523 -0.2917  0.1839
  122loPI   C5A 1947  -0.139   6.042   6.979  0.0086 -0.3001  0.1624
  122loPI   C6A 1948  -0.138   6.283   6.648  0.1050 -0.2194  0.0305
  122loPI   C1B 1949  -0.170   5.285   8.755 -0.1443  0.0459  0.0674
  122loPI   C2B 1950  -0.311   5.256   8.287 -0.2906 -0.1454  0.1128
  122loPI   C3B 1951  -0.147   5.253   7.872  0.0198 -0.0071 -0.1745
  122loPI   C4B 1952  -0.258   5.162   7.456  0.3340 -0.0518 -0.1266
  123loPI    C1 1953  11.365   2.490   9.098 -0.1958 -0.2039 -0.0456
  123loPI    C2 1954  11.424   2.740   9.405 -0.0490  0.0276 -0.2583
  123loPI    C3 1955  11.383   2.347   9.471 -0.2366  0.1000  0.0752
  123loPI   PO4 1956  11.493   2.645   8.900  0.1745 -0.1013  0.2222
  123loPI   GL1 1957  11.821   2.530   8.679 -0.1411 -0.1730 -0.0008
  123loPI   GL2 1958  11.782   2.925   8.584 -0.0337  0.2478 -0.0901
  123loPI   C1A 1959  11.942   2.564   8.164  0.1095 -0.1102 -0.2365
  123loPI   C2A 1960  12.047   2.420   7.801  0.0842 -0.1710  0.1576
  123loPI   C3A 1961  12.262   2.538   7.435  0.2222  0.0457  0.3254
  123loPI   C4A 1962  12.066   2.506   6.979 -0.0815 -0.4164 -0.1894
  123loPI   C5A 1963  11.768   2.242   6.743  0.0550 -0.0624  0.0254
  123loPI   C6A 1964  11.651   1.869   6.964  0.0816 -0.3304 -0.1133
  123loPI   C1B 1965  11.679   3.028   8.103  0.1060  0.1540  0.0257
  123loPI   C2B 1966  11.672   2.835   7.787 -0.1426 -0.1362  0.4112
  123loPI   C3B 1967  11.811   2.709   7.450  0.2158  0.1956  0.0907
  123loPI   C4B 1968  11.603   2.548   7.076  0.5076 -0.0059 -0.3068
  124loPI    C1 1969   0.817   4.211   9.434 -0.0479 -0.1438  0.2828
  124loPI    C2 1970   0.977   4.481   9.683  0.0707  0.1543 -0.1059
  124loPI    C3 1971   0.586   4.495   9.597 -0.0281 -0.1204  0.2702
  124loPI   PO4 1972   1.009   4.261   9.134  0.2217 -0.0219  0.0162
  124loPI   GL1 1973   1.185   4.456   8.889  0.1216  0.0990  0.0517
  124loPI   GL2 1974   1.362   4.772   8.896 -0.0031  0.0745 -0.1696
  124loPI   C1A 1975   1.035   4.502   8.429  0.1222 -0.2086  0.1872
  124loPI   C2A 1976   0.996   4.585   8.007  0.1512  0.0399 -0.1290
  124loPI   C3A 1977   0.948   4.563   7.608  0.3811  0.3577 -0.0035
  124loPI   C4A 1978   0.686   4.608   7.388 -0.1269  0.0120  0.1809
  124loPI   C5A 1979   0.461   4.944   7.230  0.3074 -0.0878  0.0318
  124loPI   C6A 1980   0.157   4.876   6.886 -0.1405  0.2763  0.0637
  124loPI   C1B 1981   1.012   4.949   8.662  0.0389 -0.0430 -0.3355
  124loPI   C2B 1982   0.601   4.615   8.633  0.0669 -0.0846  0.1573
  124loPI   C3B 1983   0.514   4.701   8.165 -0.1321  0.1618  0.0281
  124loPI   C4B 1984   0.385   4.686   7.775 -0.0383 -0.1163  0.3552
  125loPI    C1 1985  10.878  10.959   9.814 -0.0753 -0.1916 -0.1959
  125loPI    C2 1986  10.700  10.854  10.156 -0.0052 -0.0208 -0.1056
  125loPI    C3 1987  10.853  10.573   9.916  0.3019 -0.1196  0.1981
  125loPI   PO4 1988  10.721  11.065   9.657 -0.2342 -0.2846 -0.1220
  125loPI   GL1 1989  10.835  11.140   9.277  0.2402  0.1629  0.1273
  125loPI   GL2 1990  10.841  10.958   8.999 -0.1061  0.3726  0.2048
  125loPI   C1A 1991  10.820  11.430   8.969  0.2114  0.1954 -0.2663
  125loPI   C2A 1992  10.864  11.480   8.512  0.1696 -0.0822 -0.0770
  125loPI   C3A 1993  10.847  11.648   8.158  0.1642 -0.1120  0.0761
  125loPI   C4A 1994  10.787  11.794   7.750  0.2917 -0.1331  0.1422
  125loPI   C5A 1995  10.394  11.849   7.447 -0.0689  0.3939  0.0156
  125loPI   C6A 1996  10.297  11.912   7.013 -0.0535  0.0526 -0.1069
  125loPI   C1B 1997  10.900  11.005   8.610 -0.1428  0.0994  0.1557
  125loPI   C2B 1998  10.978  11.125   8.156  0.2627  0.0740 -0.0192
  125loPI   C3B 1999  10.861  11.265   7.779 -0.0482  0.0175  0.1778
  125loPI   C4B 2000  10.688  11.435   7.428  0.1504 -0.2509  0.1089
  126loPI    C1 2001   7.890   1.689   9.775 -0.1712  0.2070 -0.0573
  126loPI    C2 2002   8.180   1.692  10.051 -0.0817  0.1787 -0.1506
  126loPI    C3 2003   7.987   2.030   9.960 -0.2029  0.1628  0.0416
  126loPI   PO4 2004   7.990   1.657   9.606 -0.0782 -0.0132  0.3101
  126loPI   GL1 2005   8.217   1.386   9.280  0.3101  0.1671 -0.0493
  126loPI   GL2 2006   7.901   1.426   9.058 -0.1193 -0.1221 -0.1534
  126loPI   C1A 2007   8.375   1.384   8.944  0.2923 -0.0730 -0.0628
  126loPI   C2A 2008   8.142   1.258   8.545 -0.1809  0.1796 -0.0440
  126loPI   C3A 2009   8.143   1.121   8.136 -0.0411  0.1600  0.2084
  126loPI   C4A 2010   7.991   1.085   7.706  0.2947  0.1809  0.0678
  126loPI   C5A 2011   8.125   0.855   7.353 -0.3020 -0.2097  0.0183
  126loPI   C6A 2012   8.080   0.400   7.180 -0.2328  0.0297 -0.3541
  126loPI   C1B 2013   7.899   1.709   8.578  0.1935  0.0635 -0.0990
  126loPI   C2B 2014   7.826   1.826   8.140 -0.1409  0.1172 -0.1469
  126loPI   C3B 2015   8.140   2.017   7.941 -0.1506 -0.1512  0.0766
  126loPI   C4B 2016   8.270   2.006   7.556  0.0755  0.0515 -0.1755
  127loPI    C1 2017   6.164  14.774   9.801 -0.1781  0.1519  0.0252
  127loPI    C2 2018   6.499  14.936   9.948  0.0911 -0.0862 -0.3093
  127loPI    C3 2019   6.253  14.733  10.189  0.2695 -0.0479 -0.0915
  127loPI   PO4 2020   6.254  14.721   9.590  0.0733 -0.1019  0.1589
  127loPI   GL1 2021   6.225  14.669   9.195 -0.0464  0.1392 -0.0964
  127loPI   GL2 2022   6.514  14.432   9.104  0.3045 -0.2143 -0.0648
  127loPI   C1A 2023   6.355  14.895   8.890  0.1855 -0.0113 -0.0115
  127loPI   C2A 2024   6.546  15.009   8.495 -0.2281 -0.1723 -0.1342
  127loPI   C3A 2025   6.619  15.188   8.062 -0.4080  0.0302 -0.1573
  127loPI   C4A 2026   6.782  15.316   7.585  0.3047  0.0155 -0.5820
  127loPI   C5A 2027   6.992  15.547   7.290  0.1828 -0.1438  0.2379
  127loPI   C6A 2028   7.134  15.703   6.937  0.0640 -0.0248  0.1004
  127loPI   C1B 2029   6.735  14.303   8.743  0.1043  0.1989 -0.1114
  127loPI   C2B 2030   6.812  14.399   8.384  0.0060  0.0012  0.0511
  127loPI   C3B 2031   6.633  14.218   7.845 -0.5030 -0.0151 -0.3045
  127loPI   C4B 2032   6.545  13.845   7.784 -0.2761 -0.0549  0.0802
  128loPI    C1 2033  14.292  13.526  10.035 -0.1400 -0.0818 -0.1525
  128loPI    C2 2034  14.378  13.186  10.227  0.3002 -0.0686 -0.3131
  128loPI    C3 2035  14.600  13.513  10.290 -0.2264  0.2482 -0.0256
  128loPI   PO4 2036  14.282  13.491   9.796  0.2317  0.0578  0.1117
  128loPI   GL1 2037  14.076  13.558   9.353 -0.0536  0.1860 -0.0563
  128loPI   GL2 2038  13.867  13.866   9.409 -0.2016 -0.0191  0.0581
  128loPI   C1A 2039  14.065  13.433   8.875 -0.1216  0.2491 -0.0276
  128loPI   C2A 2040  14.047  13.418   8.398 -0.0052  0.1490 -0.0160
  128loPI   C3A 2041  14.027  13.554   7.979  0.2889  0.1849 -0.0357
  128loPI   C4A 2042  14.025  13.691   7.600 -0.2294  0.0991  0.0762
  128loPI   C5A 2043  13.706  14.042   7.347 -0.3782  0.1658 -0.2685
  128loPI   C6A 2044  13.328  14.109   7.276  0.0365 -0.1197  0.0410
  128loPI   C1B 2045  13.877  13.919   8.944  0.1752  0.2314  0.4661
  128loPI   C2B 2046  13.977  13.962   8.508 -0.0159  0.0287 -0.1858
  128loPI   C3B 2047  13.843  14.089   8.122  0.2014 -0.0219 -0.0044
  128loPI   C4B 2048  13.984  14.161   7.688 -0.0744  0.1127  0.0284
  129loPI    C1 2049  16.519   5.333   9.774  0.0873  0.0602 -0.1125
  129loPI    C2 2050  16.789   5.384  10.065 -0.1986  0.2265  0.1298
  129loPI    C3 2051  16.439   5.206  10.145 -0.1617  0.0030 -0.1832
  129loPI   PO4 2052  16.685   5.221   9.564  0.3728 -0.4365 -0.3060
  129loPI   GL1 2053  16.736   5.321   9.197  0.1573  0.0373  0.0008
  129loPI   GL2 2054  16.589   5.092   9.094 -0.0669  0.0455 -0.2640
  129loPI   C1A 2055  16.844   5.459   8.816  0.0471 -0.1936 -0.0242
  129loPI   C2A 2056  16.719   5.342   8.350  0.1335 -0.0487 -0.1665
  129loPI   C3A 2057  16.711   5.313   7.970 -0.1500 -0.0619  0.0717
  129loPI   C4A 2058  16.722   5.361   7.526 -0.0264 -0.0960 -0.0161
  129loPI   C5A 2059  16.505   5.531   7.142  0.4779  0.1964 -0.5023
  129loPI   C6A 2060  16.516   6.014   7.002 -0.1043  0.0238 -0.0333
  129loPI   C1B 2061  16.655   5.016   8.759 -0.0263 -0.3845  0.0047
  129loPI   C2B 2062  16.585   4.912   8.240 -0.1842  0.2121 -0.1107
  129loPI   C3B 2063  16.678   4.812   7.757  0.0655  0.0884 -0.0094
  129loPI   C4B 2064  16.914   4.835   7.337 -0.0493 -0.0289 -0.0253
  130loPI    C1 2065  10.488  10.209   9.667 -0.0657  0.1545 -0.0857
  130loPI    C2 2066  10.165  10.380   9.829 -0.0537  0.0571  0.0424
  130loPI    C3 2067  10.299  10.031   9.971 -0.0710 -0.0538 -0.2095
  130loPI   PO4 2068  10.558  10.317   9.429 -0.1487  0.1793 -0.2057
  130loPI   GL1 2069  10.278  10.174   9.180 -0.0958 -0.2111  0.0601
  130loPI   GL2 2070  10.072  10.425   9.319 -0.1157  0.1543 -0.0563
  130loPI   C1A 2071  10.256  10.279   8.702  0.0247 -0.1760 -0.1294
  130loPI   C2A 2072  10.252  10.299   8.260 -0.3148  0.2235  0.1022
  130loPI   C3A 2073  10.168  10.380   7.894  0.3357 -0.0690  0.2185
  130loPI   C4A 2074  10.227  10.576   7.455 -0.1543  0.5321  0.1856
  130loPI   C5A 2075  10.289  10.273   7.126  0.0439 -0.0304  0.3291
  130loPI   C6A 2076  10.389   9.895   6.968  0.0939 -0.0861  0.1314
  130loPI   C1B 2077   9.832  10.291   8.961  0.0409 -0.3240 -0.2187
  130loPI   C2B 2078   9.632  10.233   8.486 -0.1301 -0.3770 -0.2194
  130loPI   C3B 2079   9.675  10.426   8.044  0.3533 -0.0442 -0.1302
  130loPI   C4B 2080   9.432  10.709   7.712 -0.4327  0.1243 -0.3562
  131loPI    C1 2081   1.256   1.256   9.198 -0.0399  0.1042  0.0004
  131loPI    C2 2082   1.032   1.014   9.425 -0.0512  0.0185 -0.1014
  131loPI    C3 2083   1.235   0.866   9.114  0.3283  0.0545  0.1236
  131loPI   PO4 2084   1.044   1.504   9.200 -0.1050 -0.2128  0.2016
  131loPI   GL1 2085   1.063   1.749   8.836 -0.2586 -0.2127 -0.2319
  131loPI   GL2 2086   0.740   1.806   8.847 -0.1456  0.3794  0.2125
  131loPI   C1A 2087   1.452   1.933   8.739  0.3516  0.2018 -0.2935
  131loPI   C2A 2088   1.675   1.753   8.398  0.1378 -0.1530  0.2877
  131loPI   C3A 2089   1.749   1.799   8.073  0.1621 -0.1058 -0.2784
  131loPI   C4A 2090   1.730   1.709   7.651 -0.1847  0.0646 -0.0933
  131loPI   C5A 2091   1.849   1.965   7.284  0.2486  0.1917  0.0759
  131loPI   C6A 2092   1.553   2.234   6.920 -0.4407 -0.3545  0.1390
  131loPI   C1B 2093   0.705   1.869   8.537 -0.1301  0.2771  0.1060
  131loPI   C2B 2094   0.655   1.551   8.168 -0.4719  0.0510  0.1753
  131loPI   C3B 2095   0.732   1.773   7.727  0.2910  0.1843 -0.0753
  131loPI   C4B 2096   0.654   1.789   7.298  0.1642 -0.0452  0.2436
  132loPI    C1 2097  14.254  18.025   9.966 -0.1673  0.0568 -0.1599
  132loPI    C2 2098  14.312  17.683  10.164  0.0090  0.1010 -0.1335
  132loPI    C3 2099  14.596  17.965  10.165 -0.0521  0.1648 -0.3218
  132loPI   PO4 2100  14.154  17.877   9.656 -0.3495 -0.3126 -0.5140
  132loPI   GL1 2101  14.136  18.022   9.248  0.0621 -0.1454 -0.1834
  132loPI   GL2 2102  14.347  18.139   9.195 -0.0217  0.2466  0.3213
  132loPI   C1A 2103  14.132  17.804   8.818 -0.2549  0.2920  0.0913
  132loPI   C2A 2104  14.198  17.805   8.326 -0.1150 -0.0324  0.0475
  132loPI   C3A 2105  13.990  17.849   7.930 -0.1090  0.0681 -0.1897
  132loPI   C4A 2106  13.634  17.698   7.650 -0.2839 -0.1545 -0.1277
  132loPI   C5A 2107  13.661  17.432   7.319 -0.2235 -0.1827  0.3139
  132loPI   C6A 2108  13.608  17.184   6.939  0.0147 -0.2651 -0.0197
  132loPI   C1B 2109  14.379  18.345   8.815 -0.3600 -0.0361  0.0471
  132loPI   C2B 2110  14.324  18.369   8.476 -0.1928 -0.0406  0.1135
  132loPI   C3B 2111  14.299  18.271   8.110 -0.1145 -0.1065 -0.0491
  132loPI   C4B 2112  14.233  18.255   7.678  0.0707  0.0290 -0.1918
  133loPI    C1 2113  11.477   9.847   9.533 -0.0707  0.0131 -0.1027
  133loPI    C2 2114  11.329   9.832   9.904 -0.0675 -0.0940 -0.1057
  133loPI    C3 2115  11.666  10.034   9.832  0.1222 -0.3624  0.0154
  133loPI   PO4 2116  11.337   9.733   9.414  0.0474  0.1370  0.0774
  133loPI   GL1 2117  11.411   9.771   9.054  0.2127 -0.0852  0.2822
  133loPI   GL2 2118  11.734   9.982   9.106 -0.1281  0.3268 -0.2028
  133loPI   C1A 2119  11.365   9.679   8.606 -0.0344 -0.1988  0.1644
  133loPI   C2A 2120  11.302   9.745   8.069  0.1806 -0.0216 -0.1034
  133loPI   C3A 2121  11.340   9.697   7.643 -0.1603  0.1260  0.3284
  133loPI   C4A 2122  11.172   9.584   7.201  0.3829 -0.1230 -0.0931
  133loPI   C5A 2123  10.936   9.592   6.830 -0.0185  0.0022 -0.2072
  133loPI   C6A 2124  10.639   9.578   6.583 -0.7190 -0.1557 -0.0534
  133loPI   C1B 2125  11.861   9.688   8.822 -0.2070 -0.0863 -0.1160
  133loPI   C2B 2126  11.901   9.736   8.415  0.0722  0.4756 -0.1762
  133loPI   C3B 2127  11.797   9.698   7.929  0.1325 -0.1736  0.2737
  133loPI   C4B 2128  11.905   9.706   7.544  0.1434 -0.0784 -0.0672
  134loPI    C1 2129   5.293   1.083   9.138  0.1378  0.1004 -0.0544
  134loPI    C2 2130   5.128   0.750   9.283 -0.1630  0.1645 -0.2407
  134loPI    C3 2131   5.491   0.862   9.406 -0.1916 -0.0598  0.0624
  134loPI   PO4 2132   5.279   0.954   8.832  0.4306  0.0811  0.3925
  134loPI   GL1 2133   5.290   0.669   8.480 -0.2180 -0.0158  0.1572
  134loPI   GL2 2134   5.003   0.518   8.347 -0.2397 -0.0552 -0.1256
  134loPI   C1A 2135   5.412   1.129   8.219 -0.0522  0.0905  0.0695
  134loPI   C2A 2136   5.350   1.321   7.918 -0.0094 -0.1359  0.0833
  134loPI   C3A 2137   5.370   1.687   7.811 -0.2059  0.0276  0.2097
  134loPI   C4A 2138   5.484   2.016   7.588  0.0490 -0.2526  0.2299
  134loPI   C5A 2139   5.541   1.964   7.137 -0.2837 -0.2162 -0.1951
  134loPI   C6A 2140   5.632   1.578   6.869 -0.1218  0.1145 -0.0593
  134loPI   C1B 2141   4.933   1.015   8.191 -0.0869 -0.0852 -0.2583
  134loPI   C2B 2142   5.022   0.948   7.637  0.1576 -0.1703 -0.2553
  134loPI   C3B 2143   4.767   0.683   7.517  0.2077  0.2135 -0.0081
  134loPI   C4B 2144   4.553   0.492   7.154  0.1862  0.0018 -0.1721
  135loPI    C1 2145   7.413   3.196   9.305  0.2029  0.0556 -0.1872
  135loPI    C2 2146   7.070   3.163   9.101  0.1720  0.0158 -0.1293
  135loPI    C3 2147   7.105   2.994   9.462  0.2674 -0.0170 -0.1537
  135loPI   PO4 2148   7.505   3.394   9.229  0.0716  0.0070 -0.0253
  135loPI   GL1 2149   7.429   3.524   8.735 -0.1031 -0.0684 -0.0558
  135loPI   GL2 2150   7.587   3.210   8.742  0.2435  0.1183 -0.1277
  135loPI   C1A 2151   7.416   3.486   8.300  0.2226  0.4998  0.0786
  135loPI   C2A 2152   7.438   3.554   7.874 -0.1754  0.0775 -0.1620
  135loPI   C3A 2153   7.542   3.614   7.477  0.0282  0.1782  0.1089
  135loPI   C4A 2154   7.890   3.553   7.101 -0.2107 -0.0449 -0.3243
  135loPI   C5A 2155   8.075   3.534   6.596  0.1448  0.1082 -0.0481
  135loPI   C6A 2156   8.298   3.539   6.128  0.0906  0.1956 -0.2727
  135loPI   C1B 2157   7.490   2.992   8.359  0.1527  0.0277 -0.0323
  135loPI   C2B 2158   7.264   3.060   7.973  0.0306  0.1865 -0.2791
  135loPI   C3B 2159   7.411   3.134   7.549  0.4073 -0.1586 -0.1791
  135loPI   C4B 2160   7.464   3.248   7.103 -0.2419  0.0795  0.0162
  136loPI    C1 2161   0.012   3.565   9.366  0.2242  0.1312  0.1220
  136loPI    C2 2162   0.294   3.520   9.646 -0.0110  0.0677  0.3529
  136loPI    C3 2163   0.027   3.229   9.583  0.0570  0.0695  0.0395
  136loPI   PO4 2164   0.141   3.714   9.149 -0.3841 -0.3212 -0.4804
  136loPI   GL1 2165   0.236   3.575   8.793 -0.2080 -0.1255  0.3264
  136loPI   GL2 2166   0.298   3.819   8.609  0.2056  0.1199 -0.0525
  136loPI   C1A 2167   0.151   3.385   8.342  0.0590 -0.4373 -0.2295
  136loPI   C2A 2168   0.286   3.398   8.016 -0.1382 -0.2035  0.0853
  136loPI   C3A 2169   0.564   3.601   7.843 -0.3256 -0.1165  0.1260
  136loPI   C4A 2170   0.478   3.799   7.394  0.0570  0.1946  0.0125
  136loPI   C5A 2171   0.606   4.210   7.108 -0.0017  0.0056  0.2439
  136loPI   C6A 2172   0.623   4.641   6.817  0.1495  0.1177 -0.0174
  136loPI   C1B 2173   0.657   3.573   8.317  0.1450  0.0708  0.1793
  136loPI   C2B 2174   0.984   3.629   8.014  0.2722 -0.1074 -0.1525
  136loPI   C3B 2175   0.979   3.529   7.512  0.2979  0.1400 -0.0569
  136loPI   C4B 2176   0.904   3.820   7.166 -0.0843  0.1224  0.1028
  137loPI    C1 2177  13.700  14.227   9.874 -0.2718 -0.0148  0.0940
  137loPI    C2 2178  13.960  13.933   9.955  0.0866  0.2214 -0.1649
  137loPI    C3 2179  13.907  14.232  10.217 -0.2394 -0.0381  0.0748
  137loPI   PO4 2180  13.518  14.046   9.702  0.1379 -0.0245  0.3949
  137loPI   GL1 2181  13.196  13.974   9.505 -0.0597 -0.0786 -0.1326
  137loPI   GL2 2182  12.990  14.280   9.418 -0.1092  0.1295  0.0905
  137loPI   C1A 2183  12.996  13.801   9.086 -0.0769 -0.0782  0.1702
  137loPI   C2A 2184  13.083  13.530   8.815  0.1033  0.3622 -0.0147
  137loPI   C3A 2185  13.103  13.560   8.387 -0.1655 -0.0171 -0.2187
  137loPI   C4A 2186  13.091  13.493   7.949 -0.1816  0.1602  0.2079
  137loPI   C5A 2187  13.119  13.470   7.519 -0.0937 -0.1088 -0.1150
  137loPI   C6A 2188  12.719  13.489   7.230 -0.1682  0.2508  0.2813
  137loPI   C1B 2189  12.888  14.372   8.944  0.0650  0.0359 -0.0776
  137loPI   C2B 2190  12.996  14.446   8.461  0.1384  0.1524  0.0248
  137loPI   C3B 2191  12.965  14.470   8.078  0.1755 -0.0290  0.2920
  137loPI   C4B 2192  12.917  14.441   7.678 -0.0845  0.0241  0.1725
  138loPI    C1 2193  16.648   8.894  10.062  0.1817  0.3039  0.0311
  138loPI    C2 2194  16.913   8.978  10.350  0.0648  0.0117  0.2290
  138loPI    C3 2195  16.648   9.255  10.235  0.2085  0.1792  0.2956
  138loPI   PO4 2196  16.815   8.780   9.841 -0.0797 -0.1695 -0.1628
  138loPI   GL1 2197  16.633   8.831   9.467 -0.1824  0.1442  0.0510
  138loPI   GL2 2198  16.732   8.553   9.255 -0.4124 -0.2827  0.1583
  138loPI   C1A 2199  16.579   9.115   9.105 -0.0380 -0.0079 -0.2576
  138loPI   C2A 2200  16.791   9.131   8.764  0.2698  0.1929 -0.1380
  138loPI   C3A 2201  17.049   8.898   8.499  0.0974 -0.1261  0.3808
  138loPI   C4A 2202  17.169   8.981   8.081 -0.0716  0.1131  0.0042
  138loPI   C5A 2203  17.057   9.053   7.622 -0.0756  0.1864  0.0233
  138loPI   C6A 2204  16.928   9.254   7.193 -0.1183  0.1140 -0.3843
  138loPI   C1B 2205  16.712   8.679   8.816 -0.0465  0.2030 -0.3157
  138loPI   C2B 2206  16.659   8.649   8.244  0.2628  0.2709  0.1107
  138loPI   C3B 2207  16.668   8.815   7.826 -0.1411  0.1183 -0.0831
  138loPI   C4B 2208  16.389   9.069   7.446 -0.2358 -0.2324  0.0004
  139loPI    C1 2209  12.822  13.394  10.158  0.0046 -0.0634  0.1752
  139loPI    C2 2210  12.785  13.721  10.386  0.2483  0.0286  0.0869
  139loPI    C3 2211  12.799  13.359  10.556  0.1850  0.0786  0.1997
  139loPI   PO4 2212  12.658  13.463   9.935 -0.0883  0.1980 -0.1508
  139loPI   GL1 2213  12.476  13.234   9.559  0.1357  0.0805 -0.2387
  139loPI   GL2 2214  12.267  13.086   9.324 -0.5585  0.0384 -0.2075
  139loPI   C1A 2215  12.663  13.299   9.140 -0.2716 -0.1000  0.1077
  139loPI   C2A 2216  12.582  13.233   8.680  0.1142 -0.0600 -0.0815
  139loPI   C3A 2217  12.341  13.054   8.301 -0.2897 -0.0431  0.0075
  139loPI   C4A 2218  12.295  13.158   7.913 -0.1721  0.0233 -0.2958
  139loPI   C5A 2219  12.258  13.329   7.518  0.0749  0.0056  0.4675
  139loPI   C6A 2220  12.275  13.355   7.015 -0.1792  0.0894  0.1030
  139loPI   C1B 2221  12.188  12.836   8.893 -0.0715  0.2677  0.1062
  139loPI   C2B 2222  12.136  12.652   8.583 -0.0151 -0.1328  0.0617
  139loPI   C3B 2223  12.127  12.626   8.123 -0.2817  0.0703 -0.1410
  139loPI   C4B 2224  12.007  12.810   7.712 -0.3092 -0.1039 -0.0693
  140loPI    C1 2225   8.752   2.221   9.545 -0.0287  0.0050  0.1121
  140loPI    C2 2226   8.955   1.979   9.790  0.1714  0.1995  0.1412
  140loPI    C3 2227   8.664   2.212   9.935  0.0115  0.0145  0.1214
  140loPI   PO4 2228   8.672   2.095   9.297  0.1529 -0.0181  0.0089
  140loPI   GL1 2229   8.939   2.065   8.937  0.3459 -0.1789 -0.2554
  140loPI   GL2 2230   8.851   1.788   8.897  0.0346 -0.0873 -0.0126
  140loPI   C1A 2231   8.658   2.317   8.685 -0.2230  0.2269 -0.2001
  140loPI   C2A 2232   8.569   2.131   8.280  0.2388  0.0727  0.2349
  140loPI   C3A 2233   8.594   1.781   7.880  0.0269 -0.2802 -0.1791
  140loPI   C4A 2234   8.747   1.906   7.394 -0.0039 -0.1928 -0.1214
  140loPI   C5A 2235   9.058   1.831   7.157 -0.2902 -0.1787 -0.1612
  140loPI   C6A 2236   9.363   2.007   7.132  0.0804  0.0444  0.0946
  140loPI   C1B 2237   8.519   1.811   8.665  0.2604  0.2659  0.1831
  140loPI   C2B 2238   8.235   1.600   8.221 -0.1210  0.1607 -0.2023
  140loPI   C3B 2239   8.130   1.576   7.794 -0.1813  0.1257  0.0552
  140loPI   C4B 2240   7.923   1.543   7.450  0.1736 -0.2576  0.1232
  141loPI    C1 2241  10.122  14.604  10.109 -0.0933 -0.1977  0.0648
  141loPI    C2 2242  10.164  14.292  10.355 -0.1869 -0.0761  0.2371
  141loPI    C3 2243   9.953  14.611  10.471 -0.0352  0.0806  0.0892
  141loPI   PO4 2244   9.979  14.673   9.880 -0.0404 -0.3490  0.0748
  141loPI   GL1 2245   9.683  14.926   9.761 -0.2045 -0.0465  0.4456
  141loPI   GL2 2246   9.510  15.201   9.795  0.3173  0.3171 -0.3027
  141loPI   C1A 2247   9.451  14.900   9.356 -0.2818  0.3110  0.1611
  141loPI   C2A 2248   9.400  14.934   8.986 -0.1533 -0.0139  0.0105
  141loPI   C3A 2249   9.519  15.017   8.533  0.0091  0.1701 -0.1201
  141loPI   C4A 2250   9.469  14.923   8.111  0.0402  0.1804 -0.1200
  141loPI   C5A 2251   9.655  14.480   7.861  0.1629  0.1880 -0.1339
  141loPI   C6A 2252   9.772  14.221   7.511  0.2046  0.0192 -0.0843
  141loPI   C1B 2253   9.601  15.371   9.360  0.0263  0.0523 -0.1444
  141loPI   C2B 2254   9.806  15.404   8.989  0.1921  0.0702  0.0490
  141loPI   C3B 2255   9.977  15.320   8.518  0.0398 -0.0197 -0.3610
  141loPI   C4B 2256  10.134  15.280   8.022  0.1150 -0.2227 -0.1367
  142loPI    C1 2257   4.344  15.771   9.595  0.0772 -0.0192  0.1205
  142loPI    C2 2258   4.395  16.103   9.812  0.2914  0.0617 -0.0502
  142loPI    C3 2259   4.030  15.942   9.776  0.2164  0.1751  0.1812
  142loPI   PO4 2260   4.464  15.790   9.291  0.0374 -0.3609  0.0605
  142loPI   GL1 2261   4.567  16.047   8.924  0.2389 -0.1227  0.0952
  142loPI   GL2 2262   4.537  15.796   8.744 -0.0186 -0.1193 -0.0807
  142loPI   C1A 2263   4.687  16.206   8.635  0.1355 -0.2508 -0.0431
  142loPI   C2A 2264   4.746  16.328   8.211 -0.4345  0.1428 -0.1372
  142loPI   C3A 2265   4.996  16.167   7.893  0.1488 -0.1864 -0.0660
  142loPI   C4A 2266   5.144  15.895   7.587 -0.2042 -0.0385  0.0353
  142loPI   C5A 2267   5.008  15.708   7.252  0.3738  0.1772 -0.1847
  142loPI   C6A 2268   5.262  15.584   6.831 -0.2872 -0.3592  0.2363
  142loPI   C1B 2269   4.723  15.746   8.332  0.1096  0.5320  0.1400
  142loPI   C2B 2270   4.672  15.814   7.882 -0.0763 -0.3004 -0.2096
  142loPI   C3B 2271   4.732  16.068   7.454  0.2550 -0.0430  0.0767
  142loPI   C4B 2272   4.572  16.219   7.099 -0.0818  0.0296  0.3553
  143loPI    C1 2273  12.813   7.416   9.828 -0.0210 -0.0347 -0.1456
  143loPI    C2 2274  12.887   7.101  10.064  0.1490  0.0714 -0.0555
  143loPI    C3 2275  12.582   7.347  10.147  0.2883  0.1838  0.1327
  143loPI   PO4 2276  12.862   7.335   9.616 -0.2663  0.1230 -0.1534
  143loPI   GL1 2277  12.956   7.178   9.165 -0.0661 -0.0653 -0.0185
  143loPI   GL2 2278  12.917   6.860   9.321  0.2255  0.0142  0.4634
  143loPI   C1A 2279  12.981   7.150   8.738 -0.3817  0.1380 -0.1040
  143loPI   C2A 2280  13.082   7.167   8.242 -0.0238  0.2726 -0.0360
  143loPI   C3A 2281  13.176   7.275   7.884 -0.2214 -0.0149  0.0145
  143loPI   C4A 2282  13.215   7.191   7.597 -0.1241 -0.0579  0.0517
  143loPI   C5A 2283  13.155   7.113   7.170  0.1027  0.0868 -0.1769
  143loPI   C6A 2284  13.306   6.939   6.764  0.0639  0.1300 -0.0900
  143loPI   C1B 2285  12.657   6.786   8.982 -0.0380 -0.0772  0.1530
  143loPI   C2B 2286  12.662   6.781   8.585  0.0722  0.0423  0.0845
  143loPI   C3B 2287  12.596   6.819   8.234  0.2320  0.1575 -0.0336
  143loPI   C4B 2288  12.762   7.013   7.861 -0.0424  0.1015  0.0280
  144loPI    C1 2289   2.617   2.399   9.529 -0.0669  0.1934 -0.0807
  144loPI    C2 2290   2.846   2.650   9.741  0.0424 -0.0304  0.0714
  144loPI    C3 2291   2.502   2.516   9.894  0.0986 -0.1558  0.0891
  144loPI   PO4 2292   2.624   2.515   9.213  0.1133 -0.0146 -0.0310
  144loPI   GL1 2293   2.255   2.395   8.969  0.1439 -0.2575  0.1518
  144loPI   GL2 2294   2.243   2.169   9.082  0.2938 -0.0279 -0.2097
  144loPI   C1A 2295   2.344   2.653   8.620 -0.0151  0.1318  0.1186
  144loPI   C2A 2296   2.312   2.942   8.354  0.1510 -0.1426 -0.4230
  144loPI   C3A 2297   2.359   3.158   7.993  0.1916 -0.0279  0.1325
  144loPI   C4A 2298   2.362   3.118   7.472  0.0070 -0.3149  0.1148
  144loPI   C5A 2299   2.250   3.376   7.097  0.2003 -0.1210 -0.0164
  144loPI   C6A 2300   1.785   3.382   6.872 -0.2493 -0.6803  0.0680
  144loPI   C1B 2301   1.919   2.033   8.787  0.3476 -0.2045 -0.0191
  144loPI   C2B 2302   1.879   2.247   8.348 -0.1034  0.0810  0.1725
  144loPI   C3B 2303   2.003   2.383   8.008  0.0260  0.2393  0.1754
  144loPI   C4B 2304   2.139   2.797   7.743  0.2205  0.2739 -0.0766
  145loPI    C1 2305   9.043  19.489   9.492  0.3341 -0.0266  0.0138
  145loPI    C2 2306   8.800  19.668   9.230  0.2149 -0.0376  0.1159
  145loPI    C3 2307   9.046  19.887   9.457  0.1115 -0.0063  0.1989
  145loPI   PO4 2308   9.204  19.280   9.277 -0.0403 -0.2581  0.0170
  145loPI   GL1 2309   9.434  19.353   9.003  0.1415  0.1768  0.0449
  145loPI   GL2 2310   9.472  19.117   8.827 -0.1118 -0.2429 -0.1699
  145loPI   C1A 2311   9.442  19.575   8.586 -0.0780 -0.0675  0.1078
  145loPI   C2A 2312   9.324  19.425   8.218  0.2686 -0.1766  0.2317
  145loPI   C3A 2313   9.393  19.120   7.879 -0.0316 -0.1821 -0.0903
  145loPI   C4A 2314   9.622  18.808   7.610 -0.1923 -0.1707 -0.2168
  145loPI   C5A 2315  10.041  18.729   7.309 -0.2484  0.0415  0.1653
  145loPI   C6A 2316  10.466  18.898   7.146  0.2669 -0.0246 -0.0573
  145loPI   C1B 2317   9.522  19.068   8.435 -0.0651 -0.1265 -0.1171
  145loPI   C2B 2318   9.788  18.854   8.087 -0.0885  0.0994  0.0943
  145loPI   C3B 2319  10.123  18.909   7.774  0.2325 -0.0416 -0.2422
  145loPI   C4B 2320  10.474  18.771   7.621  0.0133 -0.2751  0.0192
  146loPI    C1 2321   6.044   4.986   9.512  0.3508 -0.0830  0.0427
  146loPI    C2 2322   5.867   4.630   9.564 -0.0185  0.0845 -0.0331
  146loPI    C3 2323   6.012   4.830   9.879  0.0688 -0.0700  0.0258
  146loPI   PO4 2324   6.194   4.950   9.164 -0.0507  0.1532 -0.0931
  146loPI   GL1 2325   6.081   5.092   8.800  0.2384  0.0783 -0.1226
  146loPI   GL2 2326   5.874   5.251   8.994  0.0078  0.1748  0.1030
  146loPI   C1A 2327   6.132   5.088   8.404  0.0569  0.0993  0.0199
  146loPI   C2A 2328   6.055   5.035   7.930 -0.1814  0.1475  0.0513
  146loPI   C3A 2329   6.000   5.091   7.518  0.0376 -0.0210 -0.2121
  146loPI   C4A 2330   6.149   5.042   7.190  0.0831 -0.0193  0.0185
  146loPI   C5A 2331   6.341   5.095   6.810 -0.1776 -0.0038  0.0173
  146loPI   C6A 2332   6.133   5.005   6.427  0.2452 -0.1123  0.0823
  146loPI   C1B 2333   5.685   5.263   8.580 -0.0186 -0.1521 -0.2159
  146loPI   C2B 2334   5.706   5.318   8.036 -0.1383  0.0291 -0.3433
  146loPI   C3B 2335   5.701   5.587   7.686 -0.3395 -0.3197  0.1522
  146loPI   C4B 2336   5.830   5.775   7.251  0.2526  0.0268 -0.1642
  147loPI    C1 2337  19.575  14.304   9.489  0.1993 -0.0882  0.1541
  147loPI    C2 2338  19.843  14.336   9.194  0.0308  0.0769  0.0166
  147loPI    C3 2339  19.753  13.977   9.344 -0.1585 -0.0524 -0.3928
  147loPI   PO4 2340  19.430  14.499   9.502 -0.2630  0.0406  0.0151
  147loPI   GL1 2341  19.560  14.731   9.179 -0.1779  0.0581 -0.0482
  147loPI   GL2 2342  19.618  15.015   9.211  0.0652 -0.0452 -0.1258
  147loPI   C1A 2343  19.674  14.654   8.788 -0.1453 -0.0088 -0.4229
  147loPI   C2A 2344  19.955  14.425   8.578  0.0366  0.1711  0.0525
  147loPI   C3A 2345  20.076  14.546   8.116  0.0975  0.0974 -0.1749
  147loPI   C4A 2346  20.061  14.751   7.816 -0.0471 -0.0154 -0.1064
  147loPI   C5A 2347  20.436  14.738   7.589  0.0533 -0.1183  0.1605
  147loPI   C6A 2348  20.606  14.969   7.254  0.0889 -0.3277 -0.1692
  147loPI   C1B 2349  19.668  15.163   8.820  0.0715  0.1091  0.3390
  147loPI   C2B 2350  19.916  15.231   8.468  0.1407  0.1846  0.0419
  147loPI   C3B 2351  20.019  15.229   8.001 -0.2850  0.2883  0.2380
  147loPI   C4B 2352  20.186  15.173   7.699 -0.1650 -0.1558  0.0736
  148loPI    C1 2353  17.738  13.155   9.531 -0.1171  0.1516 -0.0193
  148loPI    C2 2354  18.113  13.064   9.633 -0.0491  0.3224 -0.1134
  148loPI    C3 2355  17.853  13.181   9.913 -0.0699  0.0799 -0.0282
  148loPI   PO4 2356  17.771  13.336   9.328  0.3108  0.3852 -0.3177
  148loPI   GL1 2357  18.130  13.537   8.998  0.0779 -0.0445  0.2237
  148loPI   GL2 2358  18.472  13.414   8.949 -0.0310 -0.1390 -0.0894
  148loPI   C1A 2359  18.080  13.868   8.629  0.1166  0.0678  0.1050
  148loPI   C2A 2360  18.058  14.074   8.253 -0.3704  0.0514  0.0451
  148loPI   C3A 2361  18.071  14.452   7.927 -0.1216 -0.1944  0.0754
  148loPI   C4A 2362  17.972  14.647   7.558 -0.1901  0.2512  0.0514
  148loPI   C5A 2363  18.304  14.616   7.252 -0.3468 -0.3683  0.0133
  148loPI   C6A 2364  18.779  14.628   7.084 -0.1228  0.1199  0.1249
  148loPI   C1B 2365  18.281  13.400   8.431  0.0188 -0.1725  0.1790
  148loPI   C2B 2366  18.254  13.640   8.097  0.2957  0.1788 -0.0736
  148loPI   C3B 2367  18.290  14.043   7.827 -0.3236  0.1197  0.1252
  148loPI   C4B 2368  18.515  14.350   7.575 -0.3159  0.1056 -0.2275
  149loPI    C1 2369  18.258  18.995   9.374 -0.1912 -0.0771  0.2394
  149loPI    C2 2370  18.642  18.885   9.370 -0.1109  0.1998  0.2103
  149loPI    C3 2371  18.433  18.867   9.710 -0.0227  0.2143  0.2654
  149loPI   PO4 2372  18.319  19.122   9.048  0.0412  0.2380 -0.0362
  149loPI   GL1 2373  18.136  19.144   8.649 -0.0718  0.0110 -0.0729
  149loPI   GL2 2374  17.868  19.289   8.796  0.0700 -0.0880 -0.2641
  149loPI   C1A 2375  17.913  19.243   8.248 -0.1890  0.0821  0.1245
  149loPI   C2A 2376  17.873  19.452   7.847 -0.2759  0.1449 -0.0189
  149loPI   C3A 2377  17.993  19.790   7.503 -0.0445  0.1941 -0.2767
  149loPI   C4A 2378  18.021  19.796   7.075  0.5435  0.0777  0.0757
  149loPI   C5A 2379  18.193  20.006   6.746 -0.0346  0.1511  0.1920
  149loPI   C6A 2380  18.443  20.414   6.769 -0.0014 -0.0743  0.0981
  149loPI   C1B 2381  17.452  19.431   8.525 -0.3012 -0.0952  0.0339
  149loPI   C2B 2382  17.397  19.487   8.048 -0.2332  0.1033 -0.2451
  149loPI   C3B 2383  17.441  19.405   7.604  0.0431  0.2690 -0.5153
  149loPI   C4B 2384  17.559  19.672   7.330 -0.0664  0.1103  0.2831
  150loPI    C1 2385   5.650   2.258   9.060  0.0036  0.1773 -0.1323
  150loPI    C2 2386   5.380   2.423   9.305 -0.0515 -0.0046 -0.0690
  150loPI    C3 2387   5.771   2.472   9.375 -0.0675  0.0794 -0.0379
  150loPI   PO4 2388   5.600   2.008   8.912 -0.2118  0.0690 -0.3114
  150loPI   GL1 2389   5.184   2.204   8.650  0.0013 -0.0471 -0.1423
  150loPI   GL2 2390   5.455   2.329   8.558  0.0881  0.1462 -0.3549
  150loPI   C1A 2391   4.940   2.086   8.328 -0.0914  0.1680 -0.1230
  150loPI   C2A 2392   5.029   2.097   7.885  0.1982 -0.1340 -0.2012
  150loPI   C3A 2393   4.915   2.263   7.486 -0.1769  0.0508 -0.0000
  150loPI   C4A 2394   4.796   2.293   6.953  0.1466  0.3635 -0.0620
  150loPI   C5A 2395   4.476   2.504   6.655 -0.3591 -0.1747 -0.0807
  150loPI   C6A 2396   4.074   2.677   6.592 -0.1461  0.1499 -0.1283
  150loPI   C1B 2397   5.247   2.461   8.125  0.0454  0.0953 -0.2375
  150loPI   C2B 2398   5.389   2.483   7.678 -0.1779  0.6939 -0.0705
  150loPI   C3B 2399   5.286   2.492   7.179 -0.3398  0.1181  0.3986
  150loPI   C4B 2400   5.268   2.208   6.786 -0.0483  0.0242  0.2685
  151loPI    C1 2401  18.724   7.723   9.610 -0.0310 -0.1450  0.1294
  151loPI    C2 2402  18.825   7.719   9.996 -0.0435  0.0503  0.1360
  151loPI    C3 2403  19.109   7.711   9.715 -0.0347 -0.0981  0.1484
  151loPI   PO4 2404  18.628   7.578   9.510  0.1256  0.1317 -0.2406
  151loPI   GL1 2405  18.663   7.608   9.055 -0.1850 -0.0148  0.0795
  151loPI   GL2 2406  19.065   7.588   9.242 -0.0705 -0.1289 -0.0085
  151loPI   C1A 2407  18.741   7.829   8.758 -0.1755  0.3068 -0.0875
  151loPI   C2A 2408  18.746   7.897   8.280 -0.1866 -0.3353  0.0186
  151loPI   C3A 2409  18.945   7.846   7.921 -0.0918  0.0587 -0.1051
  151loPI   C4A 2410  18.987   7.818   7.415 -0.2104  0.0031  0.2421
  151loPI   C5A 2411  18.825   7.617   7.103 -0.0473  0.0833 -0.2226
  151loPI   C6A 2412  18.726   7.458   6.759 -0.1499 -0.0226  0.3373
  151loPI   C1B 2413  19.226   7.546   8.888 -0.0525 -0.0114  0.2455
  151loPI   C2B 2414  19.075   7.560   8.557 -0.2106  0.1296 -0.1959
  151loPI   C3B 2415  19.314   7.894   8.264 -0.1050  0.2448  0.0296
  151loPI   C4B 2416  19.269   8.144   7.833  0.0986 -0.0852 -0.1767
  152loPI    C1 2417  18.461  14.763  10.236 -0.1213 -0.0972  0.1354
  152loPI    C2 2418  18.322  15.111  10.376  0.0690 -0.0600  0.2355
  152loPI    C3 2419  18.118  14.773  10.441 -0.1366  0.0373  0.1036
  152loPI   PO4 2420  18.539  14.822  10.002 -0.0042 -0.1581 -0.0412
  152loPI   GL1 2421  18.412  14.785   9.596 -0.2021  0.2747  0.3324
  152loPI   GL2 2422  18.583  14.679   9.271 -0.0139  0.2528  0.1505
  152loPI   C1A 2423  18.462  15.185   9.195 -0.0400  0.0449  0.1135
  152loPI   C2A 2424  18.347  15.355   8.799  0.0398 -0.0411 -0.0535
  152loPI   C3A 2425  18.345  15.476   8.449  0.4114  0.1749  0.4478
  152loPI   C4A 2426  18.083  15.544   7.983  0.0069 -0.3516 -0.0306
  152loPI   C5A 2427  17.896  15.610   7.627  0.0187 -0.4349 -0.0444
  152loPI   C6A 2428  17.852  15.963   7.360 -0.3484  0.2937  0.0220
  152loPI   C1B 2429  18.676  14.722   8.871  0.1450 -0.3646  0.2911
  152loPI   C2B 2430  18.828  14.740   8.431  0.0508  0.0430 -0.1370
  152loPI   C3B 2431  19.013  14.880   8.116 -0.3293  0.2591 -0.0849
  152loPI   C4B 2432  19.068  15.135   7.741  0.1742  0.0087  0.0764
  153loPI    C1 2433   9.208   3.782   9.118 -0.0861 -0.2429  0.0223
  153loPI    C2 2434   9.157   3.870   9.505  0.0670  0.3028 -0.0741
  153loPI    C3 2435   9.354   3.538   9.400 -0.1485  0.0462  0.3106
  153loPI   PO4 2436   9.087   4.081   8.944  0.2002  0.3124 -0.1353
  153loPI   GL1 2437   9.004   4.399   8.687 -0.0782 -0.0066 -0.0525
  153loPI   GL2 2438   8.698   4.177   8.589  0.0943 -0.0408 -0.1528
  153loPI   C1A 2439   9.129   4.625   8.374 -0.1885  0.0066 -0.2311
  153loPI   C2A 2440   9.273   4.782   7.974  0.1075 -0.3117  0.1176
  153loPI   C3A 2441   9.457   4.850   7.551 -0.0326  0.0944 -0.0622
  153loPI   C4A 2442   9.849   4.668   7.401  0.0494 -0.1471 -0.2538
  153loPI   C5A 2443  10.213   4.741   7.199  0.2045 -0.0513 -0.0844
  153loPI   C6A 2444  10.451   4.380   7.125  0.3218  0.0864  0.1043
  153loPI   C1B 2445   8.778   4.238   8.162  0.1798 -0.0552 -0.1601
  153loPI   C2B 2446   8.936   4.443   7.921  0.1076 -0.1003  0.0658
  153loPI   C3B 2447   8.965   4.643   7.599 -0.1388 -0.0586 -0.2093
  153loPI   C4B 2448   8.958   4.778   7.068  0.2339 -0.0088 -0.1321
  154loPI    C1 2449  11.601  17.943   9.722  0.1269  0.1002  0.3481
  154loPI    C2 2450  11.819  17.620   9.811 -0.0319 -0.1337 -0.0803
  154loPI    C3 2451  11.447  17.656   9.954 -0.0555 -0.1974 -0.1245
  154loPI   PO4 2452  11.709  17.934   9.448  0.1425 -0.0340 -0.2303
  154loPI   GL1 2453  11.434  17.921   9.156 -0.1799  0.1362 -0.0520
  154loPI   GL2 2454  11.668  18.216   9.033  0.4163 -0.1159  0.1746
  154loPI   C1A 2455  11.581  17.514   8.806  0.0111 -0.1204 -0.1335
  154loPI   C2A 2456  11.540  17.624   8.392 -0.1432 -0.1881  0.0750
  154loPI   C3A 2457  11.551  17.712   7.988 -0.2884  0.0503 -0.1176
  154loPI   C4A 2458  11.435  17.595   7.683 -0.0787 -0.3702 -0.2760
  154loPI   C5A 2459  11.409  17.178   7.413 -0.0385 -0.0148 -0.3637
  154loPI   C6A 2460  11.303  16.897   7.062  0.0113  0.1876 -0.2251
  154loPI   C1B 2461  11.599  18.140   8.598 -0.1959  0.1856  0.3380
  154loPI   C2B 2462  11.758  18.062   8.191  0.0444  0.1420 -0.0243
  154loPI   C3B 2463  12.011  18.229   7.915  0.0173 -0.1352  0.0644
  154loPI   C4B 2464  12.081  18.377   7.558 -0.1047  0.5091 -0.1011
  155loPI    C1 2465   1.045  18.261   9.431  0.1470 -0.1197 -0.1352
  155loPI    C2 2466   1.280  18.537   9.601 -0.0888  0.0344 -0.0547
  155loPI    C3 2467   1.019  18.331   9.824 -0.0750 -0.0916 -0.1536
  155loPI   PO4 2468   1.160  18.191   9.203  0.1236 -0.3356 -0.0683
  155loPI   GL1 2469   1.147  17.861   8.845  0.1201  0.1201  0.1445
  155loPI   GL2 2470   1.299  17.541   8.757  0.1692 -0.0580  0.3122
  155loPI   C1A 2471   1.114  17.893   8.413 -0.0685 -0.4764  0.0466
  155loPI   C2A 2472   1.052  17.957   8.036  0.3778  0.2200  0.0499
  155loPI   C3A 2473   1.047  18.011   7.605  0.0604  0.1439 -0.1834
  155loPI   C4A 2474   1.273  17.931   7.242  0.2943  0.0379  0.0602
  155loPI   C5A 2475   1.508  17.830   6.877 -0.2118  0.2211  0.1833
  155loPI   C6A 2476   1.736  17.421   6.830  0.3097 -0.0085  0.3479
  155loPI   C1B 2477   1.523  17.442   8.393  0.1755  0.1440 -0.1924
  155loPI   C2B 2478   1.387  17.434   8.004  0.0160  0.4030  0.0975
  155loPI   C3B 2479   1.202  17.478   7.637  0.0707 -0.0754 -0.1162
  155loPI   C4B 2480   1.198  17.482   7.186  0.0756  0.0136  0.2401
  156loPI    C1 2481   4.295  14.778   9.642 -0.0437 -0.1978 -0.1446
  156loPI    C2 2482   4.010  14.538   9.497 -0.2104 -0.0666 -0.0366
  156loPI    C3 2483   3.929  14.784   9.803 -0.0098  0.0451 -0.0717
  156loPI   PO4 2484   4.496  14.740   9.440  0.0283  0.1472  0.0455
  156loPI   GL1 2485   4.716  14.911   9.145  0.1207 -0.2128  0.4620
  156loPI   GL2 2486   4.935  14.794   9.064 -0.0932  0.1826  0.2959
  156loPI   C1A 2487   4.560  14.860   8.720  0.1258 -0.0962  0.1342
  156loPI   C2A 2488   4.392  14.601   8.326  0.1377 -0.4039 -0.0560
  156loPI   C3A 2489   4.548  14.412   7.953 -0.1032 -0.0130  0.0132
  156loPI   C4A 2490   4.601  14.350   7.554 -0.1521  0.0490 -0.0244
  156loPI   C5A 2491   4.972  14.428   7.301 -0.0550 -0.0676  0.0645
  156loPI   C6A 2492   5.050  14.707   7.022 -0.5191  0.2065 -0.1954
  156loPI   C1B 2493   5.039  14.978   8.569 -0.0181  0.1138  0.3442
  156loPI   C2B 2494   5.303  14.917   8.191  0.0856  0.0411  0.1308
  156loPI   C3B 2495   5.315  15.009   7.780 -0.0265  0.2077 -0.0625
  156loPI   C4B 2496   5.432  14.789   7.396 -0.1575 -0.0341  0.0499
  157loPI    C1 2497   3.124  15.041   9.910  0.1695  0.0279 -0.0326
  157loPI    C2 2498   3.156  15.368   9.682 -0.0995 -0.0025 -0.1176
  157loPI    C3 2499   3.282  15.375  10.061 -0.0111  0.1678 -0.1493
  157loPI   PO4 2500   3.253  14.816   9.667 -0.0679  0.0696 -0.0293
  157loPI   GL1 2501   3.572  14.665   9.415  0.1771 -0.0875  0.1691
  157loPI   GL2 2502   3.572  14.356   9.488 -0.1970  0.0962 -0.0808
  157loPI   C1A 2503   3.536  14.772   8.942  0.0735 -0.2117 -0.2932
  157loPI   C2A 2504   3.449  14.915   8.569 -0.0809  0.0288  0.0089
  157loPI   C3A 2505   3.451  14.920   8.045 -0.2339  0.2503  0.0987
  157loPI   C4A 2506   3.441  15.001   7.573  0.1102 -0.1854 -0.0969
  157loPI   C5A 2507   3.604  15.024   7.176  0.1670 -0.0207 -0.1028
  157loPI   C6A 2508   3.269  15.117   6.769 -0.0781  0.1527 -0.1939
  157loPI   C1B 2509   3.812  14.291   9.108 -0.0042 -0.1475  0.0938
  157loPI   C2B 2510   3.790  14.160   8.655  0.1848  0.0878 -0.2330
  157loPI   C3B 2511   3.638  13.777   8.341  0.1213  0.3210 -0.4111
  157loPI   C4B 2512   3.815  13.773   7.961 -0.4826 -0.1994  0.3204
  158loPI    C1 2513   1.677  14.700   9.756 -0.0602  0.2584  0.2336
  158loPI    C2 2514   2.018  14.767   9.955 -0.0257  0.0073  0.2620
  158loPI    C3 2515   1.751  14.506  10.098 -0.0510 -0.0925  0.0367
  158loPI   PO4 2516   1.731  14.599   9.481  0.1665 -0.0523 -0.1872
  158loPI   GL1 2517   1.579  14.437   9.092 -0.0467  0.0894 -0.0727
  158loPI   GL2 2518   1.472  14.683   8.985  0.1807  0.3241 -0.1936
  158loPI   C1A 2519   1.458  14.135   8.757  0.2576 -0.0047  0.0885
  158loPI   C2A 2520   1.340  14.118   8.378 -0.0141 -0.1353  0.0512
  158loPI   C3A 2521   1.365  14.125   7.969  0.1504  0.2637 -0.1107
  158loPI   C4A 2522   1.353  14.098   7.648 -0.1254  0.0356  0.2316
  158loPI   C5A 2523   1.308  14.160   7.224 -0.0446 -0.0802 -0.3371
  158loPI   C6A 2524   1.397  14.342   6.877 -0.2164  0.0090  0.3371
  158loPI   C1B 2525   1.779  14.489   8.627 -0.1111  0.0486 -0.2756
  158loPI   C2B 2526   1.685  14.448   8.176  0.0368  0.3283  0.3821
  158loPI   C3B 2527   1.806  14.443   7.726  0.1115 -0.0988  0.0119
  158loPI   C4B 2528   1.797  14.376   7.277 -0.0335  0.1411 -0.1033
  159loPI    C1 2529   4.110  15.244   9.900 -0.1171  0.0324 -0.2179
  159loPI    C2 2530   3.778  15.292  10.118  0.2520  0.1785  0.3317
  159loPI    C3 2531   4.041  15.006  10.214  0.1451 -0.1442 -0.2904
  159loPI   PO4 2532   4.060  15.376   9.647  0.4011  0.2421  0.1043
  159loPI   GL1 2533   3.984  15.008   9.321 -0.0045  0.2792  0.2041
  159loPI   GL2 2534   3.783  15.241   9.176 -0.2000 -0.1646 -0.1863
  159loPI   C1A 2535   4.080  14.736   9.015  0.0143 -0.0136  0.2187
  159loPI   C2A 2536   3.964  14.669   8.653  0.1377 -0.2927 -0.3892
  159loPI   C3A 2537   3.775  14.554   8.312 -0.2271  0.2690  0.1760
  159loPI   C4A 2538   3.669  14.210   8.116 -0.2040 -0.3645  0.0084
  159loPI   C5A 2539   3.605  14.133   7.660 -0.2377  0.3485  0.0578
  159loPI   C6A 2540   3.146  14.184   7.521  0.0021  0.1119 -0.0100
  159loPI   C1B 2541   3.640  15.286   8.871  0.0988 -0.2253  0.0305
  159loPI   C2B 2542   3.777  15.483   8.557  0.5430 -0.1715  0.0386
  159loPI   C3B 2543   3.781  15.512   8.216 -0.1039  0.0007  0.0788
  159loPI   C4B 2544   3.816  15.288   7.804  0.2034 -0.1563  0.0564
  160loPI    C1 2545  16.819   5.861  10.053 -0.0741  0.2615  0.0515
  160loPI    C2 2546  17.210   5.839  10.134 -0.0500  0.1054 -0.1039
  160loPI    C3 2547  16.958   5.986  10.407  0.0879  0.0005  0.0828
  160loPI   PO4 2548  16.733   6.052   9.844  0.0678  0.2065 -0.5838
  160loPI   GL1 2549  16.800   6.252   9.423 -0.0022  0.0234 -0.5364
  160loPI   GL2 2550  16.863   6.501   9.248  0.2422  0.0501 -0.1931
  160loPI   C1A 2551  16.837   6.018   9.064 -0.0571 -0.0571  0.0110
  160loPI   C2A 2552  17.110   5.979   8.681  0.1029 -0.0920  0.0828
  160loPI   C3A 2553  16.965   5.781   8.290 -0.1867  0.0891 -0.2058
  160loPI   C4A 2554  16.892   5.920   7.911 -0.3756  0.0331 -0.1327
  160loPI   C5A 2555  16.468   5.773   7.576 -0.1774 -0.0163  0.2053
  160loPI   C6A 2556  16.015   5.827   7.314 -0.0262  0.0282 -0.0765
  160loPI   C1B 2557  16.883   6.498   8.699 -0.0303 -0.1926 -0.2345
  160loPI   C2B 2558  16.762   6.696   8.422  0.3556  0.0825 -0.1662
  160loPI   C3B 2559  16.670   6.792   8.030  0.0699 -0.0925 -0.1298
  160loPI   C4B 2560  16.684   7.141   7.764 -0.2670 -0.0644 -0.0739
  161loPI    C1 2561   1.038  15.963   9.773  0.0152 -0.0273 -0.1736
  161loPI    C2 2562   0.667  16.008   9.914  0.1436  0.0557  0.1465
  161loPI    C3 2563   0.926  15.772  10.106  0.3237  0.1735  0.0510
  161loPI   PO4 2564   1.050  15.995   9.476 -0.2851 -0.1845  0.0208
  161loPI   GL1 2565   0.984  16.262   9.232  0.2454 -0.1329 -0.0324
  161loPI   GL2 2566   1.128  16.503   9.022 -0.1751  0.2995  0.2271
  161loPI   C1A 2567   0.667  16.203   8.907  0.1204  0.0935  0.0973
  161loPI   C2A 2568   0.627  16.287   8.506 -0.3068 -0.4438 -0.1308
  161loPI   C3A 2569   0.521  16.203   8.068  0.1158 -0.1388 -0.2914
  161loPI   C4A 2570   0.351  16.222   7.643  0.1022 -0.0243  0.2258
  161loPI   C5A 2571   0.209  16.199   7.261 -0.0990  0.0096 -0.3686
  161loPI   C6A 2572  -0.153  16.111   7.079 -0.2661 -0.1293 -0.2192
  161loPI   C1B 2573   1.007  16.612   8.628  0.1069 -0.2724  0.2112
  161loPI   C2B 2574   0.807  16.643   8.128  0.0986  0.2913  0.0850
  161loPI   C3B 2575   0.630  16.605   7.766 -0.1898  0.2492  0.0741
  161loPI   C4B 2576   0.624  16.484   7.207  0.4324 -0.0479  0.1445
  162loPI    C1 2577   1.129   7.618   9.762  0.0166  0.1339 -0.1924
  162loPI    C2 2578   1.085   7.985   9.608 -0.2432  0.1742 -0.0291
  162loPI    C3 2579   0.788   7.820   9.820 -0.0649 -0.0644  0.0399
  162loPI   PO4 2580   1.157   7.455   9.408  0.0716  0.3725 -0.1328
  162loPI   GL1 2581   1.332   7.469   8.977 -0.2298  0.1512  0.0983
  162loPI   GL2 2582   1.074   7.328   8.933 -0.0227  0.0294 -0.0473
  162loPI   C1A 2583   1.491   7.708   8.567 -0.0130 -0.2378  0.0647
  162loPI   C2A 2584   1.616   7.663   8.130  0.0815  0.0372 -0.2183
  162loPI   C3A 2585   1.563   7.670   7.715 -0.0164 -0.1743 -0.0196
  162loPI   C4A 2586   1.203   7.729   7.449 -0.2027 -0.0762  0.1500
  162loPI   C5A 2587   0.916   7.996   7.344  0.3507  0.0356  0.2106
  162loPI   C6A 2588   0.466   8.131   7.353 -0.3510  0.0908 -0.2279
  162loPI   C1B 2589   1.012   7.496   8.629  0.1073  0.0318  0.0345
  162loPI   C2B 2590   0.793   7.829   8.461 -0.0176  0.3306  0.1483
  162loPI   C3B 2591   0.466   8.184   8.430  0.0106  0.0906 -0.3728
  162loPI   C4B 2592   0.525   8.557   8.167 -0.1481 -0.3319  0.0083
  163loPI    C1 2593  18.759   0.042   9.280  0.1359  0.1253  0.1893
  163loPI    C2 2594  18.549   0.142   9.606 -0.0390  0.3080  0.0229
  163loPI    C3 2595  18.481   0.328   9.258  0.0460  0.0166 -0.1536
  163loPI   PO4 2596  18.690  -0.163   9.203 -0.2530  0.1001 -0.0420
  163loPI   GL1 2597  18.891  -0.259   8.774  0.0191 -0.1728 -0.0217
  163loPI   GL2 2598  18.791   0.057   8.746  0.2626  0.1498  0.0625
  163loPI   C1A 2599  18.719  -0.323   8.352 -0.1196  0.0394  0.1563
  163loPI   C2A 2600  18.691  -0.282   7.889  0.0744 -0.1998 -0.1928
  163loPI   C3A 2601  18.281  -0.360   7.670 -0.2976  0.1041  0.5895
  163loPI   C4A 2602  18.017  -0.280   7.337  0.1579 -0.0628  0.1158
  163loPI   C5A 2603  17.782  -0.307   6.962 -0.1051  0.0434 -0.3793
  163loPI   C6A 2604  17.297  -0.220   7.013  0.0770  0.2810  0.0887
  163loPI   C1B 2605  18.845   0.326   8.405  0.1033  0.1424  0.2129
  163loPI   C2B 2606  18.939   0.314   7.949  0.0244 -0.3177 -0.0835
  163loPI   C3B 2607  19.314   0.233   7.709  0.1982  0.3047  0.1347
  163loPI   C4B 2608  19.382   0.272   7.251 -0.2899  0.1819  0.1376
  164loPI    C1 2609   7.802   4.211   9.006  0.1330  0.0514 -0.1083
  164loPI    C2 2610   8.116   4.104   9.229 -0.0201 -0.0637  0.0555
  164loPI    C3 2611   7.745   4.061   9.372 -0.1148  0.0021 -0.1647
  164loPI   PO4 2612   7.771   4.054   8.774  0.0267  0.1688  0.0220
  164loPI   GL1 2613   7.509   4.051   8.581 -0.1972  0.1742  0.2390
  164loPI   GL2 2614   7.550   4.375   8.480  0.1876  0.2705 -0.2939
  164loPI   C1A 2615   7.514   4.042   8.115  0.1889 -0.0918 -0.1456
  164loPI   C2A 2616   7.618   4.280   7.849 -0.4560  0.0620  0.3410
  164loPI   C3A 2617   7.519   4.123   7.439 -0.3556 -0.0993  0.1178
  164loPI   C4A 2618   7.255   3.769   7.017  0.0413 -0.3396  0.1188
  164loPI   C5A 2619   7.545   3.514   6.673 -0.1782 -0.2459  0.1996
  164loPI   C6A 2620   7.590   3.536   6.202  0.2196  0.1560 -0.1644
  164loPI   C1B 2621   7.226   4.457   8.206  0.1843  0.1673  0.0487
  164loPI   C2B 2622   7.468   4.716   7.856 -0.0386 -0.2509  0.0842
  164loPI   C3B 2623   7.581   4.721   7.521  0.1118 -0.2942 -0.1575
  164loPI   C4B 2624   7.548   4.631   6.902  0.0366  0.1529  0.2690
  165loPI    C1 2625   2.543  18.501   9.336  0.0010 -0.0276 -0.0105
  165loPI    C2 2626   2.941  18.476   9.372  0.0237  0.1786 -0.1005
  165loPI    C3 2627   2.704  18.357   9.672  0.1493 -0.0407 -0.0865
  165loPI   PO4 2628   2.505  18.369   9.081  0.3116 -0.0589  0.0762
  165loPI   GL1 2629   2.487  18.222   8.660  0.1158 -0.0757  0.2240
  165loPI   GL2 2630   2.458  18.468   8.590  0.0049  0.1994 -0.1998
  165loPI   C1A 2631   2.627  18.049   8.285 -0.4394 -0.0658 -0.0116
  165loPI   C2A 2632   2.571  18.082   7.885 -0.0327 -0.2562 -0.1995
  165loPI   C3A 2633   2.474  18.189   7.445  0.2945  0.1185 -0.2246
  165loPI   C4A 2634   2.327  18.235   6.975  0.0571 -0.1810  0.1432
  165loPI   C5A 2635   2.119  18.081   6.645 -0.1712 -0.2940 -0.1437
  165loPI   C6A 2636   1.990  17.673   6.511 -0.1312  0.0979  0.0287
  165loPI   C1B 2637   2.486  18.516   8.120 -0.0599  0.4949 -0.1038
  165loPI   C2B 2638   2.777  18.547   7.751  0.0661  0.2134 -0.0102
  165loPI   C3B 2639   2.803  18.898   7.463  0.0204  0.0779 -0.1350
  165loPI   C4B 2640   2.781  19.251   7.265 -0.1047  0.0254  0.2287
  166loPI    C1 2641  15.369  16.671  10.108 -0.0809  0.0003  0.0673
  166loPI    C2 2642  15.732  16.740  10.261 -0.0732  0.2156 -0.0447
  166loPI    C3 2643  15.410  16.911  10.425 -0.1080  0.1436 -0.0369
  166loPI   PO4 2644  15.408  16.756   9.824  0.1053  0.2970 -0.0869
  166loPI   GL1 2645  15.368  16.532   9.375  0.0792  0.1021 -0.0794
  166loPI   GL2 2646  15.599  16.604   9.358 -0.2580  0.0484  0.1043
  166loPI   C1A 2647  15.194  16.696   9.000 -0.2790  0.0690  0.0518
  166loPI   C2A 2648  15.213  16.855   8.576 -0.1649  0.0175  0.2199
  166loPI   C3A 2649  15.154  16.876   8.125 -0.1343 -0.0436 -0.1708
  166loPI   C4A 2650  15.004  16.764   7.660  0.0051 -0.0183  0.1121
  166loPI   C5A 2651  14.913  16.744   7.280  0.4830  0.0750 -0.1116
  166loPI   C6A 2652  15.094  16.582   6.766  0.1985  0.1015 -0.4327
  166loPI   C1B 2653  15.834  16.252   9.201 -0.0240 -0.1550 -0.1711
  166loPI   C2B 2654  15.843  16.093   8.830  0.1603 -0.2600 -0.0626
  166loPI   C3B 2655  15.892  16.265   8.401 -0.1223  0.3453  0.0510
  166loPI   C4B 2656  16.235  16.401   8.186 -0.2821  0.0333 -0.2714
  167loPI    C1 2657  10.961   6.601   9.373  0.1240 -0.0643  0.0722
  167loPI    C2 2658  11.013   6.850   9.683  0.0438 -0.3236  0.2979
  167loPI    C3 2659  10.818   6.505   9.734 -0.1623 -0.2708 -0.0932
  167loPI   PO4 2660  11.169   6.720   9.229  0.2124 -0.0293  0.0540
  167loPI   GL1 2661  11.445   6.683   8.886 -0.0695 -0.0104 -0.0700
  167loPI   GL2 2662  11.388   6.473   8.661  0.0029 -0.3127  0.3060
  167loPI   C1A 2663  11.634   6.927   8.544  0.1906  0.2668 -0.2456
  167loPI   C2A 2664  11.720   7.084   8.125  0.0655  0.1098 -0.3091
  167loPI   C3A 2665  11.904   7.140   7.701  0.3009  0.1417 -0.0893
  167loPI   C4A 2666  11.999   7.209   7.210  0.0259 -0.0292  0.0984
  167loPI   C5A 2667  12.115   7.421   6.789  0.3917  0.0472 -0.0323
  167loPI   C6A 2668  12.471   7.385   6.494 -0.1932 -0.1518  0.0336
  167loPI   C1B 2669  11.450   6.486   8.303  0.2361 -0.0893 -0.0048
  167loPI   C2B 2670  11.477   6.642   7.945 -0.1465 -0.1604  0.2135
  167loPI   C3B 2671  11.618   6.745   7.584 -0.0441  0.0425  0.0445
  167loPI   C4B 2672  11.570   6.970   7.058  0.3398  0.0563  0.0871
  168loPI    C1 2673   0.345  12.662   9.666  0.1118  0.0366 -0.1851
  168loPI    C2 2674   0.350  12.894   9.992 -0.0448  0.0535 -0.1936
  168loPI    C3 2675   0.688  12.726   9.860 -0.0240 -0.1721  0.1330
  168loPI   PO4 2676   0.302  12.795   9.431 -0.1827 -0.0025  0.1410
  168loPI   GL1 2677   0.418  12.706   9.047 -0.2750  0.2204 -0.2736
  168loPI   GL2 2678   0.519  12.465   9.027 -0.1156 -0.0661  0.0964
  168loPI   C1A 2679   0.309  12.657   8.580 -0.0697  0.1018 -0.1711
  168loPI   C2A 2680   0.317  12.606   8.217 -0.1353  0.0763  0.4027
  168loPI   C3A 2681   0.386  12.733   7.767  0.2369 -0.0096 -0.0061
  168loPI   C4A 2682   0.314  12.982   7.298  0.5794  0.0424  0.2574
  168loPI   C5A 2683   0.014  13.158   7.041  0.2663 -0.0756  0.0375
  168loPI   C6A 2684  -0.299  12.978   6.691  0.0115  0.1976  0.1444
  168loPI   C1B 2685   0.287  12.165   8.618 -0.0328 -0.2052  0.2924
  168loPI   C2B 2686   0.328  12.089   8.103 -0.3038  0.1993 -0.0061
  168loPI   C3B 2687   0.300  12.218   7.768 -0.0953  0.1058 -0.0313
  168loPI   C4B 2688   0.562  11.980   7.423  0.0842  0.0131  0.0333
  169loPI    C1 2689   2.320  16.714   9.785 -0.3518  0.2678  0.2018
  169loPI    C2 2690   1.958  16.736   9.953 -0.2122 -0.0533  0.5598
  169loPI    C3 2691   2.278  16.655  10.178  0.0494 -0.0209  0.2075
  169loPI   PO4 2692   2.286  16.916   9.495  0.0629  0.0740 -0.0383
  169loPI   GL1 2693   2.602  16.944   9.135 -0.1138  0.2384  0.0686
  169loPI   GL2 2694   2.371  16.682   9.017 -0.1930  0.2162 -0.1736
  169loPI   C1A 2695   2.573  17.026   8.721 -0.2023  0.0286 -0.3249
  169loPI   C2A 2696   2.539  17.169   8.247  0.0521 -0.0857 -0.1375
  169loPI   C3A 2697   2.436  16.870   7.874 -0.2154  0.1245  0.4147
  169loPI   C4A 2698   2.448  16.632   7.428 -0.1994  0.1711  0.0745
  169loPI   C5A 2699   2.723  16.370   7.252 -0.0711  0.0606  0.1328
  169loPI   C6A 2700   2.763  16.181   6.913  0.0742  0.2207 -0.2303
  169loPI   C1B 2701   2.507  16.467   8.615  0.3191 -0.0164 -0.2276
  169loPI   C2B 2702   2.344  16.393   8.105 -0.2033  0.0631  0.1731
  169loPI   C3B 2703   2.274  16.254   7.696 -0.3301  0.0308 -0.4078
  169loPI   C4B 2704   1.992  16.213   7.211 -0.0749 -0.1334 -0.0409
  170loPI    C1 2705   2.503   8.720   9.798  0.2575 -0.2132  0.0944
  170loPI    C2 2706   2.234   8.598  10.067  0.2347  0.0102  0.1755
  170loPI    C3 2707   2.623   8.524  10.125  0.2043 -0.2007  0.1214
  170loPI   PO4 2708   2.420   8.725   9.531  0.1143 -0.1076  0.1331
  170loPI   GL1 2709   2.658   8.601   9.120  0.3392  0.0956  0.1379
  170loPI   GL2 2710   2.962   8.726   8.991  0.1860 -0.2406 -0.1455
  170loPI   C1A 2711   2.660   8.509   8.691 -0.3473 -0.0425 -0.0209
  170loPI   C2A 2712   2.721   8.519   8.154  0.3422  0.1090  0.1156
  170loPI   C3A 2713   2.912   8.491   7.788  0.2071 -0.0031 -0.2831
  170loPI   C4A 2714   3.046   8.308   7.491 -0.0252  0.0371 -0.2028
  170loPI   C5A 2715   2.952   8.417   7.070  0.0214 -0.0225 -0.1648
  170loPI   C6A 2716   3.104   8.592   6.587 -0.2534  0.3147  0.0120
  170loPI   C1B 2717   3.111   8.778   8.496  0.2954  0.3503  0.1845
  170loPI   C2B 2718   3.198   8.898   8.088  0.0603  0.0754 -0.1737
  170loPI   C3B 2719   3.152   8.839   7.576 -0.0624 -0.1723 -0.0939
  170loPI   C4B 2720   3.157   8.844   7.041 -0.1708  0.0438  0.2451
  171loPI    C1 2721  16.587  13.553   9.846  0.0697 -0.0220 -0.0284
  171loPI    C2 2722  16.847  13.254   9.791 -0.0201 -0.1093  0.0175
  171loPI    C3 2723  16.899  13.512  10.092  0.2090  0.0858 -0.1846
  171loPI   PO4 2724  16.477  13.551   9.660  0.1475 -0.0413  0.0473
  171loPI   GL1 2725  16.663  13.423   9.238  0.1287  0.1714 -0.1408
  171loPI   GL2 2726  16.857  13.448   9.082  0.0944 -0.2080  0.0042
  171loPI   C1A 2727  16.626  13.883   9.101  0.3296  0.0467  0.1707
  171loPI   C2A 2728  16.527  14.024   8.655  0.0559  0.0080 -0.1525
  171loPI   C3A 2729  16.259  14.007   8.290  0.0743  0.4218 -0.1141
  171loPI   C4A 2730  16.219  13.704   7.945 -0.0948 -0.1424  0.0111
  171loPI   C5A 2731  16.281  13.503   7.429 -0.0892 -0.1791 -0.0037
  171loPI   C6A 2732  16.360  13.132   7.189 -0.0238  0.0016 -0.1789
  171loPI   C1B 2733  16.878  13.593   8.728 -0.1390 -0.0552 -0.1955
  171loPI   C2B 2734  17.052  13.658   8.331  0.2282  0.1117 -0.0438
  171loPI   C3B 2735  17.241  13.566   7.963 -0.3616 -0.0780 -0.2501
  171loPI   C4B 2736  17.511  13.207   7.944  0.1314  0.0709  0.0119
  172loPI    C1 2737   1.108  19.138   9.356 -0.0236  0.1163 -0.1445
  172loPI    C2 2738   1.054  19.450   9.601  0.0143  0.0235 -0.0169
  172loPI    C3 2739   1.218  19.113   9.739 -0.0265 -0.0535 -0.1542
  172loPI   PO4 2740   0.940  19.121   9.224 -0.3941 -0.0241 -0.1298
  172loPI   GL1 2741   1.109  19.143   8.787 -0.1178 -0.0377 -0.1251
  172loPI   GL2 2742   0.964  19.451   8.748 -0.2398  0.0015 -0.0471
  172loPI   C1A 2743   1.271  18.953   8.362 -0.0288  0.2428 -0.0307
  172loPI   C2A 2744   1.390  18.951   7.995  0.4150 -0.0814  0.1467
  172loPI   C3A 2745   1.433  19.177   7.624  0.1419  0.3067 -0.0724
  172loPI   C4A 2746   1.410  19.272   7.187  0.0152 -0.0573 -0.2662
  172loPI   C5A 2747   1.660  19.186   6.841 -0.0179  0.1472 -0.2174
  172loPI   C6A 2748   1.975  19.014   6.817 -0.2627  0.2073 -0.3208
  172loPI   C1B 2749   1.064  19.409   8.352 -0.0398 -0.1144 -0.1740
  172loPI   C2B 2750   1.025  19.336   7.908  0.0517  0.1025 -0.1821
  172loPI   C3B 2751   1.003  19.448   7.419  0.1974  0.2841 -0.0253
  172loPI   C4B 2752   0.920  19.726   6.997 -0.0718 -0.2789  0.0529
  173loPI    C1 2753  16.070  19.189   9.504 -0.3473  0.1089 -0.0304
  173loPI    C2 2754  15.821  19.440   9.690 -0.0232  0.2438  0.2309
  173loPI    C3 2755  16.217  19.480   9.736  0.0469 -0.0253 -0.1029
  173loPI   PO4 2756  15.897  18.965   9.525 -0.1067  0.1385 -0.0119
  173loPI   GL1 2757  15.861  18.733   9.214 -0.3294  0.0763 -0.0632
  173loPI   GL2 2758  15.993  18.503   9.149 -0.2135 -0.0997 -0.0260
  173loPI   C1A 2759  15.681  18.626   8.747 -0.1009 -0.1421 -0.0811
  173loPI   C2A 2760  15.739  18.684   8.238 -0.1495  0.3141 -0.2179
  173loPI   C3A 2761  15.826  18.828   7.763 -0.1192  0.1177  0.1085
  173loPI   C4A 2762  15.754  19.044   7.373 -0.1316 -0.0050 -0.3606
  173loPI   C5A 2763  15.366  18.968   7.233 -0.1665 -0.0806 -0.4173
  173loPI   C6A 2764  14.952  18.946   6.988 -0.0439  0.1240 -0.2825
  173loPI   C1B 2765  16.156  18.439   8.741 -0.0391 -0.1577  0.1185
  173loPI   C2B 2766  16.151  18.376   8.333 -0.0083 -0.2538  0.3593
  173loPI   C3B 2767  16.069  18.406   7.846 -0.1916 -0.0024 -0.2161
  173loPI   C4B 2768  16.172  18.146   7.407  0.2434 -0.1564  0.4409
  174loPI    C1 2769   6.588   0.760   9.368  0.0877  0.0823  0.1296
  174loPI    C2 2770   6.553   0.934   9.727 -0.2625 -0.2978  0.2879
  174loPI    C3 2771   6.677   0.554   9.699 -0.2396 -0.2721  0.0045
  174loPI   PO4 2772   6.342   0.830   9.224  0.3710  0.2636  0.1151
  174loPI   GL1 2773   6.125   0.927   8.701 -0.2790  0.3616 -0.0078
  174loPI   GL2 2774   6.277   1.251   8.787  0.0332 -0.0909 -0.0430
  174loPI   C1A 2775   5.764   0.793   8.299 -0.4277 -0.2537  0.1289
  174loPI   C2A 2776   5.452   0.697   7.912 -0.2130  0.0247 -0.0013
  174loPI   C3A 2777   5.119   0.436   7.680  0.2882 -0.0452  0.0742
  174loPI   C4A 2778   5.055   0.433   7.224  0.3969  0.2850 -0.1866
  174loPI   C5A 2779   5.378   0.401   6.953  0.0499  0.0738  0.4261
  174loPI   C6A 2780   5.762   0.338   7.092 -0.2012 -0.0420  0.0412
  174loPI   C1B 2781   6.363   1.314   8.356 -0.1230 -0.1891  0.0999
  174loPI   C2B 2782   6.379   1.373   7.917 -0.2528 -0.1119  0.0316
  174loPI   C3B 2783   6.215   1.461   7.526 -0.0760 -0.1683 -0.2182
  174loPI   C4B 2784   6.063   1.478   7.080  0.0493  0.1369 -0.0743
  175loPI    C1 2785  10.777   4.170   9.124 -0.0346  0.0882 -0.1526
  175loPI    C2 2786  10.853   4.562   9.144 -0.0663  0.0807  0.1682
  175loPI    C3 2787  10.914   4.330   9.464  0.0321 -0.1922 -0.0445
  175loPI   PO4 2788  10.834   4.130   8.918  0.2194 -0.1005 -0.0601
  175loPI   GL1 2789  11.073   4.204   8.579 -0.2635 -0.1842 -0.0117
  175loPI   GL2 2790  10.933   3.988   8.319 -0.0129 -0.1456 -0.2594
  175loPI   C1A 2791  11.449   4.085   8.289 -0.1642 -0.1899  0.0948
  175loPI   C2A 2792  11.455   4.026   7.825  0.4229  0.1247 -0.1482
  175loPI   C3A 2793  11.650   4.076   7.396  0.0108 -0.1143  0.1100
  175loPI   C4A 2794  11.868   4.045   6.986 -0.0340 -0.0703 -0.1641
  175loPI   C5A 2795  12.108   3.857   6.639 -0.0523 -0.0347 -0.0252
  175loPI   C6A 2796  12.439   3.762   6.562 -0.0189  0.2029  0.1786
  175loPI   C1B 2797  11.023   4.286   7.903  0.0758  0.3309  0.0061
  175loPI   C2B 2798  11.224   4.361   7.499 -0.0793 -0.3229  0.1061
  175loPI   C3B 2799  11.422   4.328   7.068 -0.2434 -0.2413 -0.0195
  175loPI   C4B 2800  11.287   4.219   6.665 -0.0367 -0.1596 -0.1721
  176loPI    C1 2801  17.308   6.186   9.616 -0.1205  0.0023 -0.1606
  176loPI    C2 2802  17.148   6.372   9.931 -0.4265  0.0077 -0.3154
  176loPI    C3 2803  17.201   6.570   9.588  0.4681  0.1793 -0.1013
  176loPI   PO4 2804  17.369   5.890   9.649 -0.2479 -0.2017 -0.0868
  176loPI   GL1 2805  17.518   5.744   9.263 -0.1137  0.0375 -0.0319
  176loPI   GL2 2806  17.266   5.787   9.093 -0.3315  0.0953 -0.0926
  176loPI   C1A 2807  17.746   5.735   8.910  0.0793 -0.0735  0.3371
  176loPI   C2A 2808  17.663   5.967   8.573 -0.1356  0.4350  0.0771
  176loPI   C3A 2809  17.823   6.213   8.112  0.0317 -0.1462 -0.0358
  176loPI   C4A 2810  17.923   6.389   7.713 -0.2538 -0.0562  0.0633
  176loPI   C5A 2811  18.048   6.581   7.411 -0.0265  0.0541  0.1287
  176loPI   C6A 2812  18.368   6.749   7.233  0.0596 -0.0160 -0.2451
  176loPI   C1B 2813  17.396   5.515   8.642  0.0938 -0.3487 -0.2775
  176loPI   C2B 2814  17.346   5.440   8.221  0.1236 -0.2778  0.2575
  176loPI   C3B 2815  17.567   5.408   7.798  0.4826  0.1683  0.4971
  176loPI   C4B 2816  17.877   5.425   7.527  0.1969 -0.1375  0.1536
  177loPI    C1 2817   9.038   3.292   8.944  0.0088 -0.0624 -0.2097
  177loPI    C2 2818   8.909   3.271   9.322  0.0628  0.0165 -0.1866
  177loPI    C3 2819   8.669   3.416   9.036  0.0762  0.1009 -0.1554
  177loPI   PO4 2820   9.332   3.316   8.935  0.1516 -0.0061  0.1379
  177loPI   GL1 2821   9.381   3.556   8.632 -0.4604  0.0926 -0.0429
  177loPI   GL2 2822   9.284   3.737   8.418  0.3192  0.4048 -0.0760
  177loPI   C1A 2823   9.447   3.361   8.152 -0.0867  0.1781  0.1636
  177loPI   C2A 2824   9.687   3.099   7.900  0.1192  0.0306  0.0594
  177loPI   C3A 2825   9.929   2.893   7.637  0.1265 -0.0341  0.1575
  177loPI   C4A 2826  10.189   2.907   7.247 -0.2368 -0.0900  0.1151
  177loPI   C5A 2827  10.121   3.014   6.774  0.0954  0.1069  0.1716
  177loPI   C6A 2828  10.364   3.135   6.533 -0.0541 -0.1047  0.1379
  177loPI   C1B 2829   9.147   3.976   8.035  0.1694  0.0115 -0.0618
  177loPI   C2B 2830   9.083   4.004   7.611  0.1728  0.2341  0.1454
  177loPI   C3B 2831   9.117   4.191   7.387  0.1772 -0.0674  0.0554
  177loPI   C4B 2832   9.343   4.474   7.280 -0.1954  0.1090  0.2677
  178loPI    C1 2833   9.931   9.372   9.501 -0.3924 -0.2199  0.1142
  178loPI    C2 2834   9.891   9.166   9.842  0.3366 -0.0190  0.3405
  178loPI    C3 2835  10.001   9.551   9.852 -0.0534  0.1148 -0.1154
  178loPI   PO4 2836  10.121   9.354   9.288 -0.4277 -0.0176  0.2649
  178loPI   GL1 2837  10.232   8.985   8.972  0.0587 -0.5082  0.0464
  178loPI   GL2 2838   9.970   9.230   8.863 -0.2262  0.0893 -0.0532
  178loPI   C1A 2839  10.155   8.916   8.518 -0.1835 -0.1570 -0.2601
  178loPI   C2A 2840  10.196   8.910   8.001  0.0380  0.0476 -0.3076
  178loPI   C3A 2841  10.137   8.881   7.583 -0.1826  0.0502 -0.0944
  178loPI   C4A 2842  10.054   9.171   7.283 -0.1381 -0.1165 -0.3862
  178loPI   C5A 2843   9.763   9.465   7.206 -0.1131  0.3686 -0.3477
  178loPI   C6A 2844   9.670   9.616   6.804  0.2460  0.0373  0.3201
  178loPI   C1B 2845   9.819   9.426   8.430  0.0748 -0.1717 -0.2663
  178loPI   C2B 2846   9.847   9.366   8.044  0.2856 -0.3730  0.0574
  178loPI   C3B 2847  10.010   9.569   7.649  0.2108 -0.2054 -0.0275
  178loPI   C4B 2848   9.977   9.884   7.274  0.1369  0.1034 -0.0276
  179loPI    C1 2849  14.665   0.777   9.574  0.0543 -0.1842  0.0351
  179loPI    C2 2850  14.664   0.415   9.743  0.1496 -0.1381  0.1353
  179loPI    C3 2851  14.760   0.737   9.960  0.0909 -0.0558  0.0398
  179loPI   PO4 2852  14.727   0.793   9.347 -0.0368 -0.1077  0.0726
  179loPI   GL1 2853  14.602   0.518   9.086  0.1341 -0.1646  0.1254
  179loPI   GL2 2854  14.826   0.484   8.965 -0.0355  0.1598 -0.0563
  179loPI   C1A 2855  14.584   0.853   8.789 -0.2052  0.1184 -0.4203
  179loPI   C2A 2856  14.553   0.824   8.421 -0.1631 -0.1874 -0.0552
  179loPI   C3A 2857  14.638   0.857   8.083 -0.3143  0.2290 -0.1945
  179loPI   C4A 2858  14.679   0.773   7.577  0.4808 -0.2015 -0.0003
  179loPI   C5A 2859  14.571   0.617   7.195 -0.1981  0.6234  0.0630
  179loPI   C6A 2860  14.850   0.297   7.009  0.2533 -0.3614  0.0126
  179loPI   C1B 2861  14.558   0.340   8.661  0.0359  0.2685  0.1845
  179loPI   C2B 2862  14.358   0.248   8.212  0.0602  0.4396  0.3460
  179loPI   C3B 2863  14.343  -0.034   7.942 -0.0285 -0.2403  0.0730
  179loPI   C4B 2864  14.019  -0.253   7.652  0.1215 -0.3221  0.1310
  180loPI    C1 2865  12.105  15.555  10.333 -0.1240  0.2284  0.0717
  180loPI    C2 2866  12.420  15.721  10.515 -0.1294  0.0599  0.2367
  180loPI    C3 2867  12.147  15.521  10.729 -0.1096 -0.1831  0.0391
  180loPI   PO4 2868  12.111  15.452  10.055 -0.0135  0.4291  0.2392
  180loPI   GL1 2869  12.329  15.275   9.739  0.2397 -0.1091 -0.0191
  180loPI   GL2 2870  12.247  15.058   9.582  0.0217 -0.0509 -0.1008
  180loPI   C1A 2871  12.255  15.536   9.313  0.0055 -0.0427 -0.4653
  180loPI   C2A 2872  12.131  15.611   8.870 -0.0692 -0.0921  0.1097
  180loPI   C3A 2873  11.996  15.730   8.522  0.4633 -0.0017  0.0765
  180loPI   C4A 2874  11.933  15.667   8.093  0.0039 -0.0635 -0.3121
  180loPI   C5A 2875  11.827  15.566   7.617 -0.0168 -0.1495  0.1312
  180loPI   C6A 2876  11.445  15.536   7.345  0.0712  0.0214 -0.0272
  180loPI   C1B 2877  12.220  15.033   9.154  0.1043  0.1867  0.0837
  180loPI   C2B 2878  12.391  15.163   8.786 -0.1353 -0.3955  0.0809
  180loPI   C3B 2879  12.337  15.239   8.357  0.2345 -0.2767 -0.0578
  180loPI   C4B 2880  12.388  15.286   7.838  0.0857  0.2121  0.0386
  181loPI    C1 2881  17.740  11.956   9.142  0.0403  0.1500  0.0411
  181loPI    C2 2882  17.864  11.760   9.468 -0.1866 -0.0504  0.0099
  181loPI    C3 2883  18.047  12.097   9.356  0.0568 -0.1169  0.1983
  181loPI   PO4 2884  17.458  11.883   9.177 -0.2886  0.1155 -0.2373
  181loPI   GL1 2885  17.186  11.585   9.007  0.1825 -0.1545  0.1855
  181loPI   GL2 2886  16.811  11.556   9.029 -0.4985 -0.4411 -0.1281
  181loPI   C1A 2887  17.184  11.434   8.592 -0.2304 -0.1487  0.0588
  181loPI   C2A 2888  16.980  11.426   8.184 -0.2946 -0.0359 -0.1760
  181loPI   C3A 2889  17.027  11.328   7.790 -0.0575  0.2912  0.0640
  181loPI   C4A 2890  17.037  11.291   7.367 -0.1789  0.3643  0.1364
  181loPI   C5A 2891  17.222  11.186   7.063  0.0694 -0.1742  0.2511
  181loPI   C6A 2892  17.030  11.237   6.702 -0.2291 -0.0602  0.3341
  181loPI   C1B 2893  16.693  11.580   8.589  0.0181 -0.0482 -0.2681
  181loPI   C2B 2894  16.401  11.600   8.293 -0.1016 -0.3125 -0.0225
  181loPI   C3B 2895  16.477  11.497   7.973  0.0810  0.2532 -0.0518
  181loPI   C4B 2896  16.616  11.480   7.552 -0.2223 -0.3147 -0.3258
  182loPI    C1 2897   0.440  13.833   9.708  0.1101 -0.1223  0.1175
  182loPI    C2 2898   0.123  14.018   9.868 -0.1026 -0.3010 -0.0902
  182loPI    C3 2899   0.408  14.231   9.685 -0.1914 -0.1537 -0.0578
  182loPI   PO4 2900   0.414  13.626   9.559  0.0966  0.3250  0.0069
  182loPI   GL1 2901   0.371  13.365   9.164 -0.0163  0.0929  0.1242
  182loPI   GL2 2902   0.145  13.237   8.943 -0.1329  0.0863 -0.1962
  182loPI   C1A 2903   0.492  13.790   8.925 -0.2018  0.0251  0.4472
  182loPI   C2A 2904   0.534  13.940   8.516 -0.0559  0.1695 -0.0167
  182loPI   C3A 2905   0.522  14.077   8.109  0.2485  0.1821  0.3088
  182loPI   C4A 2906   0.198  14.183   7.838 -0.0613  0.3338  0.0775
  182loPI   C5A 2907  -0.131  14.213   7.546  0.0803  0.0835  0.1571
  182loPI   C6A 2908  -0.617  14.178   7.280 -0.0654 -0.0663  0.2161
  182loPI   C1B 2909   0.117  13.140   8.470  0.1409 -0.5113 -0.1523
  182loPI   C2B 2910   0.128  13.105   8.067  0.4221 -0.1058  0.4847
  182loPI   C3B 2911   0.118  13.193   7.762 -0.1720  0.1794  0.0626
  182loPI   C4B 2912  -0.252  13.158   7.463  0.0997 -0.1453 -0.0563
  183loPI    C1 2913   0.696  17.811   9.632 -0.1078 -0.1962  0.1149
  183loPI    C2 2914   0.633  17.571   9.946  0.0136 -0.2749  0.0800
  183loPI    C3 2915   1.001  17.706   9.869 -0.0655 -0.0192  0.1401
  183loPI   PO4 2916   0.540  17.754   9.372  0.2739 -0.3091  0.1907
  183loPI   GL1 2917   0.583  17.834   9.036 -0.2427 -0.0363  0.5258
  183loPI   GL2 2918   0.584  17.989   8.766 -0.0513  0.1530 -0.0121
  183loPI   C1A 2919   0.801  17.515   8.724 -0.2456 -0.0597 -0.4996
  183loPI   C2A 2920   0.882  17.421   8.304 -0.2632 -0.0831  0.3126
  183loPI   C3A 2921   0.840  17.493   7.934 -0.0841 -0.1979 -0.1964
  183loPI   C4A 2922   0.670  17.637   7.503 -0.1154 -0.0194  0.3225
  183loPI   C5A 2923   0.715  17.311   7.146 -0.1518  0.0854 -0.2745
  183loPI   C6A 2924   0.842  16.859   6.793 -0.2010  0.0230  0.0958
  183loPI   C1B 2925   0.620  17.848   8.351 -0.1599 -0.1463 -0.0174
  183loPI   C2B 2926   0.528  17.928   7.925 -0.0936 -0.3837 -0.1403
  183loPI   C3B 2927   0.310  18.018   7.497 -0.0285 -0.3829 -0.1862
  183loPI   C4B 2928   0.258  18.113   7.159  0.1636 -0.1082 -0.0155
  184loPI    C1 2929   5.439  17.326   9.569  0.3218 -0.1592 -0.1793
  184loPI    C2 2930   5.349  17.296   9.958  0.0450 -0.2379 -0.2469
  184loPI    C3 2931   5.644  17.538   9.839 -0.2989  0.2988 -0.0435
  184loPI   PO4 2932   5.205  17.194   9.468  0.0148 -0.0317 -0.4041
  184loPI   GL1 2933   5.036  17.180   9.020  0.3162  0.1093 -0.2604
  184loPI   GL2 2934   4.744  17.317   8.872  0.2036 -0.0974 -0.1781
  184loPI   C1A 2935   5.207  17.154   8.611 -0.1194 -0.0346 -0.0918
  184loPI   C2A 2936   5.026  17.182   8.136 -0.1764 -0.1027 -0.0637
  184loPI   C3A 2937   5.064  17.254   7.644  0.3961 -0.0183  0.3073
  184loPI   C4A 2938   4.977  17.136   7.258  0.1413 -0.1236 -0.1659
  184loPI   C5A 2939   4.984  17.155   6.898 -0.4186 -0.1547  0.0445
  184loPI   C6A 2940   4.779  17.013   6.670 -0.1122 -0.3192  0.4372
  184loPI   C1B 2941   4.667  17.390   8.356  0.0100 -0.2480  0.0046
  184loPI   C2B 2942   4.434  17.383   7.940 -0.0621 -0.0363 -0.2739
  184loPI   C3B 2943   4.125  17.418   7.601 -0.2561  0.2257  0.3604
  184loPI   C4B 2944   3.922  17.311   7.076  0.1052  0.1996 -0.0695
  185loPI    C1 2945   1.790   1.181   9.599  0.5291 -0.1683  0.0225
  185loPI    C2 2946   1.570   0.877   9.460  0.2221  0.0604 -0.0027
  185loPI    C3 2947   1.681   0.885   9.844 -0.0268  0.0633  0.0710
  185loPI   PO4 2948   1.671   1.400   9.408 -0.2921  0.0597  0.0465
  185loPI   GL1 2949   1.659   1.518   8.958 -0.0907  0.0382 -0.0491
  185loPI   GL2 2950   1.796   1.238   8.954  0.0213 -0.1152 -0.1781
  185loPI   C1A 2951   1.420   1.379   8.617 -0.0245 -0.0514 -0.0481
  185loPI   C2A 2952   1.163   1.634   8.305  0.3337  0.1443 -0.0360
  185loPI   C3A 2953   1.291   1.747   7.875  0.1404  0.0380  0.2201
  185loPI   C4A 2954   1.309   1.523   7.439  0.3904 -0.3631  0.2218
  185loPI   C5A 2955   1.510   1.570   7.028 -0.2400  0.0515 -0.1455
  185loPI   C6A 2956   1.344   1.770   6.737  0.2278 -0.1137 -0.1211
  185loPI   C1B 2957   2.031   1.300   8.592  0.0867 -0.0631 -0.2450
  185loPI   C2B 2958   1.902   1.269   8.268  0.2627 -0.1167  0.1400
  185loPI   C3B 2959   1.648   1.312   8.036 -0.0079  0.0677 -0.0392
  185loPI   C4B 2960   1.560   1.066   7.652 -0.1397  0.0083 -0.0404
  186loPI    C1 2961   2.019   3.655   9.603  0.4490  0.1229 -0.2447
  186loPI    C2 2962   2.181   3.346   9.799  0.2091  0.1518  0.0060
  186loPI    C3 2963   2.306   3.719   9.874  0.3713  0.1327 -0.1639
  186loPI   PO4 2964   1.969   3.573   9.316 -0.0316  0.0266 -0.1372
  186loPI   GL1 2965   1.890   3.742   8.974 -0.1316  0.1263 -0.2360
  186loPI   GL2 2966   1.536   3.659   8.738  0.0246 -0.0274 -0.0465
  186loPI   C1A 2967   1.967   3.803   8.548 -0.0568  0.0506 -0.2810
  186loPI   C2A 2968   2.182   3.979   8.299  0.2562  0.3418  0.1231
  186loPI   C3A 2969   2.178   4.278   8.014 -0.3554  0.1244  0.1655
  186loPI   C4A 2970   2.072   4.524   7.637 -0.1290 -0.1428 -0.1605
  186loPI   C5A 2971   1.971   4.727   7.283 -0.0692 -0.1643  0.1692
  186loPI   C6A 2972   2.141   5.166   7.025  0.4489 -0.2792 -0.2953
  186loPI   C1B 2973   1.370   3.580   8.349  0.1708 -0.1139 -0.1978
  186loPI   C2B 2974   1.386   3.284   8.070  0.2131  0.1070 -0.0172
  186loPI   C3B 2975   1.422   3.376   7.586 -0.0205  0.5463 -0.0931
  186loPI   C4B 2976   1.357   3.497   7.204  0.3472 -0.1505 -0.1319
  187loPI    C1 2977  17.422   0.981   9.394  0.1531  0.0439 -0.0319
  187loPI    C2 2978  17.450   1.243   9.695 -0.0981 -0.1695  0.1819
  187loPI    C3 2979  17.339   0.866   9.768  0.0770 -0.2886 -0.1478
  187loPI   PO4 2980  17.469   1.090   9.203 -0.1400 -0.1481 -0.1133
  187loPI   GL1 2981  17.548   1.350   8.881 -0.3222 -0.3378 -0.3588
  187loPI   GL2 2982  17.778   1.456   8.730 -0.0876  0.1537 -0.4470
  187loPI   C1A 2983  17.478   1.505   8.339  0.3021  0.2031  0.1080
  187loPI   C2A 2984  17.451   1.350   7.923  0.2506  0.0701  0.2573
  187loPI   C3A 2985  17.566   1.188   7.519 -0.3291  0.0595  0.0370
  187loPI   C4A 2986  17.804   1.184   7.170 -0.2533  0.1235 -0.2431
  187loPI   C5A 2987  18.228   1.206   6.936  0.0006 -0.0333  0.0020
  187loPI   C6A 2988  18.239   1.331   6.567  0.4760 -0.3085  0.1412
  187loPI   C1B 2989  18.015   1.625   8.377 -0.2973  0.2054 -0.2512
  187loPI   C2B 2990  18.037   1.764   7.987  0.0247 -0.1427  0.0994
  187loPI   C3B 2991  17.782   1.642   7.643  0.3624  0.2337 -0.0416
  187loPI   C4B 2992  17.676   1.709   7.257 -0.1750  0.0513  0.0291
  188loPI    C1 2993  17.010  17.375   9.802  0.0431 -0.1232 -0.1778
  188loPI    C2 2994  17.186  17.328   9.446  0.4158 -0.0219 -0.0127
  188loPI    C3 2995  17.323  17.129   9.765  0.1430 -0.0420  0.0954
  188loPI   PO4 2996  17.017  17.637   9.899  0.1409  0.1999  0.2555
  188loPI   GL1 2997  17.309  17.918   9.576  0.4994 -0.0601  0.4706
  188loPI   GL2 2998  17.514  17.723   9.397 -0.2282  0.0364 -0.0524
  188loPI   C1A 2999  17.094  18.129   9.229 -0.3793  0.2946 -0.0335
  188loPI   C2A 3000  17.152  18.089   8.734 -0.5406 -0.0251 -0.1539
  188loPI   C3A 3001  17.101  18.109   8.355  0.3226  0.3069  0.4082
  188loPI   C4A 3002  17.156  18.070   7.897 -0.0753  0.1604 -0.2281
  188loPI   C5A 3003  17.241  18.377   7.634 -0.3135 -0.0896 -0.0883
  188loPI   C6A 3004  17.437  18.543   7.276 -0.2024 -0.0572 -0.1168
  188loPI   C1B 3005  17.327  17.721   9.066  0.0532  0.1020 -0.3982
  188loPI   C2B 3006  17.247  17.591   8.626  0.0694  0.2018  0.0413
  188loPI   C3B 3007  17.202  17.577   8.242 -0.1639 -0.3472  0.1512
  188loPI   C4B 3008  17.427  17.333   8.002 -0.2622  0.2189 -0.1677
  189loPI    C1 3009   5.535  10.879   9.554 -0.3143 -0.2421 -0.2333
  189loPI    C2 3010   5.236  11.143   9.522  0.0736  0.2547  0.0840
  189loPI    C3 3011   5.365  11.030   9.883  0.1715 -0.0765 -0.0506
  189loPI   PO4 3012   5.505  10.714   9.409  0.0686  0.2020 -0.5963
  189loPI   GL1 3013   5.295  10.579   8.962  0.0107  0.0912 -0.1831
  189loPI   GL2 3014   4.933  10.666   8.876  0.0103  0.1203  0.1426
  189loPI   C1A 3015   5.540  10.800   8.762 -0.0710 -0.1327  0.2068
  189loPI   C2A 3016   5.752  10.938   8.394  0.1411 -0.0069 -0.0874
  189loPI   C3A 3017   5.963  11.338   8.312  0.1618 -0.2537  0.1389
  189loPI   C4A 3018   6.125  11.501   7.980 -0.3018 -0.1042 -0.1344
  189loPI   C5A 3019   6.304  11.803   7.565  0.2777 -0.2128 -0.0119
  189loPI   C6A 3020   6.376  12.235   7.427  0.0466  0.1016  0.1921
  189loPI   C1B 3021   5.044  10.612   8.574  0.0724 -0.0787  0.1905
  189loPI   C2B 3022   5.259  11.011   8.243 -0.2532 -0.1246  0.2171
  189loPI   C3B 3023   5.201  10.899   7.897 -0.3027 -0.3278  0.0674
  189loPI   C4B 3024   5.225  10.774   7.465  0.3561  0.1822  0.0539
  190loPI    C1 3025   7.597  15.044  10.113 -0.0091  0.2567  0.0160
  190loPI    C2 3026   7.869  14.918  10.379 -0.1579 -0.0624  0.0220
  190loPI    C3 3027   7.517  15.062  10.505 -0.0171  0.3012  0.0124
  190loPI   PO4 3028   7.724  15.258  10.004  0.3584  0.4018  0.0338
  190loPI   GL1 3029   7.692  15.431   9.616 -0.0812  0.4676 -0.2340
  190loPI   GL2 3030   7.851  15.274   9.437  0.1162  0.1990 -0.3729
  190loPI   C1A 3031   7.366  15.340   9.258  0.0604  0.1964 -0.0847
  190loPI   C2A 3032   7.395  15.330   8.733 -0.0386  0.0833 -0.1893
  190loPI   C3A 3033   7.551  15.397   8.334  0.0407  0.3651  0.1233
  190loPI   C4A 3034   7.755  15.671   7.991 -0.0483  0.0248  0.1931
  190loPI   C5A 3035   7.956  15.491   7.671  0.1869 -0.2570 -0.0460
  190loPI   C6A 3036   8.017  15.679   7.257  0.0361  0.1406 -0.1806
  190loPI   C1B 3037   7.888  15.215   9.019  0.3659  0.1341  0.1123
  190loPI   C2B 3038   7.940  15.249   8.559 -0.3213 -0.4692 -0.1016
  190loPI   C3B 3039   8.001  15.176   8.125  0.2104  0.1329  0.1560
  190loPI   C4B 3040   8.140  15.063   7.742 -0.1742  0.0321  0.0254
  191loPI    C1 3041   9.910   8.804   9.519 -0.2948 -0.3181 -0.0949
  191loPI    C2 3042  10.014   8.422   9.575  0.2039 -0.1489  0.2013
  191loPI    C3 3043   9.844   8.629   9.873  0.0290 -0.1074  0.0747
  191loPI   PO4 3044   9.953   8.864   9.321  0.2090  0.1473 -0.4404
  191loPI   GL1 3045   9.821   8.626   9.043  0.0518 -0.2435  0.4971
  191loPI   GL2 3046   9.668   8.822   8.771 -0.0826  0.0537  0.2404
  191loPI   C1A 3047   9.857   8.467   8.493  0.2757 -0.0942  0.2266
  191loPI   C2A 3048   9.809   8.332   8.052  0.3561 -0.2866 -0.3309
  191loPI   C3A 3049   9.779   8.483   7.600 -0.0038  0.0561  0.5405
  191loPI   C4A 3050  10.124   8.507   7.267 -0.0158  0.3524 -0.2052
  191loPI   C5A 3051  10.474   8.386   7.038  0.1192  0.0210  0.0743
  191loPI   C6A 3052  10.379   8.010   6.861 -0.0077  0.0035  0.1375
  191loPI   C1B 3053   9.624   8.927   8.345 -0.1554 -0.1632 -0.2015
  191loPI   C2B 3054   9.673   8.944   7.827 -0.0008  0.3259  0.0232
  191loPI   C3B 3055   9.650   8.861   7.323  0.1536 -0.0165 -0.0044
  191loPI   C4B 3056   9.593   8.876   6.925  0.3925  0.0896 -0.1080
  192loPI    C1 3057   7.369   9.089   9.644 -0.0153 -0.0615 -0.1230
  192loPI    C2 3058   7.409   9.375   9.921 -0.1299 -0.2651  0.1072
  192loPI    C3 3059   7.727   9.162   9.805 -0.0768 -0.1613  0.0612
  192loPI   PO4 3060   7.311   9.223   9.372  0.0955 -0.0282 -0.1697
  192loPI   GL1 3061   7.359   9.182   8.882 -0.0059 -0.1690 -0.1295
  192loPI   GL2 3062   7.440   8.951   8.863 -0.1365  0.1753 -0.1220
  192loPI   C1A 3063   7.281   9.565   8.548  0.0086  0.3000 -0.2135
  192loPI   C2A 3064   7.144   9.502   8.035  0.0031 -0.0578 -0.0644
  192loPI   C3A 3065   6.951   9.346   7.639  0.0028 -0.1337 -0.3181
  192loPI   C4A 3066   6.777   9.275   7.290 -0.0610 -0.1627  0.1349
  192loPI   C5A 3067   6.714   8.839   7.139  0.4642  0.0986  0.2518
  192loPI   C6A 3068   6.724   8.383   6.809  0.5318  0.2996  0.1471
  192loPI   C1B 3069   7.595   9.223   8.475 -0.1424  0.3442  0.3219
  192loPI   C2B 3070   7.594   9.328   8.022 -0.2750  0.1494  0.1127
  192loPI   C3B 3071   7.549   9.497   7.626  0.0675 -0.1178 -0.0946
  192loPI   C4B 3072   7.383   9.397   7.185  0.3172  0.2113 -0.1029
  193loPI    C1 3073   1.392  10.872   9.603 -0.1066  0.1322  0.1679
  193loPI    C2 3074   1.151  10.602   9.774 -0.2494  0.1913  0.0626
  193loPI    C3 3075   0.998  10.939   9.623 -0.0963  0.2423  0.0192
  193loPI   PO4 3076   1.533  10.755   9.438 -0.0218 -0.4025 -0.1289
  193loPI   GL1 3077   1.623  10.840   9.036  0.2328  0.3962  0.0494
  193loPI   GL2 3078   1.383  10.719   8.946  0.3041  0.0202 -0.2480
  193loPI   C1A 3079   1.686  11.052   8.643  0.2351 -0.3728 -0.2652
  193loPI   C2A 3080   1.463  10.974   8.261  0.0437 -0.2676  0.1542
  193loPI   C3A 3081   1.498  10.785   7.886  0.2646 -0.0148  0.1257
  193loPI   C4A 3082   1.727  10.729   7.475 -0.1717  0.1058  0.0569
  193loPI   C5A 3083   1.850  10.809   7.078 -0.0609 -0.1071  0.2101
  193loPI   C6A 3084   2.168  10.672   6.752  0.1544 -0.0642 -0.0142
  193loPI   C1B 3085   1.438  10.517   8.569 -0.1898 -0.2264 -0.2709
  193loPI   C2B 3086   1.356  10.385   8.232 -0.1017 -0.1823  0.1795
  193loPI   C3B 3087   1.384  10.187   7.873  0.0817  0.0411  0.0389
  193loPI   C4B 3088   1.319  10.452   7.596  0.1417 -0.0436  0.0224
  194loPI    C1 3089   5.787  15.064   9.698  0.0364 -0.0635  0.1603
  194loPI    C2 3090   5.421  15.140   9.843  0.0759 -0.2085  0.3400
  194loPI    C3 3091   5.703  14.985  10.081  0.2180 -0.2143  0.1705
  194loPI   PO4 3092   5.848  14.937   9.408 -0.1424 -0.2742  0.1215
  194loPI   GL1 3093   5.683  14.810   9.087  0.0815 -0.1243  0.2397
  194loPI   GL2 3094   5.427  14.921   8.894 -0.1002 -0.0780  0.1617
  194loPI   C1A 3095   5.804  14.580   8.777 -0.2033 -0.0892  0.2194
  194loPI   C2A 3096   5.848  14.711   8.373  0.2404  0.1544  0.3629
  194loPI   C3A 3097   5.745  14.771   7.955  0.2696  0.1017  0.0404
  194loPI   C4A 3098   5.900  14.621   7.562  0.3386 -0.1875 -0.0955
  194loPI   C5A 3099   5.866  14.572   7.105 -0.0839  0.1398 -0.2905
  194loPI   C6A 3100   5.965  14.617   6.609  0.2538 -0.0347 -0.1015
  194loPI   C1B 3101   5.484  15.173   8.565 -0.4872 -0.0286  0.0172
  194loPI   C2B 3102   5.661  15.244   8.213  0.1871  0.0845  0.2475
  194loPI   C3B 3103   5.775  15.243   7.751  0.0939 -0.0501 -0.3939
  194loPI   C4B 3104   5.914  15.092   7.339 -0.0753 -0.2894  0.3629
  195loPI    C1 3105   4.696   1.905   9.295  0.2453  0.2053  0.0545
  195loPI    C2 3106   4.865   1.575   9.443 -0.0373 -0.0680 -0.2161
  195loPI    C3 3107   4.672   1.827   9.686 -0.0504 -0.2407 -0.0446
  195loPI   PO4 3108   4.627   1.800   9.003 -0.0459 -0.1058 -0.0398
  195loPI   GL1 3109   4.810   1.694   8.655 -0.0952 -0.1330 -0.0378
  195loPI   GL2 3110   4.895   1.381   8.518  0.5612 -0.3469 -0.1088
  195loPI   C1A 3111   4.513   1.618   8.266  0.0654  0.2310  0.1287
  195loPI   C2A 3112   4.359   1.595   7.919  0.2593  0.1685 -0.1222
  195loPI   C3A 3113   4.252   1.485   7.455 -0.4323  0.0597 -0.1190
  195loPI   C4A 3114   4.191   1.685   6.997  0.3617 -0.1396 -0.2046
  195loPI   C5A 3115   4.366   1.836   6.582  0.0308 -0.2746  0.1180
  195loPI   C6A 3116   4.546   1.701   6.250 -0.1737 -0.0263  0.3167
  195loPI   C1B 3117   5.013   1.627   8.146 -0.2309 -0.1493 -0.0041
  195loPI   C2B 3118   4.821   1.671   7.673 -0.0706 -0.0656  0.1151
  195loPI   C3B 3119   5.101   1.659   7.330 -0.2022 -0.2531  0.0549
  195loPI   C4B 3120   5.137   1.726   6.837  0.1303  0.0239  0.0228
  196loPI    C1 3121  14.432   4.595   9.757 -0.1620  0.2420 -0.1755
  196loPI    C2 3122  14.583   4.227   9.793 -0.3137  0.1832 -0.1316
  196loPI    C3 3123  14.733   4.527  10.011 -0.2300  0.1354 -0.1230
  196loPI   PO4 3124  14.320   4.579   9.549  0.1882  0.0105  0.2356
  196loPI   GL1 3125  14.468   4.760   9.137 -0.1860 -0.1307  0.0971
  196loPI   GL2 3126  14.280   4.966   9.018 -0.0160  0.0772 -0.0052
  196loPI   C1A 3127  14.627   4.784   8.730  0.3469 -0.1086 -0.1415
  196loPI   C2A 3128  14.742   5.165   8.388 -0.0693 -0.0134 -0.2519
  196loPI   C3A 3129  15.109   5.219   8.082 -0.1273 -0.0748  0.2228
  196loPI   C4A 3130  15.295   5.263   7.715  0.0816  0.2335  0.1454
  196loPI   C5A 3131  15.267   5.330   7.260  0.2450  0.1389 -0.1157
  196loPI   C6A 3132  15.181   5.196   6.845 -0.0235  0.0373  0.1133
  196loPI   C1B 3133  14.219   5.034   8.595  0.0549 -0.0410  0.2749
  196loPI   C2B 3134  14.191   5.097   8.106 -0.3634  0.2680  0.0648
  196loPI   C3B 3135  14.369   5.153   7.710 -0.1750  0.1951 -0.4587
  196loPI   C4B 3136  14.405   4.870   7.425 -0.2494  0.2214 -0.1989
  197loPI    C1 3137  11.226   5.592   9.662  0.5000  0.3085  0.3469
  197loPI    C2 3138  11.352   5.357   9.960  0.0811 -0.4121 -0.0170
  197loPI    C3 3139  10.995   5.535   9.983  0.3857  0.1940  0.2453
  197loPI   PO4 3140  11.443   5.749   9.532  0.0520 -0.3576  0.1725
  197loPI   GL1 3141  11.766   5.687   9.239  0.1310 -0.0164 -0.0104
  197loPI   GL2 3142  11.535   5.924   9.069  0.0861  0.0891  0.0017
  197loPI   C1A 3143  11.882   5.587   8.870  0.2871 -0.0736  0.3189
  197loPI   C2A 3144  11.840   5.536   8.380  0.1630  0.0370 -0.1818
  197loPI   C3A 3145  11.750   5.629   7.937  0.1815  0.1152  0.0735
  197loPI   C4A 3146  11.879   5.670   7.535  0.1538  0.0144  0.0270
  197loPI   C5A 3147  11.934   5.466   7.109 -0.1105 -0.1758  0.0204
  197loPI   C6A 3148  12.093   5.472   6.749  0.2786 -0.0934 -0.0208
  197loPI   C1B 3149  11.550   5.997   8.642  0.1650 -0.0217 -0.2773
  197loPI   C2B 3150  11.558   5.932   8.337 -0.3165 -0.1015  0.0333
  197loPI   C3B 3151  11.596   6.152   7.837  0.2210 -0.1372 -0.0007
  197loPI   C4B 3152  11.547   6.220   7.266 -0.0156 -0.1803 -0.0368
  198loPI    C1 3153   3.546   6.716   9.855 -0.1468  0.1711 -0.1509
  198loPI    C2 3154   3.815   6.900  10.087 -0.2100 -0.1071  0.1505
  198loPI    C3 3155   3.435   7.026  10.083 -0.1761 -0.0058  0.0789
  198loPI   PO4 3156   3.628   6.636   9.649 -0.0148 -0.2016  0.0957
  198loPI   GL1 3157   3.763   6.631   9.278  0.2434 -0.2696  0.1757
  198loPI   GL2 3158   4.074   6.308   9.289 -0.0584 -0.3336  0.0377
  198loPI   C1A 3159   3.981   6.628   8.876 -0.1379 -0.1697  0.0023
  198loPI   C2A 3160   3.953   6.447   8.507 -0.2128  0.0850  0.0567
  198loPI   C3A 3161   3.893   6.227   8.204  0.2961  0.2870 -0.1331
  198loPI   C4A 3162   3.677   6.142   7.749  0.0443 -0.0288 -0.3209
  198loPI   C5A 3163   3.580   6.284   7.275 -0.2531 -0.1727 -0.1381
  198loPI   C6A 3164   3.663   6.335   6.946 -0.0376  0.3627  0.1613
  198loPI   C1B 3165   3.771   6.139   8.996 -0.2576 -0.0473 -0.1661
  198loPI   C2B 3166   3.871   5.958   8.652  0.0276  0.0939  0.0681
  198loPI   C3B 3167   4.125   5.764   8.508 -0.2356 -0.1065  0.1911
  198loPI   C4B 3168   4.512   5.828   8.190 -0.0677  0.2187  0.1124
  199loPI    C1 3169   2.698  17.763   9.600 -0.0233  0.0080 -0.0207
  199loPI    C2 3170   2.821  17.532   9.902 -0.0754 -0.1051 -0.0852
  199loPI    C3 3171   2.760  17.923   9.961 -0.0113 -0.1119  0.0307
  199loPI   PO4 3172   2.907  17.615   9.393 -0.2629  0.0985 -0.0254
  199loPI   GL1 3173   2.859  17.380   9.028 -0.3851  0.0142 -0.1870
  199loPI   GL2 3174   3.121  17.133   8.861  0.3584 -0.0378  0.1168
  199loPI   C1A 3175   2.756  17.574   8.571  0.2025 -0.3830  0.1194
  199loPI   C2A 3176   2.858  17.650   8.074  0.0139 -0.0297 -0.2605
  199loPI   C3A 3177   2.752  17.727   7.577  0.1649  0.0457  0.0353
  199loPI   C4A 3178   2.697  17.910   7.150 -0.2155 -0.1505  0.0034
  199loPI   C5A 3179   2.976  17.937   6.805 -0.3465 -0.0720  0.0565
  199loPI   C6A 3180   3.338  17.908   6.745 -0.0488  0.3008  0.1878
  199loPI   C1B 3181   2.969  16.783   8.533  0.0022  0.2728  0.0856
  199loPI   C2B 3182   2.809  16.648   8.137  0.0080  0.1096  0.3351
  199loPI   C3B 3183   2.904  16.621   7.731  0.0491  0.3439 -0.1737
  199loPI   C4B 3184   3.096  16.726   7.332 -0.3714 -0.0748 -0.0720
  200loPI    C1 3185   7.335  10.313   9.575 -0.1688  0.1904 -0.1575
  200loPI    C2 3186   7.549  10.283   9.911 -0.0261  0.0583 -0.2585
  200loPI    C3 3187   7.295  10.588   9.863  0.1012  0.1893 -0.1158
  200loPI   PO4 3188   7.503  10.172   9.444 -0.0446 -0.1512 -0.0109
  200loPI   GL1 3189   7.521  10.288   8.975  0.0039 -0.3493 -0.1986
  200loPI   GL2 3190   7.226  10.108   8.804 -0.2547  0.2942 -0.2620
  200loPI   C1A 3191   7.565  10.405   8.573 -0.2349  0.1155  0.1483
  200loPI   C2A 3192   7.708  10.380   8.255 -0.3464 -0.0208 -0.2293
  200loPI   C3A 3193   7.672  10.352   7.814 -0.0169 -0.0536 -0.2345
  200loPI   C4A 3194   7.469  10.411   7.511  0.0229  0.4130  0.4038
  200loPI   C5A 3195   7.134  10.480   7.188 -0.0775  0.1611 -0.0663
  200loPI   C6A 3196   7.185  10.361   6.877  0.0987  0.0628  0.1239
  200loPI   C1B 3197   7.040  10.029   8.355  0.1007 -0.1284 -0.1228
  200loPI   C2B 3198   6.834   9.910   7.987 -0.2966  0.0198 -0.1658
  200loPI   C3B 3199   6.567   9.693   7.639 -0.1176 -0.1032 -0.2824
  200loPI   C4B 3200   6.588   9.685   7.198  0.1267  0.1122 -0.1276
  201loPI    C1 3201   0.046   9.667   9.286 -0.0734  0.0140  0.0119
  201loPI    C2 3202  -0.225   9.521   9.540 -0.1513  0.2230  0.0506
  201loPI    C3 3203   0.111   9.687   9.680  0.0320 -0.0975  0.0010
  201loPI   PO4 3204   0.021   9.860   9.080  0.0014 -0.0159  0.0349
  201loPI   GL1 3205  -0.178   9.916   8.703  0.3579 -0.0234  0.1139
  201loPI   GL2 3206  -0.320   9.572   8.786 -0.3201  0.0123 -0.4093
  201loPI   C1A 3207  -0.025  10.307   8.392 -0.0457  0.1118  0.2389
  201loPI   C2A 3208   0.106  10.126   8.040 -0.0004  0.1396 -0.0596
  201loPI   C3A 3209   0.435  10.100   7.773 -0.0056 -0.0561  0.1251
  201loPI   C4A 3210   0.673  10.200   7.384 -0.0286 -0.2868  0.1597
  201loPI   C5A 3211   0.996  10.511   7.176  0.1203 -0.1855  0.2603
  201loPI   C6A 3212   1.418  10.553   7.100  0.0442 -0.2538  0.1707
  201loPI   C1B 3213  -0.651   9.599   8.440 -0.2350 -0.1901  0.4041
  201loPI   C2B 3214  -0.711   9.618   8.047 -0.1018  0.0152  0.0922
  201loPI   C3B 3215  -0.919   9.750   7.681 -0.1130 -0.1883  0.2177
  201loPI   C4B 3216  -1.000   9.712   7.319 -0.1080  0.1192 -0.0052
  202loPI    C1 3217  14.215  18.407   9.638  0.0312 -0.3458  0.0734
  202loPI    C2 3218  14.464  18.458   9.947 -0.0079 -0.1397  0.0726
  202loPI    C3 3219  14.068  18.472  10.004 -0.0155 -0.1302  0.0177
  202loPI   PO4 3220  14.351  18.598   9.470 -0.2714  0.1370 -0.2559
  202loPI   GL1 3221  14.341  18.855   9.097  0.1204  0.2052  0.0629
  202loPI   GL2 3222  14.086  18.859   8.993 -0.0344  0.0274 -0.1440
  202loPI   C1A 3223  14.603  18.801   8.763  0.1816 -0.4221 -0.0289
  202loPI   C2A 3224  14.626  18.728   8.350  0.2622  0.0547 -0.1292
  202loPI   C3A 3225  14.535  18.641   7.944 -0.2049 -0.2809 -0.1949
  202loPI   C4A 3226  14.651  18.734   7.560 -0.0689 -0.1748  0.0831
  202loPI   C5A 3227  14.907  18.530   7.288 -0.0256  0.0189 -0.0922
  202loPI   C6A 3228  14.783  18.370   6.897  0.1399 -0.2890  0.0521
  202loPI   C1B 3229  14.022  18.802   8.545 -0.2138  0.0868 -0.0671
  202loPI   C2B 3230  14.106  18.715   8.177  0.3628  0.2647  0.1521
  202loPI   C3B 3231  14.081  18.704   7.671 -0.2189  0.0587 -0.1211
  202loPI   C4B 3232  14.009  18.438   7.308 -0.2166  0.2541  0.1101
  203loPI    C1 3233  17.780   1.410   9.419  0.2525  0.1552  0.1785
  203loPI    C2 3234  17.745   1.775   9.260 -0.2512  0.0142 -0.0536
  203loPI    C3 3235  17.667   1.718   9.648 -0.0724  0.1681  0.0064
  203loPI   PO4 3236  17.987   1.272   9.285  0.0767  0.1523 -0.1736
  203loPI   GL1 3237  18.172   1.143   8.879 -0.0486  0.3201  0.0563
  203loPI   GL2 3238  17.863   0.937   8.811 -0.0357  0.3743  0.1272
  203loPI   C1A 3239  18.328   1.184   8.564 -0.0011 -0.0489 -0.0828
  203loPI   C2A 3240  18.409   1.330   8.193 -0.0837  0.0916  0.2078
  203loPI   C3A 3241  18.435   1.463   7.743 -0.0080 -0.2300  0.0647
  203loPI   C4A 3242  18.199   1.407   7.351 -0.1809  0.0927 -0.0753
  203loPI   C5A 3243  18.096   1.689   6.984  0.1015 -0.4830  0.1438
  203loPI   C6A 3244  17.830   1.781   6.648 -0.1609 -0.0674  0.3317
  203loPI   C1B 3245  17.783   1.103   8.411 -0.1568  0.0978 -0.1581
  203loPI   C2B 3246  17.932   1.151   7.995  0.1583  0.1926 -0.0182
  203loPI   C3B 3247  18.153   0.950   7.553  0.2814 -0.0906  0.0339
  203loPI   C4B 3248  18.041   0.738   7.100 -0.3382  0.1264 -0.0538
  204loPI    C1 3249   1.897   7.115   9.719  0.0647  0.1016 -0.1014
  204loPI    C2 3250   1.518   7.241   9.713  0.0099 -0.0457  0.1291
  204loPI    C3 3251   1.780   7.409   9.964  0.1045  0.0723 -0.0468
  204loPI   PO4 3252   1.906   6.957   9.583  0.0590  0.0772  0.0139
  204loPI   GL1 3253   1.905   6.845   9.140  0.1628 -0.0978 -0.1528
  204loPI   GL2 3254   1.914   6.571   9.079 -0.1238  0.2895  0.1076
  204loPI   C1A 3255   1.891   6.886   8.720  0.1182 -0.0011  0.0100
  204loPI   C2A 3256   2.085   7.115   8.454  0.1045 -0.1168  0.2386
  204loPI   C3A 3257   2.022   7.285   8.042  0.0011 -0.0743  0.1597
  204loPI   C4A 3258   2.089   7.544   7.750  0.2266 -0.1752  0.2050
  204loPI   C5A 3259   2.142   7.935   7.638 -0.3841  0.1127 -0.2714
  204loPI   C6A 3260   1.969   8.349   7.659  0.1447 -0.1698 -0.3580
  204loPI   C1B 3261   2.024   6.359   8.724  0.3460  0.0492  0.2156
  204loPI   C2B 3262   1.918   6.227   8.223 -0.1879 -0.1347  0.1239
  204loPI   C3B 3263   1.938   6.227   7.794 -0.0347 -0.3034 -0.1047
  204loPI   C4B 3264   2.119   6.396   7.485 -0.0967  0.0375 -0.0755
  205loPI    C1 3265  14.048   1.437   9.422 -0.0123 -0.0513  0.0645
  205loPI    C2 3266  14.380   1.214   9.444  0.0140 -0.0490 -0.2600
  205loPI    C3 3267  14.022   1.047   9.507  0.0714 -0.0585  0.0577
  205loPI   PO4 3268  14.090   1.575   9.161 -0.1929  0.0122  0.2503
  205loPI   GL1 3269  13.844   1.630   8.795  0.0221 -0.1660 -0.1793
  205loPI   GL2 3270  13.554   1.706   8.681 -0.0728 -0.0672  0.4740
  205loPI   C1A 3271  14.047   1.613   8.445  0.2393 -0.0746 -0.1237
  205loPI   C2A 3272  13.981   1.612   7.932  0.2101 -0.1909 -0.3533
  205loPI   C3A 3273  14.142   1.609   7.526  0.0336 -0.1244  0.0895
  205loPI   C4A 3274  14.396   1.471   7.253 -0.2504  0.3367  0.0879
  205loPI   C5A 3275  14.645   1.173   7.059 -0.1551 -0.0914  0.4207
  205loPI   C6A 3276  14.911   0.915   6.911  0.0564 -0.0128 -0.1853
  205loPI   C1B 3277  13.588   1.673   8.223 -0.0926 -0.1010  0.1542
  205loPI   C2B 3278  13.521   1.596   7.746 -0.1251  0.2085 -0.1204
  205loPI   C3B 3279  13.619   1.574   7.332 -0.0252 -0.0713 -0.1129
  205loPI   C4B 3280  13.926   1.332   7.119  0.4607  0.1628 -0.0551
  206loPI    C1 3281  12.170  10.351   9.725 -0.0237  0.1165  0.0301
  206loPI    C2 3282  12.127  10.151  10.069  0.0091  0.0478 -0.0056
  206loPI    C3 3283  11.890  10.463   9.988  0.0690  0.1275  0.1244
  206loPI   PO4 3284  12.192  10.209   9.471 -0.0072  0.2658  0.0005
  206loPI   GL1 3285  12.046  10.312   9.048 -0.2352 -0.0469  0.0287
  206loPI   GL2 3286  11.865  10.593   8.938 -0.1028  0.2188  0.1733
  206loPI   C1A 3287  12.035  10.170   8.610 -0.0843 -0.6927 -0.1445
  206loPI   C2A 3288  12.077  10.192   8.220  0.0732  0.0158 -0.0996
  206loPI   C3A 3289  11.858  10.191   7.850 -0.1795  0.2730  0.1419
  206loPI   C4A 3290  12.021  10.220   7.419  0.1072  0.0006  0.2094
  206loPI   C5A 3291  12.209  10.226   6.984 -0.0672  0.4052 -0.0366
  206loPI   C6A 3292  12.172   9.903   6.793 -0.3127 -0.3754  0.0494
  206loPI   C1B 3293  11.778  10.613   8.484  0.1447  0.1189  0.3448
  206loPI   C2B 3294  11.649  10.604   8.124  0.3883 -0.2117  0.1114
  206loPI   C3B 3295  11.758  10.624   7.720 -0.0809 -0.4429  0.1451
  206loPI   C4B 3296  11.457  10.720   7.458 -0.0448  0.0564 -0.1967
  207loPI    C1 3297   0.851  10.112   9.518 -0.1528  0.1709  0.0156
  207loPI    C2 3298   0.839   9.915   9.866 -0.0883 -0.0405 -0.0995
  207loPI    C3 3299   0.501  10.053   9.702 -0.1213  0.0409  0.0348
  207loPI   PO4 3300   0.974   9.961   9.249  0.2003  0.0016  0.1494
  207loPI   GL1 3301   0.696   9.654   8.928  0.1631  0.3140  0.0464
  207loPI   GL2 3302   0.391   9.598   8.897  0.0208 -0.0860  0.1423
  207loPI   C1A 3303   0.788   9.579   8.522 -0.6248 -0.1382  0.0207
  207loPI   C2A 3304   0.850   9.393   8.113  0.1660  0.0213 -0.0650
  207loPI   C3A 3305   0.843   9.474   7.704  0.2246 -0.1366 -0.1415
  207loPI   C4A 3306   0.583   9.460   7.479 -0.0492  0.0377 -0.1821
  207loPI   C5A 3307   0.395   9.308   7.087  0.1947  0.3838  0.0376
  207loPI   C6A 3308   0.084   9.114   6.878 -0.3473  0.0154  0.1371
  207loPI   C1B 3309   0.216   9.617   8.491 -0.4115  0.1488  0.4256
  207loPI   C2B 3310  -0.177   9.732   8.190  0.1710 -0.0238 -0.3185
  207loPI   C3B 3311  -0.003   9.851   7.687  0.0380 -0.2352  0.0093
  207loPI   C4B 3312   0.285   9.874   7.360 -0.2168 -0.2798  0.4596
  208loPI    C1 3313  17.565  10.818   9.341  0.0915  0.2184  0.2112
  208loPI    C2 3314  17.280  10.971   9.576 -0.1355  0.0446  0.0542
  208loPI    C3 3315  17.450  10.622   9.671  0.1308  0.2167  0.2239
  208loPI   PO4 3316  17.713  11.048   9.340 -0.0661  0.0264  0.0077
  208loPI   GL1 3317  17.857  11.134   8.937 -0.2218 -0.0330  0.0345
  208loPI   GL2 3318  17.691  11.379   8.963  0.1134 -0.0339  0.0244
  208loPI   C1A 3319  17.940  10.980   8.468 -0.1142 -0.0908 -0.0193
  208loPI   C2A 3320  17.934  10.979   8.023  0.3357  0.1700  0.0530
  208loPI   C3A 3321  18.014  10.848   7.569  0.0061 -0.0029 -0.1421
  208loPI   C4A 3322  18.167  10.745   7.191  0.0172 -0.0358  0.2125
  208loPI   C5A 3323  18.345  10.543   6.851 -0.0105 -0.1002 -0.3455
  208loPI   C6A 3324  18.493  10.091   6.799  0.1182  0.0116 -0.3930
  208loPI   C1B 3325  17.755  11.470   8.560 -0.0683  0.1533  0.2508
  208loPI   C2B 3326  17.845  11.478   8.099 -0.2467  0.1380  0.0165
  208loPI   C3B 3327  17.891  11.371   7.634 -0.0413  0.1670  0.2731
  208loPI   C4B 3328  17.787  11.259   7.149 -0.1599  0.0913  0.1148
  209loPI    C1 3329   1.147  11.131   9.187 -0.0947  0.2976 -0.0794
  209loPI    C2 3330   1.335  11.341   8.903  0.1582  0.1036 -0.0591
  209loPI    C3 3331   1.497  11.308   9.268  0.0723 -0.0456 -0.0338
  209loPI   PO4 3332   0.959  10.995   9.068 -0.1136 -0.0021 -0.2204
  209loPI   GL1 3333   0.888  11.042   8.719 -0.1961  0.2518 -0.2708
  209loPI   GL2 3334   0.893  11.345   8.681 -0.0882  0.0964 -0.0629
  209loPI   C1A 3335   0.678  11.118   8.317 -0.0609  0.2284  0.0198
  209loPI   C2A 3336   0.537  11.097   7.831 -0.1190  0.0777 -0.3302
  209loPI   C3A 3337   0.322  11.059   7.433 -0.0610 -0.0324 -0.1892
  209loPI   C4A 3338   0.052  10.927   7.104  0.0087  0.0035  0.1293
  209loPI   C5A 3339   0.120  10.742   6.688 -0.2403  0.0712  0.1953
  209loPI   C6A 3340   0.227  10.495   6.353 -0.2351 -0.1641 -0.0270
  209loPI   C1B 3341   1.172  11.344   8.304  0.0547  0.3509  0.2199
  209loPI   C2B 3342   1.155  11.074   7.888 -0.0212 -0.1972 -0.1206
  209loPI   C3B 3343   1.262  11.187   7.551  0.0572 -0.1060  0.2759
  209loPI   C4B 3344   1.364  11.013   7.243  0.2525  0.3593 -0.1949
  210loPI    C1 3345   5.476   8.662   9.652 -0.0208 -0.0555  0.0350
  210loPI    C2 3346   5.279   8.890   9.914  0.1321 -0.0277  0.1268
  210loPI    C3 3347   5.536   8.612  10.044 -0.0723 -0.2716  0.0166
  210loPI   PO4 3348   5.262   8.655   9.435 -0.2706 -0.5727  0.0139
  210loPI   GL1 3349   5.185   8.506   9.045 -0.4321  0.3850  0.0790
  210loPI   GL2 3350   5.045   8.179   8.998 -0.1283 -0.6202 -0.2838
  210loPI   C1A 3351   4.855   8.702   8.756  0.0683 -0.2576 -0.2430
  210loPI   C2A 3352   4.854   8.830   8.360 -0.1530 -0.2280 -0.1760
  210loPI   C3A 3353   4.938   8.949   7.935 -0.2048 -0.1147  0.0325
  210loPI   C4A 3354   4.972   8.959   7.517  0.3712  0.2117  0.1141
  210loPI   C5A 3355   5.026   8.777   7.094  0.1995  0.0405  0.2989
  210loPI   C6A 3356   5.331   8.600   6.763  0.4035 -0.1485 -0.2689
  210loPI   C1B 3357   4.774   8.193   8.510 -0.0506 -0.0984  0.0447
  210loPI   C2B 3358   4.579   8.271   8.171 -0.0681  0.0745 -0.1395
  210loPI   C3B 3359   4.762   8.501   7.907  0.0796  0.1881  0.3226
  210loPI   C4B 3360   4.777   8.445   7.397  0.0138 -0.1435  0.1148
  211loPI    C1 3361  13.221   2.485   9.693  0.0930 -0.2745  0.0379
  211loPI    C2 3362  13.605   2.434   9.791  0.0629 -0.4074  0.0897
  211loPI    C3 3363  13.317   2.289  10.028 -0.0287 -0.0017  0.2362
  211loPI   PO4 3364  13.291   2.459   9.373 -0.2367  0.2081  0.3433
  211loPI   GL1 3365  13.113   2.559   8.981 -0.0074 -0.0938  0.1027
  211loPI   GL2 3366  13.409   2.747   8.886 -0.2315  0.0501 -0.0450
  211loPI   C1A 3367  12.875   2.250   8.741  0.3692 -0.1669  0.1027
  211loPI   C2A 3368  12.867   1.830   8.537 -0.0357 -0.3302 -0.0803
  211loPI   C3A 3369  12.824   1.588   8.152  0.5004 -0.2782 -0.0843
  211loPI   C4A 3370  12.981   1.455   7.741 -0.1259  0.0361 -0.0852
  211loPI   C5A 3371  12.614   1.403   7.442 -0.0959  0.0040  0.0935
  211loPI   C6A 3372  12.180   1.561   7.144 -0.0730  0.1544 -0.1164
  211loPI   C1B 3373  13.348   2.270   8.622  0.0277 -0.3346 -0.0735
  211loPI   C2B 3374  13.226   1.989   8.272 -0.1543 -0.0811  0.3263
  211loPI   C3B 3375  13.081   1.960   7.854 -0.0055  0.3746 -0.2346
  211loPI   C4B 3376  13.079   2.108   7.497  0.0529 -0.0201 -0.0766
  212loPI    C1 3377  11.187  16.862  10.239 -0.0806  0.0750  0.3835
  212loPI    C2 3378  11.252  17.243  10.341  0.2642  0.0963  0.1051
  212loPI    C3 3379  11.482  16.954  10.494  0.1157  0.0177  0.1809
  212loPI   PO4 3380  11.119  16.911   9.975 -0.0325 -0.0146 -0.1017
  212loPI   GL1 3381  10.834  17.012   9.676  0.2185 -0.1417  0.0582
  212loPI   GL2 3382  11.084  17.045   9.425  0.0682 -0.2596  0.3213
  212loPI   C1A 3383  10.637  16.638   9.433 -0.0487  0.0412  0.2860
  212loPI   C2A 3384  10.785  16.658   8.981  0.1807  0.5141  0.1337
  212loPI   C3A 3385  11.109  16.421   8.743  0.3456 -0.0488  0.4719
  212loPI   C4A 3386  11.134  16.315   8.244 -0.1104 -0.0240 -0.1762
  212loPI   C5A 3387  10.998  16.363   7.888 -0.2510  0.0732  0.0201
  212loPI   C6A 3388  10.748  16.222   7.565 -0.1187  0.3071 -0.0612
  212loPI   C1B 3389  10.743  17.143   9.081  0.4008  0.0415 -0.2383
  212loPI   C2B 3390  10.634  17.571   8.911  0.0181  0.2328  0.1842
  212loPI   C3B 3391  10.677  17.705   8.549  0.3535  0.4647  0.0149
  212loPI   C4B 3392  10.667  17.381   8.243  0.1548 -0.1294 -0.2364
  213loPI    C1 3393   8.533   2.663   9.702 -0.2460  0.1478 -0.0351
  213loPI    C2 3394   8.691   3.026   9.756 -0.2347  0.1269  0.0737
  213loPI    C3 3395   8.480   2.854  10.049 -0.1353 -0.0061  0.0678
  213loPI   PO4 3396   8.297   2.647   9.462  0.0171  0.1669  0.1259
  213loPI   GL1 3397   8.420   2.475   9.133 -0.1735  0.1836 -0.0297
  213loPI   GL2 3398   8.195   2.721   8.999  0.0730 -0.0504  0.0877
  213loPI   C1A 3399   8.210   2.139   8.872  0.0099 -0.2002 -0.0645
  213loPI   C2A 3400   7.860   2.236   8.638  0.0262  0.0956  0.0535
  213loPI   C3A 3401   7.782   2.343   8.221  0.2727  0.4106 -0.0263
  213loPI   C4A 3402   7.665   2.701   7.987  0.1450 -0.1671  0.1814
  213loPI   C5A 3403   7.520   2.677   7.597  0.0730  0.0151  0.0011
  213loPI   C6A 3404   7.589   2.720   7.152  0.2642  0.0252 -0.1129
  213loPI   C1B 3405   8.265   2.520   8.497  0.0171 -0.0289  0.0399
  213loPI   C2B 3406   8.225   2.508   8.060  0.0655  0.0487 -0.1854
  213loPI   C3B 3407   8.127   2.719   7.697 -0.1468 -0.0797  0.1000
  213loPI   C4B 3408   8.022   2.428   7.327  0.1643  0.1232  0.0770
  214loPI    C1 3409   4.947   8.179   9.556 -0.0736  0.1121 -0.1290
  214loPI    C2 3410   4.691   8.239   9.857  0.1220  0.0129  0.0605
  214loPI    C3 3411   4.974   8.510   9.779  0.3995 -0.2007  0.3023
  214loPI   PO4 3412   4.762   8.062   9.419  0.1451  0.2225  0.0482
  214loPI   GL1 3413   4.751   7.784   9.102  0.2959 -0.2676 -0.3752
  214loPI   GL2 3414   5.002   7.715   8.997 -0.4466  0.1441  0.4853
  214loPI   C1A 3415   4.415   7.873   8.732  0.2486 -0.3123  0.0903
  214loPI   C2A 3416   4.433   7.772   8.301 -0.0854  0.2282 -0.2361
  214loPI   C3A 3417   4.421   7.849   7.899  0.1246  0.1998  0.1796
  214loPI   C4A 3418   4.257   7.796   7.414 -0.0134 -0.2606  0.0054
  214loPI   C5A 3419   3.814   7.560   7.286 -0.0599 -0.0735  0.1516
  214loPI   C6A 3420   3.756   7.155   7.247 -0.2295  0.0391 -0.3205
  214loPI   C1B 3421   4.888   7.666   8.641  0.1880 -0.1072  0.0754
  214loPI   C2B 3422   4.817   7.491   8.193 -0.0233  0.1702  0.1384
  214loPI   C3B 3423   4.858   7.422   7.794 -0.0484 -0.1644 -0.1047
  214loPI   C4B 3424   4.805   7.365   7.299 -0.3358 -0.1005 -0.1204
  215loPI    C1 3425   4.846  13.706  10.033 -0.1784 -0.0507  0.2826
  215loPI    C2 3426   5.072  14.015   9.916 -0.1135 -0.2311 -0.0804
  215loPI    C3 3427   4.987  13.966  10.303  0.2930 -0.0411  0.0383
  215loPI   PO4 3428   4.797  13.511   9.751 -0.2213 -0.1483 -0.0237
  215loPI   GL1 3429   4.712  13.818   9.438 -0.0188 -0.2386  0.2332
  215loPI   GL2 3430   4.897  14.132   9.307 -0.3676 -0.0906 -0.2600
  215loPI   C1A 3431   4.648  13.442   9.118 -0.0463 -0.0031 -0.1411
  215loPI   C2A 3432   4.442  13.331   8.758  0.0823  0.3152  0.0584
  215loPI   C3A 3433   4.406  13.399   8.385  0.0491 -0.0525  0.2351
  215loPI   C4A 3434   4.256  13.377   8.068 -0.2146 -0.3754 -0.1295
  215loPI   C5A 3435   4.174  13.468   7.675 -0.0046 -0.2415 -0.1820
  215loPI   C6A 3436   4.014  13.855   7.456 -0.0228  0.0873 -0.0004
  215loPI   C1B 3437   5.095  14.041   8.927  0.4457 -0.0181  0.2031
  215loPI   C2B 3438   5.108  14.139   8.503 -0.0230  0.3534 -0.0121
  215loPI   C3B 3439   5.119  14.117   7.958  0.2035 -0.1458 -0.1123
  215loPI   C4B 3440   5.183  14.043   7.522 -0.2809  0.2074 -0.1947
  216loPI    C1 3441   1.118   5.019   9.811 -0.0202 -0.3424 -0.0157
  216loPI    C2 3442   0.933   5.167  10.133 -0.1645 -0.0840 -0.2142
  216loPI    C3 3443   1.177   4.853  10.171  0.0031  0.0875  0.1851
  216loPI   PO4 3444   0.887   4.994   9.638 -0.0598 -0.0090 -0.0632
  216loPI   GL1 3445   0.746   5.299   9.215  0.0136 -0.0669 -0.1273
  216loPI   GL2 3446   0.938   5.387   8.960  0.1103  0.3876  0.0655
  216loPI   C1A 3447   0.537   5.075   8.918 -0.4691 -0.1669  0.1677
  216loPI   C2A 3448   0.361   5.095   8.611 -0.1220 -0.1774 -0.0073
  216loPI   C3A 3449   0.464   5.244   8.132  0.1995 -0.1008  0.2622
  216loPI   C4A 3450   0.580   5.530   7.884  0.2544  0.1300  0.0463
  216loPI   C5A 3451   0.528   5.683   7.481 -0.2119 -0.0298  0.0927
  216loPI   C6A 3452   0.583   5.380   7.101  0.4023  0.2305  0.0277
  216loPI   C1B 3453   0.783   5.383   8.542  0.2552 -0.1326  0.2710
  216loPI   C2B 3454   0.878   5.021   8.181  0.0030 -0.0629  0.1392
  216loPI   C3B 3455   0.809   4.958   7.792  0.1155  0.0483  0.3046
  216loPI   C4B 3456   0.820   5.314   7.478 -0.0711 -0.1956 -0.2019
  217loPI    C1 3457   0.190  17.792   9.879 -0.1699  0.0751 -0.0528
  217loPI    C2 3458  -0.013  17.633  10.185 -0.1607  0.0294 -0.0703
  217loPI    C3 3459   0.278  17.899  10.255 -0.0570 -0.0939 -0.0302
  217loPI   PO4 3460   0.173  17.628   9.660  0.1387 -0.2425 -0.4262
  217loPI   GL1 3461   0.170  17.488   9.235 -0.1392  0.2075  0.2807
  217loPI   GL2 3462   0.065  17.764   9.152  0.1136  0.4414 -0.3900
  217loPI   C1A 3463   0.330  17.331   8.837  0.0047 -0.0747 -0.0522
  217loPI   C2A 3464   0.339  17.447   8.428  0.0540  0.1458  0.1091
  217loPI   C3A 3465   0.299  17.514   8.054 -0.0710 -0.1240 -0.4740
  217loPI   C4A 3466   0.235  17.450   7.609 -0.1785  0.2756 -0.4412
  217loPI   C5A 3467   0.221  17.569   7.227 -0.0508 -0.2541 -0.2230
  217loPI   C6A 3468   0.166  17.393   6.855  0.0544 -0.2117 -0.1360
  217loPI   C1B 3469   0.146  17.789   8.810  0.1699 -0.2905  0.1701
  217loPI   C2B 3470   0.050  17.885   8.353  0.1626 -0.1820  0.1715
  217loPI   C3B 3471   0.011  18.248   8.158  0.1756 -0.0123  0.4537
  217loPI   C4B 3472   0.197  18.390   7.821  0.0984 -0.4809  0.2012
  218loPI    C1 3473  18.236  16.027  10.350  0.1965  0.2153 -0.2768
  218loPI    C2 3474  18.270  16.343  10.594 -0.2412  0.1696 -0.1481
  218loPI    C3 3475  18.344  15.975  10.732 -0.3897  0.1534 -0.1089
  218loPI   PO4 3476  18.326  16.043  10.046  0.0460  0.1076  0.2004
  218loPI   GL1 3477  18.284  16.012   9.556 -0.0357 -0.3177 -0.0885
  218loPI   GL2 3478  18.214  15.577   9.492 -0.2249  0.0835  0.1594
  218loPI   C1A 3479  18.200  16.045   9.184 -0.1592  0.1114  0.3188
  218loPI   C2A 3480  18.201  15.986   8.747  0.0448 -0.3047 -0.0641
  218loPI   C3A 3481  18.318  16.111   8.271 -0.0006 -0.2272  0.2909
  218loPI   C4A 3482  18.437  15.865   7.856 -0.0973 -0.1556 -0.1736
  218loPI   C5A 3483  18.713  16.022   7.696  0.0143 -0.3670 -0.1489
  218loPI   C6A 3484  19.152  16.249   7.542 -0.2805 -0.1712 -0.1180
  218loPI   C1B 3485  17.956  15.512   9.093 -0.0118  0.2295 -0.2723
  218loPI   C2B 3486  17.718  15.688   8.742  0.0291 -0.0110  0.2438
  218loPI   C3B 3487  17.914  15.803   8.344  0.1412  0.0227  0.1753
  218loPI   C4B 3488  17.988  16.061   7.910  0.3672 -0.0476 -0.1304
  219loPI    C1 3489   3.778  10.495   9.542 -0.1363 -0.0977  0.0654
  219loPI    C2 3490   4.057  10.216   9.607 -0.1773 -0.1772 -0.0946
  219loPI    C3 3491   3.918  10.435   9.912 -0.2134 -0.3960  0.0483
  219loPI   PO4 3492   3.640  10.297   9.265  0.0717 -0.3400 -0.1393
  219loPI   GL1 3493   3.807   9.903   8.950 -0.0053  0.0834  0.2150
  219loPI   GL2 3494   3.863   9.532   8.948  0.0935  0.0074  0.0705
  219loPI   C1A 3495   3.835  10.080   8.548  0.2076 -0.2277  0.0217
  219loPI   C2A 3496   3.822  10.237   8.127 -0.1352 -0.1653 -0.2536
  219loPI   C3A 3497   3.572  10.360   7.770  0.0406 -0.1745 -0.1019
  219loPI   C4A 3498   3.600  10.432   7.432  0.1225 -0.1311 -0.0915
  219loPI   C5A 3499   3.485  10.746   7.222 -0.0668  0.1472 -0.0177
  219loPI   C6A 3500   3.274  11.041   7.474 -0.0839 -0.3230  0.3188
  219loPI   C1B 3501   3.682   9.517   8.578  0.1882  0.1178  0.0485
  219loPI   C2B 3502   3.678   9.727   8.112 -0.1017 -0.3262 -0.1870
  219loPI   C3B 3503   3.429   9.910   7.764 -0.1024  0.2072  0.0322
  219loPI   C4B 3504   3.099   9.800   7.587  0.1665 -0.1110 -0.4026
  220loPI    C1 3505   1.702  18.973   9.079  0.2322 -0.3122 -0.0428
  220loPI    C2 3506   2.007  19.141   9.275  0.1346 -0.0680 -0.0964
  220loPI    C3 3507   1.731  18.931   9.475  0.1506  0.0013 -0.0014
  220loPI   PO4 3508   1.539  19.174   9.023  0.0706  0.2016  0.3945
  220loPI   GL1 3509   1.446  19.582   8.708  0.0667  0.0728 -0.2920
  220loPI   GL2 3510   1.672  19.285   8.513  0.0576  0.0802  0.0074
  220loPI   C1A 3511   1.509  19.716   8.310 -0.0239  0.1821 -0.1065
  220loPI   C2A 3512   1.379  19.668   7.845  0.1404 -0.0694  0.1002
  220loPI   C3A 3513   1.177  19.896   7.576  0.0986  0.0753  0.1909
  220loPI   C4A 3514   1.268  20.117   7.238 -0.3449 -0.0429 -0.0119
  220loPI   C5A 3515   1.347  20.605   7.081  0.0444  0.1665  0.1163
  220loPI   C6A 3516   1.713  20.724   6.846  0.2987  0.0390  0.1883
  220loPI   C1B 3517   1.920  19.185   8.102  0.2368  0.2014 -0.0609
  220loPI   C2B 3518   1.930  19.169   7.655  0.2141 -0.1746  0.0835
  220loPI   C3B 3519   1.781  18.987   7.309 -0.1320 -0.1665 -0.0100
  220loPI   C4B 3520   1.829  18.610   7.209  0.0285  0.1636  0.2638
  221loPI    C1 3521   1.204   8.631   9.907 -0.1194 -0.1566 -0.0277
  221loPI    C2 3522   1.426   8.489  10.209  0.0762 -0.2045 -0.1915
  221loPI    C3 3523   1.554   8.803   9.997 -0.2308  0.0573  0.0017
  221loPI   PO4 3524   1.041   8.526   9.565  0.1586  0.2728  0.0137
  221loPI   GL1 3525   1.264   8.239   9.231  0.2210  0.0449 -0.1690
  221loPI   GL2 3526   1.047   8.367   9.062  0.1938  0.1073  0.1269
  221loPI   C1A 3527   1.358   8.164   8.706 -0.1201 -0.0773 -0.1092
  221loPI   C2A 3528   1.533   8.191   8.343 -0.2431  0.0576 -0.0626
  221loPI   C3A 3529   1.404   8.258   7.895 -0.0253  0.0530  0.1513
  221loPI   C4A 3530   1.452   8.177   7.525  0.1052  0.1113  0.0350
  221loPI   C5A 3531   1.673   7.930   7.288  0.1164  0.2339 -0.3051
  221loPI   C6A 3532   2.054   7.752   7.194  0.2999  0.2605  0.0711
  221loPI   C1B 3533   0.879   7.909   9.016 -0.0958 -0.1470 -0.1412
  221loPI   C2B 3534   0.600   7.499   8.882  0.1800  0.0216  0.1542
  221loPI   C3B 3535   0.497   7.430   8.408  0.1611  0.0814  0.3589
  221loPI   C4B 3536   0.830   7.400   7.928 -0.1943  0.3335  0.0041
  222loPI    C1 3537  14.956  14.327  10.100  0.0572  0.1940 -0.2672
  222loPI    C2 3538  14.718  14.424  10.406  0.2288 -0.2350  0.0110
  222loPI    C3 3539  15.065  14.616  10.355  0.2229 -0.1954  0.1162
  222loPI   PO4 3540  14.753  14.214   9.746  0.1586 -0.3700  0.1832
  222loPI   GL1 3541  14.569  14.324   9.286  0.2648  0.3293 -0.1303
  222loPI   GL2 3542  14.860  14.423   9.261  0.0925 -0.0145 -0.0468
  222loPI   C1A 3543  14.351  14.360   8.840  0.1934  0.2142 -0.0490
  222loPI   C2A 3544  14.306  14.325   8.409  0.0057 -0.0972 -0.0390
  222loPI   C3A 3545  14.326  14.375   7.985  0.0818  0.2013 -0.1496
  222loPI   C4A 3546  14.504  14.180   7.634  0.1908  0.2074 -0.0198
  222loPI   C5A 3547  14.529  13.760   7.506  0.3988 -0.0808  0.0907
  222loPI   C6A 3548  14.722  13.335   7.455 -0.5923 -0.1147 -0.4457
  222loPI   C1B 3549  14.710  14.737   9.007 -0.4035  0.3155  0.2726
  222loPI   C2B 3550  14.705  14.697   8.535 -0.0808  0.0632 -0.0614
  222loPI   C3B 3551  14.515  14.866   8.033 -0.1305 -0.1775  0.1273
  222loPI   C4B 3552  14.444  14.740   7.638  0.1532  0.0630  0.0100
  223loPI    C1 3553   7.364  10.795   9.440 -0.0565 -0.1373  0.0912
  223loPI    C2 3554   7.212  11.144   9.319  0.2310 -0.0097  0.0899
  223loPI    C3 3555   7.132  11.008   9.686 -0.1329 -0.0951 -0.0162
  223loPI   PO4 3556   7.244  10.642   9.207 -0.0997  0.2794  0.0755
  223loPI   GL1 3557   7.221  10.684   8.773  0.0419 -0.0306  0.2751
  223loPI   GL2 3558   7.094  10.946   8.813 -0.1599  0.2991 -0.2596
  223loPI   C1A 3559   7.135  10.564   8.347  0.2359  0.3295 -0.0906
  223loPI   C2A 3560   7.172  10.356   7.968 -0.0899  0.0415  0.0284
  223loPI   C3A 3561   7.042  10.184   7.597  0.2579  0.2004 -0.1163
  223loPI   C4A 3562   6.715  10.158   7.268 -0.1203  0.0073 -0.3817
  223loPI   C5A 3563   6.602  10.372   6.900 -0.3270 -0.0859 -0.1756
  223loPI   C6A 3564   6.804  10.721   6.858 -0.3600  0.0591  0.1241
  223loPI   C1B 3565   7.062  11.122   8.485 -0.2451  0.2529  0.0173
  223loPI   C2B 3566   7.107  11.213   8.045 -0.1137  0.4676 -0.0769
  223loPI   C3B 3567   6.980  11.198   7.683  0.2240  0.1144  0.0571
  223loPI   C4B 3568   6.703  11.037   7.303  0.4207  0.1929 -0.0297
  224loPI    C1 3569  10.263  17.289  10.189 -0.2657 -0.0792  0.2467
  224loPI    C2 3570  10.331  17.044   9.881  0.2873  0.1568  0.1683
  224loPI    C3 3571  10.152  16.906  10.210 -0.0269 -0.1749 -0.1329
  224loPI   PO4 3572  10.326  17.524  10.027  0.2487 -0.6054 -0.0735
  224loPI   GL1 3573  10.595  17.482   9.675 -0.2058  0.1235 -0.1244
  224loPI   GL2 3574  10.613  17.648   9.445 -0.4675 -0.1485 -0.0289
  224loPI   C1A 3575  10.353  17.209   9.372  0.1383  0.2652  0.0017
  224loPI   C2A 3576   9.893  17.129   9.236  0.5108  0.2483 -0.2943
  224loPI   C3A 3577   9.500  17.209   8.921  0.0518 -0.0343 -0.0718
  224loPI   C4A 3578   9.285  17.142   8.587 -0.0887 -0.0767 -0.1883
  224loPI   C5A 3579   9.239  17.324   8.164 -0.4078  0.0085 -0.1299
  224loPI   C6A 3580   9.393  17.050   7.747  0.0376 -0.2556 -0.1624
  224loPI   C1B 3581  10.993  17.535   9.254  0.0261 -0.1075 -0.1925
  224loPI   C2B 3582  11.137  17.547   8.893 -0.0048 -0.3970 -0.0863
  224loPI   C3B 3583  11.097  17.450   8.433 -0.2101 -0.0523  0.0264
  224loPI   C4B 3584  11.132  17.494   8.073 -0.1142  0.1655 -0.1489
  225loPI    C1 3585  16.142  17.167   9.693  0.0861 -0.0688  0.1219
  225loPI    C2 3586  16.482  17.163   9.903 -0.0222 -0.0595  0.2993
  225loPI    C3 3587  16.171  16.942  10.022  0.0197 -0.3023 -0.0295
  225loPI   PO4 3588  16.208  17.144   9.425 -0.1018 -0.1653  0.2081
  225loPI   GL1 3589  16.041  17.074   8.973  0.0782  0.3148  0.0146
  225loPI   GL2 3590  15.826  16.943   9.043  0.0843 -0.0763 -0.1116
  225loPI   C1A 3591  16.078  17.054   8.547  0.0652 -0.1730  0.0142
  225loPI   C2A 3592  16.109  16.944   8.143 -0.0308  0.0737 -0.1942
  225loPI   C3A 3593  16.009  16.929   7.624 -0.2282  0.0901  0.2538
  225loPI   C4A 3594  16.059  16.938   7.212 -0.2749  0.3164 -0.1871
  225loPI   C5A 3595  16.299  16.836   6.922 -0.3242  0.0614 -0.2289
  225loPI   C6A 3596  16.382  16.731   6.493  0.0586  0.0246  0.1296
  225loPI   C1B 3597  15.683  16.729   8.860 -0.0245 -0.0606 -0.0283
  225loPI   C2B 3598  15.665  16.681   8.354  0.0928 -0.0233  0.0722
  225loPI   C3B 3599  15.794  16.542   8.011 -0.0279  0.1796 -0.1202
  225loPI   C4B 3600  15.699  16.508   7.591 -0.1561 -0.0336 -0.0127
  226loPI    C1 3601  18.286   3.337   9.534  0.2321 -0.1329  0.1062
  226loPI    C2 3602  17.940   3.370   9.732  0.2022  0.1508  0.0117
  226loPI    C3 3603  18.071   3.010   9.618 -0.1540  0.0566 -0.1148
  226loPI   PO4 3604  18.196   3.558   9.230  0.2595  0.1413  0.0641
  226loPI   GL1 3605  18.366   3.370   8.931 -0.2988 -0.1481 -0.1027
  226loPI   GL2 3606  18.384   3.104   8.792  0.0445 -0.1623  0.2534
  226loPI   C1A 3607  18.734   3.431   8.669  0.0009 -0.2514 -0.0950
  226loPI   C2A 3608  18.993   3.570   8.268 -0.0547 -0.2166  0.0532
  226loPI   C3A 3609  18.998   3.734   7.866 -0.0295 -0.0411 -0.1385
  226loPI   C4A 3610  18.689   3.998   7.577 -0.1961  0.3359 -0.1911
  226loPI   C5A 3611  18.514   4.290   7.161 -0.0251 -0.2642  0.0778
  226loPI   C6A 3612  18.048   4.352   6.932  0.1377  0.2924  0.0792
  226loPI   C1B 3613  18.221   3.337   8.400  0.0614  0.1328 -0.0682
  226loPI   C2B 3614  18.116   3.409   8.004  0.0047  0.3241  0.0173
  226loPI   C3B 3615  17.815   3.571   7.664  0.0023 -0.1877 -0.0839
  226loPI   C4B 3616  17.625   3.793   7.341 -0.0900  0.1786  0.0402
  227loPI    C1 3617  16.972   4.173   9.656  0.0861  0.3524  0.0577
  227loPI    C2 3618  16.682   4.401   9.811 -0.0626  0.2222 -0.0248
  227loPI    C3 3619  17.014   4.326  10.023 -0.1910  0.1798  0.1647
  227loPI   PO4 3620  16.969   4.326   9.381  0.1545 -0.0400  0.1346
  227loPI   GL1 3621  16.865   4.579   8.960 -0.0789 -0.2745 -0.1081
  227loPI   GL2 3622  16.916   4.202   8.862 -0.1755 -0.1569  0.1047
  227loPI   C1A 3623  17.353   4.601   8.914 -0.0617 -0.2170 -0.0981
  227loPI   C2A 3624  17.800   4.511   8.851 -0.1951 -0.1666 -0.0502
  227loPI   C3A 3625  18.023   4.406   8.561 -0.3519 -0.1218  0.1675
  227loPI   C4A 3626  18.392   4.280   8.313 -0.1149  0.2102  0.0616
  227loPI   C5A 3627  18.368   4.281   7.928  0.0369 -0.0845 -0.0018
  227loPI   C6A 3628  18.181   4.441   7.505 -0.0955 -0.2085 -0.4313
  227loPI   C1B 3629  17.010   4.478   8.463 -0.0518 -0.4137  0.1049
  227loPI   C2B 3630  17.121   4.452   8.093 -0.1375  0.0393 -0.0568
  227loPI   C3B 3631  17.175   4.536   7.646 -0.1071 -0.2922 -0.0579
  227loPI   C4B 3632  17.171   4.115   7.446 -0.1952  0.0066  0.0674
  228loPI    C1 3633  18.399   9.587  10.093 -0.0145  0.0967  0.0308
  228loPI    C2 3634  18.781   9.469  10.098 -0.0892 -0.1470  0.1567
  228loPI    C3 3635  18.667   9.786  10.313  0.0706  0.0226 -0.0052
  228loPI   PO4 3636  18.357   9.613   9.884  0.0034 -0.2356  0.3807
  228loPI   GL1 3637  18.322   9.383   9.486  0.1321  0.0570  0.0451
  228loPI   GL2 3638  18.552   9.362   9.274  0.1891  0.3587 -0.3338
  228loPI   C1A 3639  18.101   9.323   9.102 -0.1556 -0.2491 -0.1969
  228loPI   C2A 3640  18.186   9.086   8.691  0.0707  0.0946  0.0300
  228loPI   C3A 3641  18.130   9.048   8.183  0.1574  0.3480  0.0785
  228loPI   C4A 3642  18.126   9.017   7.832  0.1405  0.0547 -0.1849
  228loPI   C5A 3643  17.899   8.992   7.356 -0.0001  0.2023  0.1665
  228loPI   C6A 3644  17.788   8.518   7.128 -0.0841  0.0069  0.3519
  228loPI   C1B 3645  18.644   8.999   8.982  0.0259 -0.4772 -0.0190
  228loPI   C2B 3646  18.659   8.844   8.598  0.0043 -0.2178  0.1784
  228loPI   C3B 3647  18.583   8.748   8.111 -0.0577  0.3132 -0.1704
  228loPI   C4B 3648  18.539   8.753   7.612  0.0945  0.1985  0.0526
  229loPI    C1 3649   2.248  19.573   9.369  0.0584 -0.0019  0.1050
  229loPI    C2 3650   2.360  19.410   9.717  0.0433 -0.0172  0.1027
  229loPI    C3 3651   2.356  19.808   9.674 -0.0115 -0.0136  0.1392
  229loPI   PO4 3652   2.389  19.420   9.092  0.1815 -0.1621 -0.0520
  229loPI   GL1 3653   2.132  19.158   8.740  0.0473  0.1425 -0.0910
  229loPI   GL2 3654   1.878  18.832   8.632  0.0853 -0.1288 -0.1393
  229loPI   C1A 3655   2.395  19.351   8.451  0.4346 -0.3334 -0.0955
  229loPI   C2A 3656   2.357  19.472   8.058  0.1763  0.1828 -0.0720
  229loPI   C3A 3657   2.196  19.646   7.599 -0.0819 -0.0760 -0.2069
  229loPI   C4A 3658   2.374  19.753   7.137  0.2042  0.1447  0.0626
  229loPI   C5A 3659   2.269  20.019   6.772  0.1276  0.2115  0.1917
  229loPI   C6A 3660   2.105  20.448   6.617  0.2220  0.1557 -0.0217
  229loPI   C1B 3661   2.182  18.855   8.369  0.0793  0.0578 -0.4306
  229loPI   C2B 3662   2.173  18.805   7.886  0.3511  0.1623  0.1865
  229loPI   C3B 3663   2.252  18.753   7.523 -0.0068  0.1555  0.0958
  229loPI   C4B 3664   2.320  18.674   7.175  0.0134 -0.2713  0.0075
  230loPI    C1 3665  18.320   6.960   9.824  0.2236  0.1477  0.0636
  230loPI    C2 3666  17.979   6.955  10.033  0.2452 -0.0212  0.0954
  230loPI    C3 3667  18.316   7.088  10.203  0.1987  0.1322  0.0687
  230loPI   PO4 3668  18.315   7.119   9.592  0.1536  0.1767 -0.1951
  230loPI   GL1 3669  18.255   7.101   9.113  0.3121 -0.2174  0.1001
  230loPI   GL2 3670  17.945   7.300   9.160 -0.1713  0.3087 -0.3238
  230loPI   C1A 3671  17.908   6.844   8.878 -0.0996 -0.1127  0.0535
  230loPI   C2A 3672  17.767   6.846   8.495 -0.3502  0.1338  0.0615
  230loPI   C3A 3673  17.806   6.727   8.077  0.0645 -0.0355 -0.0449
  230loPI   C4A 3674  17.677   6.891   7.635  0.0456  0.1166  0.3009
  230loPI   C5A 3675  17.589   6.767   7.210  0.1131  0.4002 -0.0136
  230loPI   C6A 3676  17.508   6.681   6.754 -0.2842  0.2051  0.1046
  230loPI   C1B 3677  17.963   7.323   8.684 -0.1428 -0.3683 -0.1438
  230loPI   C2B 3678  17.938   7.226   8.170  0.2375  0.1745 -0.0857
  230loPI   C3B 3679  17.993   7.329   7.705  0.2388 -0.1272 -0.0793
  230loPI   C4B 3680  18.035   7.634   7.423 -0.0834  0.0773 -0.2383
  231loPI    C1 3681   9.037  16.871  10.047 -0.0542 -0.1334 -0.1684
  231loPI    C2 3682   9.146  16.826  10.429  0.0142 -0.0053 -0.1722
  231loPI    C3 3683   8.959  17.159  10.313 -0.1539 -0.1143 -0.2179
  231loPI   PO4 3684   9.297  16.838   9.931  0.3037 -0.0677 -0.0058
  231loPI   GL1 3685   9.542  16.491   9.671  0.1419  0.0960 -0.0045
  231loPI   GL2 3686   9.362  16.367   9.470  0.1777 -0.2523 -0.1404
  231loPI   C1A 3687   9.897  16.322   9.454 -0.1910  0.0537  0.1715
  231loPI   C2A 3688  10.095  16.250   8.983  0.3360 -0.0908  0.1449
  231loPI   C3A 3689  10.190  16.139   8.574 -0.2009  0.1549 -0.0346
  231loPI   C4A 3690  10.159  16.471   8.261  0.3446 -0.0099  0.0252
  231loPI   C5A 3691  10.414  16.722   8.011 -0.2477  0.1154 -0.1121
  231loPI   C6A 3692  10.678  16.730   7.612 -0.2269 -0.1459  0.1591
  231loPI   C1B 3693   9.464  16.385   9.053 -0.2989  0.0290  0.2575
  231loPI   C2B 3694   9.766  16.359   8.618 -0.1192  0.1352 -0.2471
  231loPI   C3B 3695   9.730  16.302   8.191 -0.0917 -0.0271 -0.3495
  231loPI   C4B 3696   9.637  16.034   7.835  0.0166 -0.0232  0.1600
  232loPI    C1 3697  11.508  19.256  10.131  0.3164  0.0326  0.1218
  232loPI    C2 3698  11.651  18.899  10.241 -0.0405 -0.1554 -0.0111
  232loPI    C3 3699  11.382  19.087  10.470 -0.1847 -0.1782 -0.1597
  232loPI   PO4 3700  11.604  19.212   9.819 -0.1976 -0.0454 -0.0684
  232loPI   GL1 3701  11.625  19.322   9.413  0.0595 -0.0444 -0.1629
  232loPI   GL2 3702  11.454  19.504   9.434 -0.2876 -0.5207 -0.1683
  232loPI   C1A 3703  11.697  19.340   8.935 -0.0091  0.0673 -0.1270
  232loPI   C2A 3704  11.672  19.089   8.600  0.2701 -0.0968  0.2194
  232loPI   C3A 3705  11.485  19.008   8.172 -0.0721  0.0231 -0.3012
  232loPI   C4A 3706  11.490  18.884   7.807 -0.1096 -0.0903  0.0692
  232loPI   C5A 3707  11.697  18.792   7.511  0.0331  0.2229 -0.1994
  232loPI   C6A 3708  11.896  18.764   7.047 -0.0693 -0.1313 -0.2135
  232loPI   C1B 3709  11.357  19.708   9.013 -0.0350 -0.1270 -0.1169
  232loPI   C2B 3710  11.471  19.791   8.574  0.4661  0.2292  0.2072
  232loPI   C3B 3711  11.185  19.939   8.214 -0.2165  0.1845 -0.0659
  232loPI   C4B 3712  11.067  19.815   7.846  0.1074 -0.1988  0.1789
  233loPI    C1 3713  16.929   2.587   9.332 -0.1192  0.1051 -0.1985
  233loPI    C2 3714  16.675   2.413   9.587  0.1074 -0.0813 -0.0963
  233loPI    C3 3715  16.854   2.756   9.687  0.0466 -0.0520 -0.0873
  233loPI   PO4 3716  17.047   2.413   9.261 -0.0450 -0.0007 -0.1235
  233loPI   GL1 3717  17.263   2.241   8.921 -0.0904  0.1069 -0.1592
  233loPI   GL2 3718  17.363   1.848   8.892  0.1522 -0.2676 -0.0113
  233loPI   C1A 3719  17.142   2.444   8.617  0.2330  0.3072  0.1971
  233loPI   C2A 3720  17.138   2.440   8.156 -0.2145  0.0321  0.2910
  233loPI   C3A 3721  17.150   2.278   7.738 -0.0255 -0.1071 -0.0126
  233loPI   C4A 3722  17.224   2.200   7.382 -0.4299 -0.3889 -0.1763
  233loPI   C5A 3723  17.299   2.037   7.004 -0.4810  0.0722  0.2409
  233loPI   C6A 3724  17.357   1.891   6.617  0.1046 -0.1639  0.0964
  233loPI   C1B 3725  17.059   1.695   8.770  0.0087  0.0889 -0.0550
  233loPI   C2B 3726  16.718   1.578   8.562  0.1767 -0.1250 -0.0026
  233loPI   C3B 3727  16.493   1.628   8.167 -0.1242 -0.1815  0.0815
  233loPI   C4B 3728  16.519   1.569   7.737  0.4644  0.2698 -0.0186
  234loPI    C1 3729  16.437  12.955   9.854  0.0047  0.1275 -0.0130
  234loPI    C2 3730  16.225  13.265   9.993 -0.1799 -0.0247  0.0504
  234loPI    C3 3731  16.459  13.055  10.240 -0.1458 -0.0080  0.0322
  234loPI   PO4 3732  16.469  13.030   9.538  0.0834  0.1024  0.4419
  234loPI   GL1 3733  16.490  12.956   9.116 -0.0742 -0.2108 -0.1513
  234loPI   GL2 3734  16.390  12.748   8.958  0.0062  0.2559  0.1636
  234loPI   C1A 3735  16.578  13.183   8.740 -0.0825 -0.3442  0.0666
  234loPI   C2A 3736  16.777  13.183   8.328  0.1660  0.1752 -0.1813
  234loPI   C3A 3737  16.778  12.874   8.010 -0.1583  0.0749 -0.1427
  234loPI   C4A 3738  16.827  12.793   7.556 -0.0870  0.2533 -0.0412
  234loPI   C5A 3739  16.860  12.905   7.175  0.1164 -0.2085  0.2058
  234loPI   C6A 3740  16.694  12.913   6.702  0.1480 -0.0754  0.0637
  234loPI   C1B 3741  16.094  12.582   8.756  0.2243  0.0156  0.2656
  234loPI   C2B 3742  15.971  12.752   8.432  0.3312  0.1833  0.3270
  234loPI   C3B 3743  16.072  12.779   8.058  0.1863 -0.2047  0.0736
  234loPI   C4B 3744  16.400  12.999   7.742 -0.1657 -0.0404  0.1478
  235loPI    C1 3745   1.125   3.764   9.425 -0.1228  0.3867 -0.0177
  235loPI    C2 3746   1.521   3.756   9.481 -0.1212  0.3513 -0.0336
  235loPI    C3 3747   1.302   4.049   9.642 -0.1378  0.1621  0.2979
  235loPI   PO4 3748   1.102   3.685   9.160  0.0821 -0.0413 -0.0344
  235loPI   GL1 3749   0.859   3.741   8.862  0.1195  0.0358  0.4000
  235loPI   GL2 3750   1.125   3.977   8.691  0.2343  0.2395  0.0211
  235loPI   C1A 3751   0.681   3.375   8.780  0.0832 -0.1414 -0.1897
  235loPI   C2A 3752   0.505   3.051   8.460 -0.1425 -0.1154  0.1357
  235loPI   C3A 3753   0.480   2.791   8.063  0.3367  0.1339  0.0755
  235loPI   C4A 3754   0.399   2.709   7.578  0.0273 -0.0085 -0.3436
  235loPI   C5A 3755   0.054   2.564   7.537  0.1379  0.1194 -0.0115
  235loPI   C6A 3756  -0.004   2.156   7.413 -0.1130  0.1670 -0.1069
  235loPI   C1B 3757   1.211   4.116   8.161  0.3715  0.1695  0.4215
  235loPI   C2B 3758   1.429   4.283   7.771  0.2357 -0.2454  0.0309
  235loPI   C3B 3759   1.644   4.379   7.444  0.1357 -0.3670  0.0240
  235loPI   C4B 3760   1.789   4.257   7.130 -0.0355  0.0625  0.0321
  236loPI    C1 3761  10.164   5.101   9.779 -0.3536  0.0095  0.0439
  236loPI    C2 3762  10.292   4.738   9.886  0.3831  0.1813 -0.1945
  236loPI    C3 3763   9.952   4.777   9.680  0.2368 -0.3577 -0.0712
  236loPI   PO4 3764  10.414   5.227   9.632  0.1695 -0.2575 -0.0712
  236loPI   GL1 3765  10.338   5.494   9.175 -0.0948 -0.5550 -0.1070
  236loPI   GL2 3766  10.483   5.317   9.077 -0.0023 -0.3783 -0.1353
  236loPI   C1A 3767  10.152   5.694   8.756 -0.1484  0.3606 -0.2594
  236loPI   C2A 3768  10.220   5.781   8.344 -0.1493 -0.4245 -0.1341
  236loPI   C3A 3769  10.475   5.599   7.997  0.0237  0.0728  0.5264
  236loPI   C4A 3770  10.480   5.667   7.514 -0.2081  0.3293  0.1049
  236loPI   C5A 3771  10.410   5.827   7.098  0.0758 -0.0684 -0.1808
  236loPI   C6A 3772  10.609   5.797   6.676 -0.3096  0.0383 -0.2078
  236loPI   C1B 3773  10.407   5.387   8.533 -0.0298  0.1120  0.1781
  236loPI   C2B 3774  10.238   5.154   8.183 -0.1492  0.0698 -0.1311
  236loPI   C3B 3775  10.176   5.265   7.796  0.0198 -0.3188 -0.1874
  236loPI   C4B 3776   9.924   5.212   7.457 -0.2433 -0.3285  0.0239
  237loPI    C1 3777  13.938  12.985  10.435  0.1006  0.1129 -0.0499
  237loPI    C2 3778  13.753  13.316  10.564 -0.1906 -0.0989  0.0887
  237loPI    C3 3779  14.137  13.253  10.656 -0.1470  0.1748  0.1027
  237loPI   PO4 3780  13.914  13.024  10.082 -0.2424  0.1911 -0.2039
  237loPI   GL1 3781  14.225  13.046   9.691 -0.1968  0.2627  0.0227
  237loPI   GL2 3782  13.971  12.895   9.546  0.2320 -0.3856 -0.1745
  237loPI   C1A 3783  14.292  13.140   9.218  0.1276 -0.0623 -0.5399
  237loPI   C2A 3784  14.248  12.951   8.844  0.0612 -0.2475  0.0077
  237loPI   C3A 3785  14.138  12.874   8.385 -0.3925  0.3261 -0.1264
  237loPI   C4A 3786  14.027  13.053   8.049  0.1027  0.1973 -0.1795
  237loPI   C5A 3787  13.608  13.267   7.782 -0.0244 -0.1192 -0.0371
  237loPI   C6A 3788  13.358  13.049   7.373  0.0919 -0.1140 -0.0461
  237loPI   C1B 3789  13.734  12.986   9.081  0.0701 -0.0391 -0.0187
  237loPI   C2B 3790  13.745  13.061   8.652  0.0822 -0.1453  0.1986
  237loPI   C3B 3791  13.497  13.124   8.316 -0.1943 -0.2156  0.3337
  237loPI   C4B 3792  13.264  12.938   7.931 -0.2058 -0.5646 -0.0568
  238loPI    C1 3793  14.372   5.094   9.556 -0.1514 -0.0636 -0.0669
  238loPI    C2 3794  14.024   4.934   9.441 -0.0297 -0.2826 -0.1360
  238loPI    C3 3795  14.102   4.984   9.830 -0.2145 -0.0559 -0.1257
  238loPI   PO4 3796  14.499   5.317   9.356  0.0340  0.1261  0.1234
  238loPI   GL1 3797  14.448   5.625   8.995  0.1267  0.1889 -0.1457
  238loPI   GL2 3798  14.395   5.514   8.818 -0.0159 -0.0002 -0.1183
  238loPI   C1A 3799  14.767   5.676   8.592  0.0013  0.0021  0.1369
  238loPI   C2A 3800  14.831   5.637   8.170  0.2053 -0.1497  0.1178
  238loPI   C3A 3801  14.789   5.500   7.713  0.0980  0.3062 -0.2461
  238loPI   C4A 3802  14.750   5.211   7.360  0.0674  0.1110  0.1613
  238loPI   C5A 3803  14.844   4.844   7.245 -0.0192 -0.5034  0.1666
  238loPI   C6A 3804  14.937   4.514   7.139  0.0405  0.1031  0.0822
  238loPI   C1B 3805  14.314   5.499   8.298 -0.2354 -0.3700  0.0373
  238loPI   C2B 3806  14.363   5.611   7.880 -0.0863  0.0433  0.0524
  238loPI   C3B 3807  14.343   5.692   7.423 -0.0137 -0.2050  0.2105
  238loPI   C4B 3808  14.266   5.771   6.990  0.1577  0.3733  0.0572
  239loPI    C1 3809   6.315  18.863   9.586  0.0714 -0.2573 -0.0848
  239loPI    C2 3810   6.698  18.882   9.699 -0.0084 -0.0694  0.1641
  239loPI    C3 3811   6.409  18.872   9.975 -0.1829 -0.2527 -0.0218
  239loPI   PO4 3812   6.306  18.873   9.352 -0.0127 -0.4113 -0.0965
  239loPI   GL1 3813   6.435  18.911   8.934 -0.2043 -0.1917 -0.1299
  239loPI   GL2 3814   6.122  18.857   8.811  0.1628 -0.1076 -0.0352
  239loPI   C1A 3815   6.590  18.815   8.467 -0.2034  0.3143 -0.0357
  239loPI   C2A 3816   6.857  18.836   8.104  0.0684  0.0254  0.3606
  239loPI   C3A 3817   6.759  18.821   7.691  0.0487 -0.2398  0.1782
  239loPI   C4A 3818   6.585  18.835   7.258 -0.0931 -0.1402 -0.2427
  239loPI   C5A 3819   6.692  19.098   6.909 -0.1919 -0.2155 -0.0518
  239loPI   C6A 3820   6.624  19.472   6.581 -0.0007 -0.0531 -0.0647
  239loPI   C1B 3821   6.137  18.707   8.398  0.3035 -0.1203  0.1691
  239loPI   C2B 3822   6.395  18.603   8.058 -0.0359  0.1430  0.3581
  239loPI   C3B 3823   6.295  18.587   7.565  0.1834  0.3128  0.1362
  239loPI   C4B 3824   6.146  18.619   7.143  0.0385  0.2230  0.2468
  240loPI    C1 3825  17.334  15.048   9.785 -0.1265  0.1994 -0.0633
  240loPI    C2 3826  17.012  15.285   9.795 -0.2895 -0.0213 -0.0074
  240loPI    C3 3827  17.002  14.926   9.971 -0.0834 -0.1190 -0.1897
  240loPI   PO4 3828  17.470  15.016   9.493 -0.0516 -0.0349 -0.2840
  240loPI   GL1 3829  17.365  15.158   9.123 -0.0251  0.3244 -0.0135
  240loPI   GL2 3830  17.264  15.425   9.314 -0.0475  0.1354 -0.1555
  240loPI   C1A 3831  17.358  15.084   8.695 -0.1648  0.0102  0.0825
  240loPI   C2A 3832  17.278  15.078   8.366  0.0940 -0.2181 -0.0978
  240loPI   C3A 3833  17.241  15.051   7.944  0.0696 -0.2816 -0.0065
  240loPI   C4A 3834  17.287  14.762   7.638  0.1619  0.0407 -0.2612
  240loPI   C5A 3835  17.520  14.741   7.327 -0.0533 -0.0333  0.3830
  240loPI   C6A 3836  17.701  14.800   6.951  0.3816 -0.0775  0.1764
  240loPI   C1B 3837  17.235  15.641   8.888 -0.0751 -0.1169 -0.3821
  240loPI   C2B 3838  17.242  15.563   8.541 -0.0503 -0.0006 -0.1375
  240loPI   C3B 3839  17.017  15.435   8.164 -0.2528 -0.0292 -0.1262
  240loPI   C4B 3840  16.686  15.290   7.879 -0.2251 -0.1547 -0.0716
  241loPI    C1 3841  12.174  13.743  10.461  0.0878 -0.1242 -0.1025
  241loPI    C2 3842  12.397  13.703  10.791 -0.0067  0.3289  0.0233
  241loPI    C3 3843  12.112  13.434  10.708  0.2540  0.0168  0.1195
  241loPI   PO4 3844  12.315  13.749  10.188  0.0556  0.1227  0.2685
  241loPI   GL1 3845  12.209  13.937   9.869  0.2592  0.2432  0.1500
  241loPI   GL2 3846  12.377  13.769   9.677 -0.0659  0.3393 -0.0580
  241loPI   C1A 3847  12.071  14.071   9.402  0.2719  0.3500 -0.2327
  241loPI   C2A 3848  12.049  13.982   9.028  0.0414  0.0012  0.0468
  241loPI   C3A 3849  11.972  13.942   8.609  0.1230 -0.0140  0.0299
  241loPI   C4A 3850  12.111  13.978   8.248  0.0153 -0.1833  0.1200
  241loPI   C5A 3851  12.253  14.194   7.850  0.0427 -0.0212  0.1204
  241loPI   C6A 3852  12.381  14.347   7.401 -0.3732  0.1953  0.1470
  241loPI   C1B 3853  12.178  13.567   9.355 -0.2527 -0.0677 -0.0110
  241loPI   C2B 3854  12.127  13.498   8.910 -0.0723  0.2572 -0.0186
  241loPI   C3B 3855  12.030  13.491   8.397 -0.3047 -0.0261 -0.3529
  241loPI   C4B 3856  11.970  13.564   7.902  0.1253  0.2614  0.0662
  242loPI    C1 3857   6.938  12.747   9.674  0.0606 -0.0418 -0.0520
  242loPI    C2 3858   7.200  12.730   9.975 -0.0929  0.2429  0.1024
  242loPI    C3 3859   6.811  12.783  10.052 -0.1977 -0.1594 -0.1250
  242loPI   PO4 3860   7.114  12.760   9.492 -0.0850  0.1573  0.1449
  242loPI   GL1 3861   7.162  12.976   9.162 -0.0220 -0.2680 -0.1240
  242loPI   GL2 3862   6.928  13.151   9.340 -0.2773 -0.4675  0.0272
  242loPI   C1A 3863   7.137  12.984   8.713  0.3437  0.0119 -0.1878
  242loPI   C2A 3864   7.182  13.227   8.277 -0.1217  0.1220 -0.1729
  242loPI   C3A 3865   7.181  13.203   7.780 -0.1267 -0.2049 -0.1381
  242loPI   C4A 3866   7.014  13.528   7.536  0.0258  0.1067  0.1944
  242loPI   C5A 3867   6.930  13.496   7.155  0.3041 -0.0762 -0.2161
  242loPI   C6A 3868   6.567  13.303   7.118  0.2622 -0.0322  0.0524
  242loPI   C1B 3869   6.723  13.175   8.915 -0.1700 -0.0409 -0.2107
  242loPI   C2B 3870   6.720  13.341   8.533 -0.0336  0.1133  0.3388
  242loPI   C3B 3871   6.489  13.577   8.272  0.0007  0.0369  0.0274
  242loPI   C4B 3872   6.373  14.058   8.280  0.0448 -0.1276  0.0479
  243loPI    C1 3873  16.143  15.107   9.907 -0.4428 -0.1662 -0.0292
  243loPI    C2 3874  15.984  15.366  10.168 -0.3188 -0.3237  0.2059
  243loPI    C3 3875  16.082  14.997  10.287  0.1950 -0.2417  0.0623
  243loPI   PO4 3876  16.067  15.045   9.676  0.3893 -0.1645  0.1110
  243loPI   GL1 3877  16.206  15.112   9.294 -0.1364  0.1368 -0.0852
  243loPI   GL2 3878  16.321  14.824   9.225  0.1659 -0.0288  0.0680
  243loPI   C1A 3879  16.392  15.289   8.932 -0.0214 -0.1682 -0.3551
  243loPI   C2A 3880  16.426  15.384   8.484 -0.0672 -0.1191  0.0137
  243loPI   C3A 3881  16.461  15.663   8.129 -0.2488  0.0157  0.0305
  243loPI   C4A 3882  16.485  15.874   7.690  0.0769  0.3044  0.0093
  243loPI   C5A 3883  16.611  16.236   7.475  0.1607 -0.1424  0.3360
  243loPI   C6A 3884  16.520  16.683   7.313  0.1625 -0.0436  0.3198
  243loPI   C1B 3885  16.192  14.865   8.749 -0.3159  0.3480  0.3470
  243loPI   C2B 3886  16.225  14.838   8.270 -0.2531  0.0481  0.2282
  243loPI   C3B 3887  16.284  14.832   7.813  0.0374 -0.1862 -0.2390
  243loPI   C4B 3888  16.505  14.704   7.423 -0.3470 -0.1703 -0.0634
  244loPI    C1 3889   5.786   5.789   9.258  0.0239  0.0638  0.0185
  244loPI    C2 3890   5.727   5.812   9.653  0.2745 -0.0113  0.0623
  244loPI    C3 3891   5.482   6.006   9.402  0.2752  0.2588  0.2660
  244loPI   PO4 3892   6.112   5.906   9.190  0.0129 -0.0583  0.2929
  244loPI   GL1 3893   6.165   5.976   8.847  0.3072  0.4519  0.3250
  244loPI   GL2 3894   5.990   5.676   8.758  0.1769 -0.0512 -0.1693
  244loPI   C1A 3895   6.141   6.149   8.526 -0.1231  0.0689  0.0025
  244loPI   C2A 3896   6.078   6.187   8.109 -0.1062 -0.1959  0.0630
  244loPI   C3A 3897   6.086   5.913   7.736 -0.3730  0.0907  0.0079
  244loPI   C4A 3898   6.279   5.595   7.382 -0.3105 -0.1591  0.2018
  244loPI   C5A 3899   6.035   5.454   6.934 -0.1888 -0.0187 -0.3079
  244loPI   C6A 3900   5.591   5.647   6.729 -0.6275  0.3029 -0.2325
  244loPI   C1B 3901   6.073   5.669   8.274  0.0580  0.1057  0.2871
  244loPI   C2B 3902   6.182   5.476   7.843 -0.2783  0.1280  0.1048
  244loPI   C3B 3903   6.539   5.307   7.664  0.2208 -0.2510 -0.0504
  244loPI   C4B 3904   6.624   5.186   7.365  0.1965  0.0002 -0.3019
  245loPI    C1 3905   0.877  14.062   9.805 -0.0311  0.1074 -0.1256
  245loPI    C2 3906   1.036  13.907  10.137  0.1297  0.2168 -0.1504
  245loPI    C3 3907   0.856  14.263  10.150  0.0811  0.1929 -0.1677
  245loPI   PO4 3908   1.089  14.150   9.546  0.2308 -0.1764 -0.4736
  245loPI   GL1 3909   1.265  14.061   9.233 -0.1009 -0.0929 -0.1812
  245loPI   GL2 3910   1.382  13.726   9.273 -0.0848  0.2061  0.0312
  245loPI   C1A 3911   1.019  13.898   8.774  0.0559  0.0130 -0.0642
  245loPI   C2A 3912   0.949  13.812   8.283  0.0089  0.1748  0.2815
  245loPI   C3A 3913   0.963  13.818   7.810  0.1759 -0.0028 -0.1732
  245loPI   C4A 3914   1.017  13.803   7.404 -0.0945 -0.1204  0.1351
  245loPI   C5A 3915   0.829  14.021   7.011  0.6298 -0.3711  0.0585
  245loPI   C6A 3916   0.836  14.416   7.150 -0.1637  0.2639 -0.0404
  245loPI   C1B 3917   1.416  13.612   8.897 -0.1982 -0.0334 -0.3354
  245loPI   C2B 3918   1.382  13.618   8.473  0.3783  0.4818 -0.3378
  245loPI   C3B 3919   1.404  13.673   7.960  0.2361 -0.0989 -0.0475
  245loPI   C4B 3920   1.510  13.651   7.514 -0.0798 -0.3906  0.2239
  246loPI    C1 3921   6.693   4.356   9.509  0.1123  0.2387 -0.1125
  246loPI    C2 3922   6.385   4.596   9.594 -0.0912 -0.0771  0.0615
  246loPI    C3 3923   6.578   4.407   9.889  0.2807  0.1274 -0.0452
  246loPI   PO4 3924   6.614   4.258   9.260  0.2021  0.2998 -0.0311
  246loPI   GL1 3925   6.575   4.241   8.876  0.0298 -0.1437  0.0143
  246loPI   GL2 3926   6.740   4.273   8.699  0.2950  0.1060  0.1427
  246loPI   C1A 3927   6.226   4.213   8.595 -0.0264 -0.1266  0.3408
  246loPI   C2A 3928   6.331   4.095   8.120 -0.0725 -0.0986 -0.5301
  246loPI   C3A 3929   6.431   4.128   7.752 -0.2463  0.1071  0.0808
  246loPI   C4A 3930   6.301   4.313   7.368 -0.0073  0.1553 -0.0558
  246loPI   C5A 3931   6.244   4.423   6.957  0.2046  0.0745 -0.1624
  246loPI   C6A 3932   5.822   4.596   6.708 -0.0339 -0.1072 -0.1223
  246loPI   C1B 3933   6.744   4.444   8.346 -0.0540  0.0745  0.1394
  246loPI   C2B 3934   6.887   4.506   7.904  0.1333  0.1847  0.0114
  246loPI   C3B 3935   7.129   4.448   7.556 -0.0824 -0.2197  0.2466
  246loPI   C4B 3936   7.157   4.381   7.079 -0.0845  0.0975 -0.0136
  247loPI    C1 3937   6.653   9.148   9.683  0.0142 -0.2917  0.0044
  247loPI    C2 3938   6.933   9.430   9.729 -0.1648 -0.0942 -0.0971
  247loPI    C3 3939   6.970   9.079   9.917  0.1229 -0.0510 -0.0682
  247loPI   PO4 3940   6.677   9.141   9.413  0.0086 -0.2339 -0.1592
  247loPI   GL1 3941   6.460   9.102   8.978 -0.4870 -0.1267  0.1445
  247loPI   GL2 3942   6.608   8.819   8.835 -0.1812 -0.0056  0.1896
  247loPI   C1A 3943   6.439   9.261   8.608  0.0515  0.2042 -0.0734
  247loPI   C2A 3944   6.319   9.484   8.358 -0.5286  0.0531 -0.4050
  247loPI   C3A 3945   6.148   9.296   8.062  0.2291 -0.0822 -0.2102
  247loPI   C4A 3946   5.940   9.131   7.805  0.2616  0.1984  0.0330
  247loPI   C5A 3947   5.688   8.961   7.439  0.0540  0.0695 -0.2689
  247loPI   C6A 3948   5.488   8.822   7.205  0.2006  0.1179 -0.3369
  247loPI   C1B 3949   6.876   9.058   8.567 -0.1893 -0.1212 -0.0870
  247loPI   C2B 3950   7.113   9.093   8.311  0.0576 -0.1513  0.1547
  247loPI   C3B 3951   7.288   9.031   7.837  0.2657  0.2118 -0.2409
  247loPI   C4B 3952   7.191   8.922   7.384  0.1946  0.1991 -0.0118
  248loPI    C1 3953   8.792   1.196   9.540 -0.4358 -0.1514  0.0281
  248loPI    C2 3954   8.997   1.096   9.869 -0.2213 -0.2428 -0.1311
  248loPI    C3 3955   8.789   1.437   9.859  0.1331 -0.0190 -0.0547
  248loPI   PO4 3956   8.628   1.022   9.565 -0.0657  0.0397  0.4364
  248loPI   GL1 3957   8.558   0.879   9.148  0.1490 -0.0380  0.2038
  248loPI   GL2 3958   8.767   0.551   9.101  0.0843  0.0074 -0.0427
  248loPI   C1A 3959   8.699   1.053   8.765  0.2491 -0.1851  0.0958
  248loPI   C2A 3960   8.704   1.311   8.408  0.6211 -0.1224  0.3028
  248loPI   C3A 3961   8.636   1.303   7.902 -0.1455 -0.0595 -0.1842
  248loPI   C4A 3962   8.494   1.375   7.504  0.0500 -0.0376 -0.2045
  248loPI   C5A 3963   8.732   1.216   7.219 -0.0085 -0.0429 -0.2471
  248loPI   C6A 3964   8.828   1.044   6.894  0.2091  0.1539  0.2459
  248loPI   C1B 3965   8.647   0.521   8.671  0.0205 -0.0019  0.0572
  248loPI   C2B 3966   8.462   0.299   8.289 -0.0955 -0.0385  0.0657
  248loPI   C3B 3967   8.548   0.094   7.859 -0.3738 -0.2655  0.2025
  248loPI   C4B 3968   8.480   0.106   7.385 -0.5008  0.1441 -0.0103
  249loPI    C1 3969   4.079  11.764   9.786  0.0654  0.2096  0.0098
  249loPI    C2 3970   4.443  11.862   9.920  0.0863  0.2491 -0.0750
  249loPI    C3 3971   4.124  12.072  10.037  0.0193 -0.1102  0.4208
  249loPI   PO4 3972   4.015  11.767   9.481 -0.1420  0.1809 -0.1057
  249loPI   GL1 3973   3.994  12.131   9.218  0.0158 -0.2446  0.1763
  249loPI   GL2 3974   3.939  12.476   9.207  0.0261  0.0098 -0.3887
  249loPI   C1A 3975   4.152  12.013   8.896  0.4512 -0.1023 -0.1778
  249loPI   C2A 3976   4.406  12.138   8.506 -0.0264 -0.0103 -0.0133
  249loPI   C3A 3977   4.465  12.559   8.324  0.4029  0.1418 -0.1487
  249loPI   C4A 3978   4.399  12.879   8.109 -0.1878 -0.2424 -0.3053
  249loPI   C5A 3979   4.613  12.861   7.627  0.1919 -0.1614 -0.2344
  249loPI   C6A 3980   4.707  13.012   7.242 -0.0227  0.0543  0.1525
  249loPI   C1B 3981   3.846  12.468   8.823 -0.1818 -0.1154 -0.0044
  249loPI   C2B 3982   3.950  12.510   8.400 -0.2446 -0.0211 -0.0229
  249loPI   C3B 3983   3.920  12.451   7.847  0.2878  0.1527 -0.1142
  249loPI   C4B 3984   3.819  12.477   7.362 -0.0768 -0.0779 -0.2360
  250loPI    C1 3985  14.495  12.718  10.093 -0.0584 -0.1357  0.0399
  250loPI    C2 3986  14.608  12.645  10.469 -0.1941  0.1474  0.1381
  250loPI    C3 3987  14.222  12.622  10.368 -0.1409 -0.0758 -0.0207
  250loPI   PO4 3988  14.650  12.763   9.912 -0.2026  0.1740 -0.1768
  250loPI   GL1 3989  14.686  12.910   9.425 -0.2141 -0.3691 -0.0248
  250loPI   GL2 3990  15.059  13.031   9.335  0.2140 -0.0157  0.0205
  250loPI   C1A 3991  14.708  12.833   8.946 -0.0222 -0.0981  0.0782
  250loPI   C2A 3992  14.615  12.801   8.484  0.2249 -0.3146  0.0453
  250loPI   C3A 3993  14.473  12.754   8.056  0.0147  0.0117  0.0107
  250loPI   C4A 3994  14.413  12.772   7.717  0.0956  0.2324 -0.0227
  250loPI   C5A 3995  14.158  13.065   7.599 -0.2357 -0.1755 -0.4213
  250loPI   C6A 3996  14.005  13.237   7.475 -0.0756 -0.6442  0.2387
  250loPI   C1B 3997  15.167  12.932   8.884 -0.2558 -0.1729 -0.0520
  250loPI   C2B 3998  15.135  13.026   8.519  0.0618 -0.1997  0.0137
  250loPI   C3B 3999  15.167  13.054   8.091 -0.1608  0.2718 -0.1795
  250loPI   C4B 4000  14.856  12.951   7.849  0.4520 -0.6645  0.0597
  251loPI    C1 4001   7.158  17.226   9.555  0.2638 -0.3053 -0.0719
  251loPI    C2 4002   7.389  17.157   9.236  0.1792 -0.1163 -0.1754
  251loPI    C3 4003   7.402  17.512   9.419  0.2920 -0.2531  0.0862
  251loPI   PO4 4004   6.935  17.056   9.448  0.0111  0.1426 -0.4172
  251loPI   GL1 4005   6.865  16.981   8.987  0.1010  0.1411 -0.1220
  251loPI   GL2 4006   7.116  16.765   9.024 -0.0782 -0.0321 -0.3241
  251loPI   C1A 4007   6.954  17.042   8.526 -0.3407  0.2293  0.0754
  251loPI   C2A 4008   7.130  16.966   8.080 -0.1910  0.1417 -0.1163
  251loPI   C3A 4009   7.122  16.779   7.644 -0.2135  0.2098 -0.0097
  251loPI   C4A 4010   7.313  16.819   7.259  0.2211 -0.0681 -0.1959
  251loPI   C5A 4011   7.381  17.225   7.069 -0.0872 -0.3085  0.0635
  251loPI   C6A 4012   7.615  17.571   7.199 -0.1245  0.3842  0.1309
  251loPI   C1B 4013   7.435  17.033   8.709  0.1344 -0.4063 -0.0498
  251loPI   C2B 4014   7.625  17.044   8.242  0.2003  0.2898  0.0124
  251loPI   C3B 4015   7.787  16.869   7.819  0.0584 -0.1864  0.5072
  251loPI   C4B 4016   7.928  17.149   7.358  0.3139  0.3032 -0.4116
  252loPI    C1 4017   6.916  15.172   9.867 -0.2036  0.0721  0.3449
  252loPI    C2 4018   7.252  15.352   9.746 -0.2092  0.0170  0.2461
  252loPI    C3 4019   7.150  15.357  10.133 -0.0048 -0.1154  0.3033
  252loPI   PO4 4020   6.782  15.250   9.599  0.1450  0.1801 -0.2452
  252loPI   GL1 4021   6.874  15.513   9.317 -0.0797  0.1515  0.1416
  252loPI   GL2 4022   6.878  15.825   9.251 -0.3324 -0.0063 -0.2446
  252loPI   C1A 4023   6.766  15.350   8.907 -0.0116 -0.2152  0.1726
  252loPI   C2A 4024   6.882  15.400   8.458 -0.0478  0.0732  0.3514
  252loPI   C3A 4025   7.133  15.388   8.106  0.1840  0.0009  0.1587
  252loPI   C4A 4026   7.331  15.427   7.745 -0.3832 -0.1213  0.0229
  252loPI   C5A 4027   7.558  15.565   7.397  0.0252 -0.1532 -0.0097
  252loPI   C6A 4028   7.520  15.892   7.167  0.1584 -0.1076 -0.0467
  252loPI   C1B 4029   7.114  15.819   8.887  0.1244 -0.0849  0.0748
  252loPI   C2B 4030   7.243  16.034   8.558  0.0693 -0.3234  0.2898
  252loPI   C3B 4031   7.348  15.880   8.205  0.1520 -0.0232 -0.2204
  252loPI   C4B 4032   7.341  15.916   7.830  0.3364  0.1061  0.2069
  253loPI    C1 4033  12.664   6.288   9.818  0.1535 -0.1293 -0.0674
  253loPI    C2 4034  12.944   6.169  10.078  0.0820 -0.1333  0.0084
  253loPI    C3 4035  12.558   6.110  10.160  0.0535 -0.0175 -0.0396
  253loPI   PO4 4036  12.687   6.469   9.627 -0.0324 -0.1179 -0.1013
  253loPI   GL1 4037  12.766   6.336   9.202 -0.0519  0.1880  0.2623
  253loPI   GL2 4038  12.474   6.210   8.966 -0.0874  0.1316  0.1963
  253loPI   C1A 4039  12.912   6.261   8.695  0.4006  0.1715 -0.0460
  253loPI   C2A 4040  13.146   6.230   8.334  0.2317  0.4770 -0.0236
  253loPI   C3A 4041  12.998   6.148   7.925  0.5755 -0.0285 -0.0522
  253loPI   C4A 4042  12.966   6.091   7.543  0.0776  0.0011 -0.3096
  253loPI   C5A 4043  12.667   6.261   7.235 -0.0930  0.1463  0.4091
  253loPI   C6A 4044  12.377   6.318   6.969 -0.0143 -0.0907  0.2353
  253loPI   C1B 4045  12.277   6.537   8.786  0.1464 -0.0718 -0.3398
  253loPI   C2B 4046  12.136   6.915   8.536  0.1668  0.1449  0.0389
  253loPI   C3B 4047  12.206   7.192   8.106  0.1549  0.0068 -0.1838
  253loPI   C4B 4048  12.372   7.400   7.810 -0.2768 -0.0259  0.0613
  254loPI    C1 4049   8.882   2.783   9.304 -0.1741 -0.0620 -0.2001
  254loPI    C2 4050   9.245   2.888   9.172 -0.1289  0.0499  0.0091
  254loPI    C3 4051   9.180   2.516   9.304 -0.0827  0.0377 -0.0023
  254loPI   PO4 4052   8.705   2.882   9.056 -0.0325  0.1975 -0.4085
  254loPI   GL1 4053   8.714   3.029   8.608  0.0503  0.0360  0.3508
  254loPI   GL2 4054   8.781   3.311   8.392  0.4054 -0.0348 -0.1691
  254loPI   C1A 4055   8.633   2.697   8.238  0.1891 -0.3592 -0.2373
  254loPI   C2A 4056   8.710   2.869   7.746 -0.0919 -0.1498 -0.0676
  254loPI   C3A 4057   8.849   2.866   7.380  0.2676 -0.4205  0.2004
  254loPI   C4A 4058   9.069   2.697   7.059  0.3435 -0.1551  0.1120
  254loPI   C5A 4059   9.332   2.484   6.866  0.0980 -0.1929  0.1326
  254loPI   C6A 4060   9.390   2.346   6.478  0.1992 -0.3518  0.3231
  254loPI   C1B 4061   8.929   3.356   8.015 -0.0277 -0.0501  0.0628
  254loPI   C2B 4062   8.810   3.364   7.603 -0.0715 -0.0710 -0.1331
  254loPI   C3B 4063   8.835   3.297   7.113 -0.1865  0.4149 -0.0430
  254loPI   C4B 4064   9.037   3.463   6.852 -0.0384 -0.0641 -0.0872
  255loPI    C1 4065   3.584  19.050   9.305  0.0026  0.1242  0.0889
  255loPI    C2 4066   3.663  19.394   9.118 -0.2082  0.2109  0.1561
  255loPI    C3 4067   3.781  19.340   9.496  0.0986  0.0878  0.0458
  255loPI   PO4 4068   3.589  18.916   8.999 -0.0816 -0.0753 -0.1525
  255loPI   GL1 4069   3.254  18.860   8.623  0.1381 -0.0279 -0.2005
  255loPI   GL2 4070   3.447  18.453   8.637 -0.0622  0.0189 -0.0907
  255loPI   C1A 4071   3.139  19.079   8.357  0.1770  0.0599  0.1809
  255loPI   C2A 4072   3.110  19.506   8.186 -0.0030 -0.1328  0.2117
  255loPI   C3A 4073   3.316  19.722   7.965 -0.2646 -0.4403 -0.3359
  255loPI   C4A 4074   3.402  19.753   7.544  0.1242  0.2063  0.0645
  255loPI   C5A 4075   3.415  19.896   7.170 -0.2739 -0.0959  0.0571
  255loPI   C6A 4076   3.533  20.180   6.926 -0.0154  0.0196 -0.0238
  255loPI   C1B 4077   3.694  18.369   8.322  0.2547  0.1325  0.0337
  255loPI   C2B 4078   3.546  18.384   7.930 -0.0096  0.1139 -0.1217
  255loPI   C3B 4079   3.251  18.559   7.559 -0.2620  0.0848  0.0480
  255loPI   C4B 4080   2.900  18.442   7.216  0.1613  0.2122 -0.1187
  256loPI    C1 4081  10.789  15.153  10.410  0.0403 -0.0712 -0.0434
  256loPI    C2 4082  11.104  14.962  10.566 -0.2074 -0.2975  0.1917
  256loPI    C3 4083  10.910  15.237  10.782  0.2537  0.3719 -0.2051
  256loPI   PO4 4084  10.818  15.187  10.179  0.2257  0.0554 -0.1277
  256loPI   GL1 4085  10.803  15.180   9.769  0.0182 -0.0167  0.0697
  256loPI   GL2 4086  10.588  15.428   9.841 -0.2375 -0.1059  0.0988
  256loPI   C1A 4087  10.481  15.123   9.393  0.1055 -0.0050  0.2861
  256loPI   C2A 4088  10.377  15.221   8.965 -0.0993 -0.4265  0.0777
  256loPI   C3A 4089  10.523  15.193   8.604 -0.0335  0.1276  0.3998
  256loPI   C4A 4090  10.545  14.928   8.253 -0.1181 -0.2115  0.2244
  256loPI   C5A 4091  10.527  14.932   7.792 -0.0799  0.0738 -0.0229
  256loPI   C6A 4092  10.232  15.030   7.442  0.1551  0.0184  0.0262
  256loPI   C1B 4093  10.489  15.650   9.550 -0.1664 -0.2535  0.0364
  256loPI   C2B 4094  10.601  15.696   9.149  0.0935 -0.1278  0.1795
  256loPI   C3B 4095  10.743  15.588   8.775 -0.2220 -0.0485  0.2849
  256loPI   C4B 4096  10.986  15.362   8.550  0.1397  0.1585 -0.0289
  257loPI    C1 4097  18.477   6.039   9.686  0.2570 -0.1046  0.0880
  257loPI    C2 4098  18.525   6.436   9.685 -0.0407 -0.0666  0.0857
  257loPI    C3 4099  18.769   6.206   9.903  0.1567  0.1135  0.0578
  257loPI   PO4 4100  18.326   6.009   9.343 -0.4350  0.0523 -0.2043
  257loPI   GL1 4101  18.219   5.754   8.950 -0.2130  0.0134 -0.0920
  257loPI   GL2 4102  18.546   5.842   8.927  0.4494  0.0101  0.3941
  257loPI   C1A 4103  18.127   5.586   8.611 -0.1340 -0.0920  0.2352
  257loPI   C2A 4104  18.178   5.857   8.347 -0.0087  0.1930 -0.0255
  257loPI   C3A 4105  18.182   6.003   7.904 -0.0613  0.0842  0.4331
  257loPI   C4A 4106  18.130   5.963   7.445  0.0989  0.2286  0.0080
  257loPI   C5A 4107  18.305   5.871   7.054  0.2764  0.1019 -0.4714
  257loPI   C6A 4108  18.282   5.846   6.650 -0.1114  0.1360 -0.1230
  257loPI   C1B 4109  18.622   5.764   8.506 -0.1387 -0.6410 -0.0394
  257loPI   C2B 4110  18.646   5.577   8.025  0.1385  0.0688  0.3428
  257loPI   C3B 4111  18.445   5.546   7.579 -0.0276  0.2614 -0.2554
  257loPI   C4B 4112  18.328   5.328   7.200 -0.1467 -0.3471 -0.2109
  258loPI    C1 4113   6.036   3.427   9.223 -0.1319 -0.0477  0.0057
  258loPI    C2 4114   5.656   3.304   9.199 -0.1406  0.0065 -0.1448
  258loPI    C3 4115   5.848   3.294   9.550 -0.2585 -0.0866 -0.0822
  258loPI   PO4 4116   6.168   3.326   9.023  0.2696 -0.4773  0.3032
  258loPI   GL1 4117   6.276   3.531   8.697  0.0539  0.1236  0.2139
  258loPI   GL2 4118   6.579   3.656   8.593 -0.4240  0.0868  0.1526
  258loPI   C1A 4119   5.999   3.812   8.395 -0.2136  0.1784  0.0351
  258loPI   C2A 4120   5.919   3.852   7.989 -0.1073 -0.1083 -0.2706
  258loPI   C3A 4121   5.953   3.903   7.576  0.1626  0.2115  0.2413
  258loPI   C4A 4122   5.700   3.712   7.159  0.1167 -0.1365 -0.1607
  258loPI   C5A 4123   5.468   3.283   7.155 -0.0111  0.2660 -0.0781
  258loPI   C6A 4124   5.373   3.017   6.816 -0.2735 -0.0217  0.4868
  258loPI   C1B 4125   6.366   3.557   8.194  0.0494 -0.0858  0.0452
  258loPI   C2B 4126   6.363   3.610   7.800  0.2010 -0.3505 -0.0320
  258loPI   C3B 4127   6.361   3.620   7.373 -0.3539  0.0422 -0.0357
  258loPI   C4B 4128   6.178   3.800   7.186  0.0349  0.0214  0.2514
  259loPI    C1 4129   7.980   8.314   9.184 -0.0649  0.2177 -0.2081
  259loPI    C2 4130   7.827   7.992   9.002  0.1588  0.0780 -0.1531
  259loPI    C3 4131   8.052   7.948   9.330  0.2583  0.2852 -0.1920
  259loPI   PO4 4132   7.739   8.505   9.075 -0.3744 -0.3181  0.0927
  259loPI   GL1 4133   7.534   8.460   8.753 -0.2128  0.0724 -0.0820
  259loPI   GL2 4134   7.599   8.687   8.477 -0.0664 -0.2196  0.1058
  259loPI   C1A 4135   7.667   8.256   8.377  0.1210  0.3613 -0.0997
  259loPI   C2A 4136   7.565   8.273   7.898 -0.1588  0.3445  0.2736
  259loPI   C3A 4137   7.291   8.057   7.696 -0.2804  0.0338 -0.1261
  259loPI   C4A 4138   7.202   7.826   7.306  0.4811  0.2746 -0.2093
  259loPI   C5A 4139   6.898   7.939   6.880  0.0367 -0.0163 -0.2448
  259loPI   C6A 4140   6.466   7.770   6.791  0.1719 -0.1991  0.1054
  259loPI   C1B 4141   7.618   8.777   8.033  0.1842  0.3423  0.0246
  259loPI   C2B 4142   7.614   8.752   7.641  0.1039 -0.0514  0.0461
  259loPI   C3B 4143   7.690   8.942   7.154  0.2250 -0.3426 -0.0913
  259loPI   C4B 4144   7.825   8.978   6.716 -0.4469  0.3828  0.0698
  260loPI    C1 4145   7.561  17.133   9.892  0.0373 -0.0375 -0.2680
  260loPI    C2 4146   7.333  16.814   9.973  0.1357 -0.0253  0.0728
  260loPI    C3 4147   7.203  17.182  10.065  0.1329  0.0130 -0.0818
  260loPI   PO4 4148   7.678  17.031   9.655  0.0759 -0.2856  0.2206
  260loPI   GL1 4149   7.937  17.210   9.412 -0.1176 -0.1018  0.2838
  260loPI   GL2 4150   7.917  17.501   9.293  0.2305  0.0226 -0.3096
  260loPI   C1A 4151   7.936  16.951   8.976 -0.3374 -0.3250 -0.0797
  260loPI   C2A 4152   8.035  16.970   8.538 -0.0951  0.0835  0.0277
  260loPI   C3A 4153   8.284  17.001   8.144  0.3893  0.0051  0.1937
  260loPI   C4A 4154   8.270  17.102   7.714  0.1271  0.2245 -0.3552
  260loPI   C5A 4155   8.586  16.789   7.651  0.3386 -0.1728  0.0779
  260loPI   C6A 4156   8.923  16.573   7.588  0.2070 -0.0620 -0.3079
  260loPI   C1B 4157   7.635  17.536   8.988  0.1309 -0.1373  0.3603
  260loPI   C2B 4158   7.746  17.459   8.529  0.4635 -0.1013  0.0973
  260loPI   C3B 4159   7.908  17.403   7.917  0.2306 -0.1929  0.1463
  260loPI   C4B 4160   7.926  17.591   7.575 -0.1850 -0.1639 -0.3594
  261loPI    C1 4161   1.521   6.148   9.804  0.2233 -0.0574 -0.0425
  261loPI    C2 4162   1.856   6.058  10.004  0.1843 -0.0271  0.0367
  261loPI    C3 4163   1.506   6.076  10.197  0.1731  0.1757 -0.0003
  261loPI   PO4 4164   1.561   5.997   9.527  0.1477  0.1069 -0.0938
  261loPI   GL1 4165   1.369   6.170   9.211 -0.1862  0.1094  0.3446
  261loPI   GL2 4166   1.413   6.527   9.233  0.1825  0.3036 -0.2113
  261loPI   C1A 4167   1.533   6.012   8.843  0.1521 -0.1013  0.0022
  261loPI   C2A 4168   1.424   6.195   8.405 -0.1050 -0.1362 -0.1172
  261loPI   C3A 4169   1.479   6.350   7.978  0.0860 -0.0450  0.0742
  261loPI   C4A 4170   1.663   6.630   7.646  0.2773 -0.0421 -0.0742
  261loPI   C5A 4171   1.573   6.911   7.283  0.4566  0.0249 -0.1881
  261loPI   C6A 4172   1.587   7.399   7.252  0.4301  0.1277  0.0118
  261loPI   C1B 4173   1.536   6.543   8.741  0.0541 -0.0837 -0.2191
  261loPI   C2B 4174   1.709   6.650   8.325 -0.1682  0.3855 -0.0695
  261loPI   C3B 4175   1.616   6.912   8.081  0.2249  0.1554 -0.0171
  261loPI   C4B 4176   1.602   7.142   7.747 -0.0330 -0.0917  0.1402
  262loPI    C1 4177  15.866   9.411  10.157  0.0731  0.0411 -0.0239
  262loPI    C2 4178  15.563   9.515  10.396 -0.1026  0.0428 -0.2446
  262loPI    C3 4179  15.879   9.321  10.547 -0.1191  0.2204  0.0254
  262loPI   PO4 4180  15.740   9.221   9.947  0.1599 -0.0205  0.1829
  262loPI   GL1 4181  15.818   9.124   9.494  0.2430 -0.0172 -0.0291
  262loPI   GL2 4182  16.167   9.031   9.343  0.0230  0.3844 -0.2192
  262loPI   C1A 4183  15.783   9.451   9.083 -0.0656  0.1573 -0.1139
  262loPI   C2A 4184  15.707   9.549   8.691  0.3521 -0.1071  0.0849
  262loPI   C3A 4185  15.576   9.534   8.334 -0.1940 -0.0278  0.0956
  262loPI   C4A 4186  15.474   9.473   7.831  0.0859 -0.1095  0.4650
  262loPI   C5A 4187  15.022   9.390   7.442  0.0604 -0.2357 -0.2133
  262loPI   C6A 4188  14.918   8.999   7.245 -0.1151 -0.2465 -0.0380
  262loPI   C1B 4189  16.205   9.287   8.854 -0.0386 -0.0600 -0.0135
  262loPI   C2B 4190  16.040   9.316   8.438  0.0050  0.1213  0.2751
  262loPI   C3B 4191  15.934   9.413   8.059 -0.2838  0.0590  0.0734
  262loPI   C4B 4192  15.834   9.179   7.642  0.2204 -0.0718  0.1117
  263loPI    C1 4193  12.977  17.943   9.781 -0.1018 -0.1245 -0.1286
  263loPI    C2 4194  13.088  17.723  10.096  0.0070 -0.2364 -0.2443
  263loPI    C3 4195  13.077  18.122  10.124 -0.2780 -0.2580 -0.0058
  263loPI   PO4 4196  13.092  17.903   9.590  0.1191  0.1629 -0.0283
  263loPI   GL1 4197  13.241  17.636   9.205 -0.2106 -0.3599  0.3086
  263loPI   GL2 4198  12.973  17.722   9.054 -0.0519  0.1212 -0.2488
  263loPI   C1A 4199  13.453  17.509   8.860  0.0614  0.0230 -0.0902
  263loPI   C2A 4200  13.751  17.627   8.579 -0.0581 -0.3042  0.3275
  263loPI   C3A 4201  13.901  17.441   8.176 -0.4550 -0.1861  0.4368
  263loPI   C4A 4202  13.882  17.246   7.807  0.2396 -0.0266  0.0855
  263loPI   C5A 4203  13.932  17.024   7.461  0.2387  0.1284  0.2547
  263loPI   C6A 4204  14.209  17.197   7.140  0.2872 -0.1445 -0.3656
  263loPI   C1B 4205  13.007  17.783   8.698  0.7813 -0.0698  0.2782
  263loPI   C2B 4206  13.221  17.787   8.357  0.1427 -0.0422  0.2422
  263loPI   C3B 4207  13.237  17.955   7.970  0.0199 -0.1450  0.2758
  263loPI   C4B 4208  13.093  17.782   7.625 -0.0141  0.0276 -0.0553
  264loPI    C1 4209  10.672  14.305  10.182  0.1077  0.1200 -0.3921
  264loPI    C2 4210  10.573  14.681  10.278 -0.0767  0.0242 -0.1964
  264loPI    C3 4211  10.818  14.472  10.515 -0.1054 -0.0345 -0.2182
  264loPI   PO4 4212  10.807  14.291   9.932  0.1486 -0.0801  0.2310
  264loPI   GL1 4213  10.741  14.150   9.476  0.3153  0.1210 -0.1104
  264loPI   GL2 4214  11.002  13.946   9.485  0.1643 -0.1508 -0.1292
  264loPI   C1A 4215  10.634  14.199   9.039 -0.2302 -0.2005 -0.0014
  264loPI   C2A 4216  10.701  14.322   8.626 -0.1120 -0.1382 -0.0285
  264loPI   C3A 4217  10.805  14.341   8.137 -0.1363 -0.0634 -0.2700
  264loPI   C4A 4218  10.730  14.218   7.762  0.0778 -0.0270 -0.2573
  264loPI   C5A 4219  10.411  14.379   7.610 -0.1985 -0.2590  0.3496
  264loPI   C6A 4220  10.077  14.519   7.284  0.1247 -0.3057 -0.1804
  264loPI   C1B 4221  11.184  14.018   9.100  0.0494  0.1016  0.1739
  264loPI   C2B 4222  11.138  13.996   8.717 -0.0634  0.0246  0.1412
  264loPI   C3B 4223  11.209  13.947   8.356  0.1820  0.1894  0.6341
  264loPI   C4B 4224  11.036  13.830   8.000 -0.0707  0.0105 -0.3196
  265loPI    C1 4225   3.370   8.328   9.444  0.0875 -0.0104 -0.2820
  265loPI    C2 4226   3.345   8.110   9.778 -0.0062  0.0432 -0.2533
  265loPI    C3 4227   3.691   8.132   9.578  0.2500  0.5651  0.2190
  265loPI   PO4 4228   3.200   8.408   9.288 -0.2511 -0.1477 -0.0489
  265loPI   GL1 4229   2.939   8.142   8.956 -0.0787 -0.2136 -0.0636
  265loPI   GL2 4230   2.643   8.062   8.947  0.1844 -0.3119  0.2895
  265loPI   C1A 4231   3.088   8.323   8.440  0.1124  0.0306 -0.2142
  265loPI   C2A 4232   3.312   8.428   8.142 -0.0180 -0.4023  0.2214
  265loPI   C3A 4233   3.464   8.481   7.754 -0.0718  0.1044 -0.0807
  265loPI   C4A 4234   3.474   8.524   7.263 -0.2792 -0.2438  0.4758
  265loPI   C5A 4235   3.749   8.783   6.936 -0.1190  0.0265  0.6846
  265loPI   C6A 4236   4.156   8.852   6.689 -0.1833 -0.1135  0.0586
  265loPI   C1B 4237   2.683   8.019   8.472  0.1131  0.2287 -0.3040
  265loPI   C2B 4238   2.929   8.089   8.084 -0.0945 -0.0910  0.1692
  265loPI   C3B 4239   3.089   7.946   7.813  0.3028 -0.4520  0.0933
  265loPI   C4B 4240   3.031   7.785   7.386  0.1761  0.1566 -0.2249
  266loPI    C1 4241  11.434   0.333   9.624 -0.1370  0.0364  0.0758
  266loPI    C2 4242  11.533   0.465   9.989  0.0822 -0.0338  0.0433
  266loPI    C3 4243  11.496   0.072   9.922 -0.0789 -0.0149  0.0193
  266loPI   PO4 4244  11.569   0.534   9.484  0.2520  0.0208  0.1902
  266loPI   GL1 4245  11.798   0.300   9.159 -0.0942  0.0395 -0.2953
  266loPI   GL2 4246  12.165   0.432   9.055  0.1502  0.2870 -0.0062
  266loPI   C1A 4247  11.897   0.131   8.736 -0.4398 -0.1478  0.3114
  266loPI   C2A 4248  11.678  -0.170   8.290 -0.1089 -0.1835  0.2020
  266loPI   C3A 4249  11.524  -0.091   7.883  0.3742  0.1298 -0.0585
  266loPI   C4A 4250  11.641   0.132   7.370  0.0900  0.1302 -0.1852
  266loPI   C5A 4251  11.947   0.124   7.154 -0.1394 -0.1885  0.0242
  266loPI   C6A 4252  12.239   0.102   6.808  0.1646  0.1956  0.2918
  266loPI   C1B 4253  12.202   0.446   8.645  0.0119 -0.1964 -0.1170
  266loPI   C2B 4254  12.225   0.629   8.204 -0.1861  0.1973 -0.1992
  266loPI   C3B 4255  12.043   0.741   7.705  0.3577  0.2340 -0.3293
  266loPI   C4B 4256  12.122   0.517   7.392 -0.1182  0.0639 -0.0840
  267loPI    C1 4257   0.740   9.572   9.519  0.0841 -0.2185 -0.0615
  267loPI    C2 4258   0.556   9.537   9.872  0.0259 -0.2018 -0.0900
  267loPI    C3 4259   0.941   9.433   9.836  0.0790 -0.0472  0.0182
  267loPI   PO4 4260   0.515   9.510   9.359 -0.1045 -0.3031  0.0072
  267loPI   GL1 4261   0.351   9.194   9.135  0.0402 -0.1902  0.0745
  267loPI   GL2 4262   0.228   8.873   9.241  0.0233 -0.1093  0.1795
  267loPI   C1A 4263   0.428   9.163   8.655  0.3585  0.0191 -0.4897
  267loPI   C2A 4264   0.359   9.114   8.246 -0.2315 -0.2610 -0.1097
  267loPI   C3A 4265   0.550   9.056   7.859  0.1290  0.1107  0.1138
  267loPI   C4A 4266   0.815   8.948   7.427  0.2802 -0.1206 -0.2050
  267loPI   C5A 4267   1.155   9.081   7.169 -0.2861  0.0431  0.0424
  267loPI   C6A 4268   1.434   9.337   6.981  0.4267 -0.1298  0.1569
  267loPI   C1B 4269   0.403   8.688   8.865  0.1199 -0.0799  0.1226
  267loPI   C2B 4270   0.237   8.727   8.485 -0.1043 -0.0836  0.0366
  267loPI   C3B 4271   0.129   8.798   7.977  0.0900  0.0669  0.1599
  267loPI   C4B 4272  -0.013   8.411   7.574 -0.0409  0.0523  0.0185
  268loPI    C1 4273  17.095  18.856   9.729 -0.0150  0.0051  0.0780
  268loPI    C2 4274  17.149  19.208   9.912  0.1362 -0.0698  0.1792
  268loPI    C3 4275  17.236  18.867  10.103  0.0933 -0.1579  0.0431
  268loPI   PO4 4276  17.337  18.825   9.462 -0.0467 -0.2804 -0.0511
  268loPI   GL1 4277  17.509  18.904   9.007  0.0750  0.3795 -0.4732
  268loPI   GL2 4278  17.848  18.856   9.060 -0.0955  0.1856  0.2259
  268loPI   C1A 4279  17.541  18.916   8.579  0.2300 -0.4531  0.1681
  268loPI   C2A 4280  17.569  18.752   8.146 -0.0020 -0.1060 -0.0171
  268loPI   C3A 4281  17.425  18.912   7.681 -0.0071  0.0474  0.0395
  268loPI   C4A 4282  17.458  19.036   7.250  0.1831  0.1465  0.1861
  268loPI   C5A 4283  17.346  18.964   6.754  0.0339  0.2356  0.0660
  268loPI   C6A 4284  17.101  18.523   6.692 -0.2360  0.0895  0.0909
  268loPI   C1B 4285  17.808  18.479   8.806 -0.0457 -0.1896  0.0772
  268loPI   C2B 4286  17.581  18.425   8.438  0.0715 -0.1894  0.1166
  268loPI   C3B 4287  17.655  18.240   7.965 -0.0049 -0.1898  0.2032
  268loPI   C4B 4288  17.888  18.344   7.606  0.0053 -0.0362  0.1325
  269loPI    C1 4289  10.506  13.251  10.120 -0.0261  0.0178 -0.2540
  269loPI    C2 4290  10.897  13.332  10.122  0.0232 -0.1822  0.3206
  269loPI    C3 4291  10.661  13.483  10.406 -0.3164 -0.0933 -0.0006
  269loPI   PO4 4292  10.441  13.250   9.854 -0.4918  0.1289 -0.2795
  269loPI   GL1 4293  10.862  13.073   9.621 -0.0604 -0.1038 -0.1684
  269loPI   GL2 4294  10.738  13.265   9.435 -0.0396 -0.0379  0.0309
  269loPI   C1A 4295  10.915  12.793   9.206  0.0466 -0.0590  0.0327
  269loPI   C2A 4296  10.814  12.742   8.744 -0.0624  0.1979 -0.1829
  269loPI   C3A 4297  10.857  12.893   8.418  0.4692 -0.0027 -0.2654
  269loPI   C4A 4298  10.804  12.930   8.010 -0.0279 -0.0193 -0.2602
  269loPI   C5A 4299  10.699  12.999   7.591  0.1364  0.2462  0.1397
  269loPI   C6A 4300  10.389  13.129   7.385 -0.0896 -0.1125 -0.1610
  269loPI   C1B 4301  10.653  13.644   9.214 -0.2827  0.1930 -0.0380
  269loPI   C2B 4302  10.719  13.748   8.824  0.0054  0.1244  0.1767
  269loPI   C3B 4303  10.714  13.757   8.459  0.3183  0.2443  0.1466
  269loPI   C4B 4304  10.418  14.065   8.245  0.0353  0.0368 -0.0859
  270loPI    C1 4305   2.161   2.605   9.473 -0.1511 -0.1463  0.1216
  270loPI    C2 4306   2.086   2.858   9.773 -0.0372 -0.0291  0.0526
  270loPI    C3 4307   2.434   2.879   9.577  0.0361 -0.3384  0.1442
  270loPI   PO4 4308   1.922   2.646   9.332 -0.0269 -0.3719  0.2982
  270loPI   GL1 4309   1.848   2.600   8.898 -0.1021 -0.0189 -0.0013
  270loPI   GL2 4310   1.647   2.835   8.932 -0.2649  0.1282 -0.0087
  270loPI   C1A 4311   1.857   2.828   8.458  0.2241 -0.1437  0.1356
  270loPI   C2A 4312   1.864   3.024   8.131 -0.0536 -0.0127  0.1265
  270loPI   C3A 4313   1.963   3.269   7.723 -0.2301  0.3478  0.1007
  270loPI   C4A 4314   1.900   3.619   7.484  0.1488  0.3936  0.1295
  270loPI   C5A 4315   1.606   3.871   7.384  0.1845  0.0323 -0.0282
  270loPI   C6A 4316   1.347   3.994   7.152 -0.5715 -0.3206  0.0523
  270loPI   C1B 4317   1.403   2.982   8.499  0.2701  0.6153  0.0278
  270loPI   C2B 4318   1.356   2.786   8.099 -0.1595  0.1250 -0.0077
  270loPI   C3B 4319   1.589   2.803   7.697  0.1463 -0.0569  0.0789
  270loPI   C4B 4320   1.819   3.048   7.292  0.0958 -0.2098  0.0163
  271loPI    C1 4321  16.364   3.006   9.556  0.0316 -0.1314  0.3144
  271loPI    C2 4322  16.009   3.102   9.399  0.0545 -0.3208  0.1437
  271loPI    C3 4323  16.059   3.104   9.795 -0.0581 -0.0255  0.1584
  271loPI   PO4 4324  16.488   2.888   9.324 -0.3074  0.2254 -0.1338
  271loPI   GL1 4325  16.227   2.790   8.905 -0.2906  0.0299 -0.0379
  271loPI   GL2 4326  16.288   3.001   8.770  0.2168  0.2621  0.1103
  271loPI   C1A 4327  16.412   2.555   8.513  0.2077 -0.2713  0.0621
  271loPI   C2A 4328  16.668   2.308   8.186 -0.1687 -0.1716  0.3456
  271loPI   C3A 4329  16.695   2.067   7.982 -0.1363  0.0714  0.1338
  271loPI   C4A 4330  16.749   2.054   7.571 -0.0738  0.0248  0.0833
  271loPI   C5A 4331  16.923   1.776   7.217  0.1551  0.1413 -0.2341
  271loPI   C6A 4332  16.916   1.837   6.830 -0.0845 -0.1193 -0.0956
  271loPI   C1B 4333  16.032   3.273   8.501  0.1523 -0.0909  0.0167
  271loPI   C2B 4334  15.985   3.388   8.130 -0.3265  0.0229  0.0182
  271loPI   C3B 4335  15.867   3.232   7.741  0.0993  0.2521  0.0802
  271loPI   C4B 4336  15.810   3.478   7.324  0.2041  0.0136 -0.0306
  272loPI    C1 4337   9.051   6.962   9.732  0.0379 -0.0451 -0.0028
  272loPI    C2 4338   9.246   6.624   9.645 -0.0629 -0.1148  0.0406
  272loPI    C3 4339   8.934   6.616   9.895  0.0809  0.0475  0.2281
  272loPI   PO4 4340   9.122   7.110   9.456 -0.1740 -0.0724 -0.0238
  272loPI   GL1 4341   9.166   7.190   8.979  0.2027 -0.1607 -0.2423
  272loPI   GL2 4342   9.469   7.250   9.108  0.1042  0.0383  0.2993
  272loPI   C1A 4343   9.034   7.070   8.613  0.5133  0.1505 -0.2729
  272loPI   C2A 4344   9.057   7.012   8.109  0.0710 -0.2766 -0.3892
  272loPI   C3A 4345   9.193   6.704   7.736  0.1255  0.3415 -0.3643
  272loPI   C4A 4346   9.264   6.662   7.280  0.0545  0.4516  0.0311
  272loPI   C5A 4347   9.293   6.375   6.952 -0.1156 -0.2073 -0.1030
  272loPI   C6A 4348   9.339   5.973   6.848  0.0584  0.3405  0.0234
  272loPI   C1B 4349   9.580   7.322   8.718  0.0662 -0.2094 -0.1892
  272loPI   C2B 4350   9.770   7.482   8.368  0.0134 -0.1462  0.0318
  272loPI   C3B 4351   9.817   7.339   7.936  0.4732 -0.2046 -0.0989
  272loPI   C4B 4352   9.920   7.308   7.527  0.1042 -0.0399  0.2166
  273loPI    C1 4353  11.431  13.147  10.068  0.2263 -0.1335 -0.2399
  273loPI    C2 4354  11.589  12.833  10.258  0.0276 -0.0499  0.0722
  273loPI    C3 4355  11.411  13.123  10.467 -0.2048  0.0416 -0.2458
  273loPI   PO4 4356  11.272  12.998   9.899  0.0735 -0.1769 -0.0841
  273loPI   GL1 4357  11.387  12.958   9.432 -0.0724  0.3129  0.0898
  273loPI   GL2 4358  11.711  13.208   9.612 -0.0091  0.2342 -0.3284
  273loPI   C1A 4359  11.431  12.914   8.992  0.1066  0.0140 -0.1333
  273loPI   C2A 4360  11.317  12.876   8.613 -0.0258  0.1210 -0.0154
  273loPI   C3A 4361  11.326  13.087   8.278  0.3766  0.1826  0.1489
  273loPI   C4A 4362  11.179  13.229   7.806 -0.2036  0.2738 -0.1845
  273loPI   C5A 4363  11.139  13.196   7.450 -0.1532  0.0152  0.0974
  273loPI   C6A 4364  11.028  13.075   7.021 -0.0179  0.1403  0.1909
  273loPI   C1B 4365  11.767  13.185   9.170  0.2648 -0.1907  0.0104
  273loPI   C2B 4366  11.806  13.119   8.690 -0.1693 -0.0450  0.0293
  273loPI   C3B 4367  11.803  13.017   8.288  0.2494  0.2870  0.2202
  273loPI   C4B 4368  11.716  13.146   7.865 -0.3643 -0.4346 -0.0361
  274loPI    C1 4369  14.596   6.258   9.526  0.0725 -0.2548 -0.1879
  274loPI    C2 4370  14.340   6.327   9.825 -0.1548 -0.0357 -0.4281
  274loPI    C3 4371  14.572   6.001   9.832  0.2104  0.2175  0.2335
  274loPI   PO4 4372  14.634   6.465   9.369  0.0679 -0.1242  0.1176
  274loPI   GL1 4373  14.788   6.790   9.066 -0.1084 -0.3412 -0.3514
  274loPI   GL2 4374  14.533   6.933   9.173 -0.1120 -0.2778 -0.2114
  274loPI   C1A 4375  14.762   6.513   8.718  0.2149 -0.2471  0.0761
  274loPI   C2A 4376  14.735   6.443   8.280  0.0903 -0.1630  0.1960
  274loPI   C3A 4377  14.835   6.437   7.901  0.0723 -0.1596  0.1606
  274loPI   C4A 4378  14.558   6.811   7.703 -0.5079  0.0234 -0.1518
  274loPI   C5A 4379  14.175   6.916   7.552 -0.0166  0.5317  0.0649
  274loPI   C6A 4380  14.059   7.101   7.168  0.0578 -0.3105 -0.0175
  274loPI   C1B 4381  14.511   6.973   8.658  0.2707  0.1051 -0.2544
  274loPI   C2B 4382  14.668   6.953   8.385 -0.0883  0.0757 -0.0693
  274loPI   C3B 4383  14.662   7.166   8.011 -0.0396 -0.1757 -0.0402
  274loPI   C4B 4384  14.657   7.280   7.558  0.0554  0.0275 -0.0269
  275loPI    C1 4385  13.792  19.142   9.801 -0.1840  0.1803  0.0418
  275loPI    C2 4386  13.420  18.999   9.758 -0.1104 -0.0267  0.0783
  275loPI    C3 4387  13.600  18.984  10.115  0.0091 -0.1150  0.0147
  275loPI   PO4 4388  13.736  19.360   9.611 -0.0893  0.2572 -0.5467
  275loPI   GL1 4389  13.748  19.179   9.172  0.1355  0.2010 -0.3021
  275loPI   GL2 4390  13.626  18.988   9.279 -0.1808  0.0874 -0.0065
  275loPI   C1A 4391  13.740  19.258   8.623  0.3398 -0.0570  0.1733
  275loPI   C2A 4392  13.982  19.229   8.237  0.1457  0.2505  0.1822
  275loPI   C3A 4393  14.330  19.051   7.849  0.1347 -0.1179  0.0732
  275loPI   C4A 4394  14.379  19.095   7.391 -0.1055  0.0599 -0.1827
  275loPI   C5A 4395  14.644  19.291   7.206  0.1407  0.0477  0.0524
  275loPI   C6A 4396  14.506  19.603   6.803  0.0280  0.3228  0.1232
  275loPI   C1B 4397  13.540  18.806   8.789 -0.2229  0.0310 -0.2684
  275loPI   C2B 4398  13.567  18.799   8.301  0.2240  0.2967  0.2159
  275loPI   C3B 4399  13.656  18.791   8.005  0.1919 -0.1692 -0.2233
  275loPI   C4B 4400  13.379  18.596   7.753 -0.0605 -0.2393  0.0078
  276loPI    C1 4401  19.263  19.168   9.773  0.0929 -0.2871 -0.0675
  276loPI    C2 4402  19.081  19.207  10.128 -0.0895 -0.2535 -0.1636
  276loPI    C3 4403  19.391  18.958  10.089  0.1172 -0.0419  0.0886
  276loPI   PO4 4404  19.089  18.958   9.468 -0.3341 -0.0798 -0.0466
  276loPI   GL1 4405  19.056  18.945   9.041  0.0109  0.1721  0.0191
  276loPI   GL2 4406  18.742  18.878   8.915 -0.1753 -0.1599  0.3077
  276loPI   C1A 4407  19.087  19.013   8.536 -0.2245  0.3144  0.2855
  276loPI   C2A 4408  19.024  18.999   8.046  0.2153  0.0791  0.1409
  276loPI   C3A 4409  18.865  18.840   7.573  0.3852 -0.3146 -0.4464
  276loPI   C4A 4410  19.165  18.879   7.163 -0.1171  0.1926  0.2191
  276loPI   C5A 4411  19.320  19.246   6.865  0.0049  0.2508  0.1521
  276loPI   C6A 4412  19.596  19.639   6.879  0.0094  0.2094 -0.0603
  276loPI   C1B 4413  18.567  18.853   8.521 -0.0323  0.0414  0.0275
  276loPI   C2B 4414  18.335  19.003   8.106 -0.3186 -0.2389  0.0859
  276loPI   C3B 4415  17.906  18.980   7.753  0.0852  0.2218  0.0383
  276loPI   C4B 4416  17.875  18.831   7.357 -0.3841  0.1102 -0.0244
  277loPI    C1 4417   4.717   0.148   8.418  0.1232  0.5016  0.1112
  277loPI    C2 4418   4.600  -0.041   8.750 -0.0543 -0.0734 -0.2638
  277loPI    C3 4419   4.898  -0.191   8.529  0.1325  0.3612 -0.3169
  277loPI   PO4 4420   4.517   0.452   8.418 -0.3928 -0.2118 -0.2315
  277loPI   GL1 4421   4.171   0.710   8.367  0.0241  0.1472  0.0228
  277loPI   GL2 4422   4.451   1.038   8.415 -0.1309  0.1807  0.1309
  277loPI   C1A 4423   4.013   0.639   7.918 -0.2162  0.0229  0.4483
  277loPI   C2A 4424   4.172   0.685   7.476  0.1539  0.0487  0.0929
  277loPI   C3A 4425   4.348   0.991   7.212 -0.4280  0.1200 -0.4765
  277loPI   C4A 4426   4.314   1.041   6.784 -0.1165  0.0868 -0.2243
  277loPI   C5A 4427   3.980   1.273   6.489 -0.1986 -0.0814  0.0114
  277loPI   C6A 4428   3.600   1.142   6.269  0.3137 -0.2399 -0.0010
  277loPI   C1B 4429   4.456   1.055   7.957  0.1067 -0.1747  0.4439
  277loPI   C2B 4430   4.600   1.193   7.640  0.3033 -0.0740  0.1326
  277loPI   C3B 4431   4.728   1.324   7.190 -0.0975 -0.1532 -0.1644
  277loPI   C4B 4432   4.658   1.477   6.764 -0.0311  0.2305 -0.0567
  278loPI    C1 4433   1.113  13.233   9.978 -0.0906 -0.2420  0.2591
  278loPI    C2 4434   0.854  13.529   9.905  0.2374  0.0076  0.0799
  278loPI    C3 4435   0.729  13.194  10.084 -0.2765 -0.0124 -0.2922
  278loPI   PO4 4436   1.163  13.174   9.674 -0.0527  0.0334  0.1161
  278loPI   GL1 4437   1.207  13.257   9.249 -0.0711  0.0437  0.0252
  278loPI   GL2 4438   1.320  13.122   9.054  0.3550  0.2981  0.0185
  278loPI   C1A 4439   0.896  13.428   8.922  0.0652  0.3407 -0.0863
  278loPI   C2A 4440   0.606  13.452   8.574  0.0165 -0.0159  0.1330
  278loPI   C3A 4441   0.536  13.521   8.208  0.1237 -0.0201  0.0499
  278loPI   C4A 4442   0.541  13.615   7.749 -0.0839 -0.0844 -0.2845
  278loPI   C5A 4443   0.519  13.843   7.468  0.0697 -0.2997 -0.0111
  278loPI   C6A 4444   0.298  14.079   7.050  0.2432 -0.1937 -0.1054
  278loPI   C1B 4445   1.126  13.123   8.602  0.4234  0.1607 -0.0570
  278loPI   C2B 4446   1.053  13.215   8.223 -0.0127 -0.2587  0.2350
  278loPI   C3B 4447   1.166  13.208   7.744  0.0048  0.0201 -0.0191
  278loPI   C4B 4448   1.184  13.219   7.265  0.3589 -0.0955 -0.1542
  279loPI    C1 4449  19.379  18.418   9.387  0.0185  0.1170 -0.0440
  279loPI    C2 4450  19.104  18.307   9.655  0.0492 -0.0474 -0.0799
  279loPI    C3 4451  19.387  18.570   9.757  0.3112 -0.4184  0.1812
  279loPI   PO4 4452  19.279  18.511   9.105 -0.0507 -0.2680  0.0552
  279loPI   GL1 4453  19.009  18.314   8.792  0.2003 -0.2714  0.2634
  279loPI   GL2 4454  19.393  18.183   8.659 -0.2176 -0.2675 -0.1286
  279loPI   C1A 4455  19.015  18.506   8.376 -0.1460  0.1192  0.1131
  279loPI   C2A 4456  19.244  18.482   8.034 -0.2873 -0.3086  0.4013
  279loPI   C3A 4457  19.292  18.658   7.591 -0.1131 -0.0711  0.0870
  279loPI   C4A 4458  19.528  19.041   7.441 -0.3910 -0.2304  0.0651
  279loPI   C5A 4459  19.747  19.470   7.287  0.1795 -0.1728  0.1038
  279loPI   C6A 4460  20.051  19.776   7.138 -0.0417  0.0696 -0.1661
  279loPI   C1B 4461  19.489  18.512   8.542  0.1968  0.1312  0.1922
  279loPI   C2B 4462  19.445  18.860   8.288  0.0782 -0.0737 -0.2398
  279loPI   C3B 4463  19.566  19.068   8.005 -0.1498 -0.0295 -0.0950
  279loPI   C4B 4464  19.675  19.417   7.848  0.1744  0.1343 -0.2030
  280loPI    C1 4465  17.785   8.845  10.030  0.0673  0.0671 -0.0606
  280loPI    C2 4466  18.052   8.568   9.921 -0.0816 -0.1370  0.0857
  280loPI    C3 4467  18.174   8.900  10.108  0.1068 -0.0644 -0.1601
  280loPI   PO4 4468  17.653   8.866   9.813 -0.0297 -0.1018 -0.2702
  280loPI   GL1 4469  17.238   8.963   9.500  0.0320 -0.0640 -0.1594
  280loPI   GL2 4470  17.028   9.189   9.213 -0.0458  0.0429  0.1597
  280loPI   C1A 4471  17.591   8.744   9.200 -0.2703 -0.2279  0.1456
  280loPI   C2A 4472  17.817   8.739   8.822 -0.0015  0.0122  0.2547
  280loPI   C3A 4473  18.043   8.590   8.453 -0.0925  0.1147 -0.0340
  280loPI   C4A 4474  18.145   8.500   8.031  0.0878 -0.1261 -0.3716
  280loPI   C5A 4475  18.018   8.517   7.580 -0.1267 -0.2329 -0.0042
  280loPI   C6A 4476  18.111   8.170   7.346 -0.2018  0.3829 -0.0100
  280loPI   C1B 4477  17.173   8.891   8.981  0.0290 -0.0601  0.1677
  280loPI   C2B 4478  17.382   8.524   8.673  0.0168  0.2013  0.1191
  280loPI   C3B 4479  17.308   8.479   8.271  0.0015 -0.2444  0.1041
  280loPI   C4B 4480  17.224   8.089   8.074 -0.1505  0.0402 -0.4508
  281loPI    C1 4481   8.037  11.446   9.693 -0.3743 -0.0215 -0.0419
  281loPI    C2 4482   8.097  11.755   9.940 -0.3190 -0.0247 -0.0515
  281loPI    C3 4483   7.806  11.491  10.017 -0.3662  0.0295 -0.0431
  281loPI   PO4 4484   8.032  11.535   9.446  0.1341  0.1658 -0.0635
  281loPI   GL1 4485   8.203  11.689   9.169  0.0710 -0.1577  0.1050
  281loPI   GL2 4486   8.511  11.867   9.220  0.0993 -0.0951 -0.1156
  281loPI   C1A 4487   8.393  11.697   8.713  0.3624 -0.2310 -0.0154
  281loPI   C2A 4488   8.573  11.604   8.304 -0.0749  0.4117  0.3068
  281loPI   C3A 4489   8.611  11.440   7.831 -0.1853  0.2007 -0.1685
  281loPI   C4A 4490   8.398  11.075   7.564 -0.3315  0.0497  0.0184
  281loPI   C5A 4491   8.147  11.037   7.267 -0.1748 -0.2643  0.0747
  281loPI   C6A 4492   8.046  10.750   6.852 -0.1398  0.3110  0.1756
  281loPI   C1B 4493   8.611  12.158   8.896  0.0059  0.1833  0.0835
  281loPI   C2B 4494   8.638  12.229   8.461  0.2461 -0.1355  0.0783
  281loPI   C3B 4495   8.618  12.405   8.138  0.0845  0.0105  0.1495
  281loPI   C4B 4496   8.702  12.397   7.743  0.0833 -0.3694  0.2650
  282loPI    C1 4497   9.912  18.517  10.005  0.1191 -0.1227  0.3133
  282loPI    C2 4498   9.526  18.621   9.997  0.1163 -0.1417  0.1814
  282loPI    C3 4499   9.664  18.384  10.289  0.0352 -0.1087  0.2469
  282loPI   PO4 4500   9.907  18.396   9.749  0.1322  0.1778 -0.2141
  282loPI   GL1 4501   9.812  18.053   9.495  0.3649 -0.3676 -0.3996
  282loPI   GL2 4502   9.607  18.295   9.340 -0.2467  0.1337 -0.0209
  282loPI   C1A 4503   9.795  17.738   9.232 -0.1461 -0.1277 -0.1479
  282loPI   C2A 4504   9.507  17.794   8.840  0.0505  0.2522  0.0152
  282loPI   C3A 4505   9.647  17.542   8.413  0.4621  0.3854  0.1963
  282loPI   C4A 4506   9.748  17.324   8.058  0.0686  0.0598 -0.2382
  282loPI   C5A 4507   9.928  17.137   7.797 -0.0658  0.2512 -0.1032
  282loPI   C6A 4508  10.154  16.784   7.594 -0.3346 -0.1867  0.0989
  282loPI   C1B 4509   9.801  18.210   8.970 -0.0592  0.0587  0.1408
  282loPI   C2B 4510   9.932  17.995   8.637 -0.1942  0.3186 -0.1779
  282loPI   C3B 4511  10.154  17.665   8.475  0.0245 -0.0537 -0.1987
  282loPI   C4B 4512  10.209  17.223   8.251  0.0040  0.0372 -0.0098
  283loPI    C1 4513  10.794   0.216   9.788  0.0643  0.0061  0.1176
  283loPI    C2 4514  11.015   0.292  10.113  0.0136  0.0333  0.1459
  283loPI    C3 4515  10.684   0.069  10.143 -0.0369  0.1054  0.1281
  283loPI   PO4 4516  10.982   0.188   9.615  0.0036  0.1475 -0.1014
  283loPI   GL1 4517  10.902   0.087   9.230  0.3236  0.0407  0.0570
  283loPI   GL2 4518  10.925  -0.291   9.358 -0.2121 -0.1678  0.2175
  283loPI   C1A 4519  10.974   0.026   8.733 -0.0366 -0.0257 -0.0452
  283loPI   C2A 4520  11.123  -0.151   8.331  0.1072 -0.1118  0.3840
  283loPI   C3A 4521  11.054  -0.297   7.788  0.0230 -0.2949 -0.2669
  283loPI   C4A 4522  10.694  -0.350   7.512 -0.4050  0.0766  0.0914
  283loPI   C5A 4523  10.285  -0.176   7.338 -0.2655 -0.1663 -0.0267
  283loPI   C6A 4524  10.005  -0.358   7.016  0.1941 -0.2253 -0.2520
  283loPI   C1B 4525  10.637  -0.256   8.947 -0.1566  0.2186 -0.0706
  283loPI   C2B 4526  10.660  -0.351   8.541 -0.3415  0.0066  0.0664
  283loPI   C3B 4527  10.374  -0.445   8.283  0.0593  0.3329  0.4363
  283loPI   C4B 4528  10.309  -0.230   7.872 -0.2668 -0.1363 -0.0335
  284loPI    C1 4529   5.742  11.473   9.842  0.5896 -0.0550 -0.0189
  284loPI    C2 4530   5.804  11.115  10.010  0.0573 -0.1025  0.0916
  284loPI    C3 4531   5.930  11.447  10.194  0.1266 -0.2018  0.2250
  284loPI   PO4 4532   5.732  11.331   9.538  0.3756 -0.3154 -0.0391
  284loPI   GL1 4533   5.626  11.142   9.137  0.0008 -0.1598  0.1179
  284loPI   GL2 4534   5.862  11.032   9.133  0.1979  0.0128 -0.2525
  284loPI   C1A 4535   5.191  11.055   8.914  0.2294  0.1218 -0.0757
  284loPI   C2A 4536   4.933  11.124   8.627 -0.2238 -0.5035  0.2532
  284loPI   C3A 4537   4.631  11.558   8.605  0.2613  0.0859 -0.0641
  284loPI   C4A 4538   4.432  11.682   8.327  0.1198 -0.5547  0.4303
  284loPI   C5A 4539   4.424  11.512   7.994  0.1042 -0.1327 -0.0682
  284loPI   C6A 4540   4.139  11.613   7.548  0.0163 -0.3150 -0.0626
  284loPI   C1B 4541   6.104  10.969   8.744 -0.1642 -0.2145 -0.2155
  284loPI   C2B 4542   6.239  10.962   8.275  0.2464  0.0020  0.1774
  284loPI   C3B 4543   6.025  10.978   7.874 -0.1737 -0.0362  0.2639
  284loPI   C4B 4544   5.701  11.005   7.758  0.2099  0.0066  0.2464
  285loPI    C1 4545  16.269   6.282   9.906 -0.3501  0.0182 -0.0584
  285loPI    C2 4546  16.288   6.662  10.029  0.0663  0.0201 -0.1166
  285loPI    C3 4547  16.026   6.411  10.196  0.1603  0.1945  0.3035
  285loPI   PO4 4548  16.271   6.333   9.631 -0.3208 -0.1515  0.2902
  285loPI   GL1 4549  16.026   6.428   9.216 -0.1177  0.0925 -0.0478
  285loPI   GL2 4550  16.415   6.279   9.099  0.0547  0.0047  0.0038
  285loPI   C1A 4551  16.090   6.600   8.832  0.0201 -0.0323  0.3559
  285loPI   C2A 4552  16.112   6.747   8.473  0.0701 -0.0149  0.2159
  285loPI   C3A 4553  16.083   6.764   8.034 -0.1674 -0.0335 -0.3656
  285loPI   C4A 4554  16.294   6.759   7.720  0.2278 -0.0341 -0.5019
  285loPI   C5A 4555  16.655   6.638   7.574 -0.2186 -0.1337 -0.0767
  285loPI   C6A 4556  16.909   6.401   7.544  0.0670 -0.3372  0.2539
  285loPI   C1B 4557  16.482   6.256   8.686 -0.0378  0.0185 -0.1789
  285loPI   C2B 4558  16.700   6.197   8.364 -0.1265  0.3063  0.2338
  285loPI   C3B 4559  17.000   6.371   8.050 -0.3554  0.0175  0.4762
  285loPI   C4B 4560  17.431   6.469   7.846  0.1039  0.1737 -0.2302
  286loPI    C1 4561   3.809  17.766   9.577 -0.1124  0.0497 -0.0535
  286loPI    C2 4562   3.426  17.684   9.661  0.0053 -0.2035  0.2543
  286loPI    C3 4563   3.671  17.813   9.950  0.1378  0.0241  0.0442
  286loPI   PO4 4564   3.834  17.500   9.340  0.3775  0.1114 -0.0102
  286loPI   GL1 4565   3.732  17.419   8.833  0.0286  0.0268 -0.1848
  286loPI   GL2 4566   3.622  17.082   8.965  0.0010 -0.1669  0.1046
  286loPI   C1A 4567   3.529  17.362   8.474  0.2127 -0.3725  0.2115
  286loPI   C2A 4568   3.044  17.254   8.283  0.0601  0.1917 -0.1895
  286loPI   C3A 4569   2.849  17.229   7.776 -0.0237  0.3365  0.1197
  286loPI   C4A 4570   3.023  17.269   7.385 -0.2216 -0.1859 -0.4164
  286loPI   C5A 4571   2.885  17.235   7.096  0.2306 -0.0930 -0.0624
  286loPI   C6A 4572   2.722  17.507   6.905  0.2287  0.0124  0.1164
  286loPI   C1B 4573   3.527  16.856   8.571  0.3338  0.1200  0.1403
  286loPI   C2B 4574   3.302  16.868   8.172  0.4208 -0.0229  0.1233
  286loPI   C3B 4575   3.317  17.124   7.844  0.0022 -0.0326 -0.1050
  286loPI   C4B 4576   3.239  17.555   7.835  0.2063  0.0102 -0.0998
  287loPI    C1 4577  13.999   6.920   9.383 -0.2606  0.3407  0.1568
  287loPI    C2 4578  14.279   6.906   9.668  0.2891 -0.0395 -0.3751
  287loPI    C3 4579  14.188   7.255   9.493  0.0604  0.1692  0.1386
  287loPI   PO4 4580  13.802   6.943   9.527  0.1953  0.1858  0.1509
  287loPI   GL1 4581  13.449   6.807   9.372 -0.1631 -0.1766 -0.2498
  287loPI   GL2 4582  13.639   6.576   9.178 -0.1274 -0.2340  0.0145
  287loPI   C1A 4583  13.203   6.700   8.960 -0.2793 -0.1935  0.0086
  287loPI   C2A 4584  13.203   6.685   8.520  0.4399 -0.3982 -0.0341
  287loPI   C3A 4585  13.005   6.621   8.073 -0.1140  0.2420 -0.3487
  287loPI   C4A 4586  12.738   6.546   7.616 -0.0789 -0.3244 -0.2512
  287loPI   C5A 4587  12.810   6.737   7.149  0.2089  0.1088 -0.1396
  287loPI   C6A 4588  12.421   6.911   6.986 -0.0206  0.0104 -0.4167
  287loPI   C1B 4589  13.834   6.769   8.954 -0.0910 -0.0390  0.1554
  287loPI   C2B 4590  13.879   6.840   8.513 -0.2082  0.0410  0.2149
  287loPI   C3B 4591  13.983   6.820   8.043  0.1161  0.1374 -0.2953
  287loPI   C4B 4592  13.920   6.506   7.753 -0.2775  0.0654 -0.1591
  288loPI    C1 4593  10.298   4.230   9.068  0.2004 -0.0062 -0.1879
  288loPI    C2 4594  10.396   4.422   9.405 -0.1382  0.1910 -0.1962
  288loPI    C3 4595  10.273   4.041   9.419 -0.1551  0.1999 -0.0968
  288loPI   PO4 4596  10.409   4.531   8.884 -0.1336  0.0602 -0.2904
  288loPI   GL1 4597  10.559   4.646   8.510 -0.1813  0.3298  0.3001
  288loPI   GL2 4598  10.689   4.989   8.746  0.0899  0.2940 -0.1232
  288loPI   C1A 4599  11.028   4.571   8.243 -0.0753 -0.1430 -0.0801
  288loPI   C2A 4600  11.138   4.814   7.807 -0.0447  0.1261 -0.3283
  288loPI   C3A 4601  11.089   4.889   7.430  0.0618  0.0578 -0.1024
  288loPI   C4A 4602  10.713   4.529   7.554 -0.0868 -0.2867  0.2375
  288loPI   C5A 4603  10.545   4.363   7.803 -0.1354 -0.0320  0.3613
  288loPI   C6A 4604  10.583   4.260   8.204 -0.1326  0.1407  0.0008
  288loPI   C1B 4605  10.728   5.037   8.279  0.0630 -0.2929 -0.0369
  288loPI   C2B 4606  10.654   5.063   7.820 -0.0225  0.0590 -0.2577
  288loPI   C3B 4607  10.622   5.177   7.416  0.1136 -0.2990  0.2553
  288loPI   C4B 4608  10.299   5.243   7.155 -0.0096  0.2392 -0.2351
  289loPI    C1 4609  13.231  16.387   9.922 -0.3406 -0.1578  0.0764
  289loPI    C2 4610  13.602  16.248   9.981 -0.1404  0.2567 -0.1568
  289loPI    C3 4611  13.399  16.414  10.284 -0.1838 -0.0713 -0.0018
  289loPI   PO4 4612  13.202  16.435   9.630 -0.3958 -0.0527 -0.1018
  289loPI   GL1 4613  13.169  16.461   9.229  0.2053  0.4129 -0.2717
  289loPI   GL2 4614  13.516  16.709   9.242  0.1407  0.1155  0.0163
  289loPI   C1A 4615  12.828  16.558   8.937 -0.0841 -0.0208 -0.1804
  289loPI   C2A 4616  12.512  16.376   8.645 -0.0708 -0.0120 -0.0496
  289loPI   C3A 4617  12.588  16.419   8.250 -0.2932 -0.0489 -0.1143
  289loPI   C4A 4618  12.704  16.204   7.889  0.0666 -0.0643 -0.0326
  289loPI   C5A 4619  12.684  16.248   7.469 -0.3230 -0.0964 -0.4577
  289loPI   C6A 4620  12.518  16.125   7.135 -0.2650 -0.0386  0.1179
  289loPI   C1B 4621  13.299  16.745   8.825  0.0183 -0.3014  0.1050
  289loPI   C2B 4622  13.136  16.850   8.442  0.3981  0.0095  0.2175
  289loPI   C3B 4623  13.127  16.876   7.988  0.0494  0.0562  0.0298
  289loPI   C4B 4624  12.929  16.697   7.589 -0.1897 -0.0364  0.0818
  290loPI    C1 4625  13.190  14.366   9.920 -0.1798  0.0143 -0.0472
  290loPI    C2 4626  13.379  14.308  10.268 -0.1930 -0.0311 -0.0477
  290loPI    C3 4627  13.224  13.997  10.069  0.1596 -0.0575 -0.2906
  290loPI   PO4 4628  12.967  14.571   9.927  0.1568  0.2829 -0.0957
  290loPI   GL1 4629  12.700  14.725   9.523 -0.3848 -0.0369 -0.3779
  290loPI   GL2 4630  12.885  15.033   9.563  0.2603  0.1524  0.1350
  290loPI   C1A 4631  12.579  14.763   9.185 -0.2783  0.0920  0.3628
  290loPI   C2A 4632  12.785  14.913   8.755  0.0971 -0.1743 -0.1597
  290loPI   C3A 4633  12.629  14.821   8.302  0.1986  0.1113 -0.4639
  290loPI   C4A 4634  12.843  14.976   7.976  0.2298  0.3027  0.2244
  290loPI   C5A 4635  13.162  14.866   7.680 -0.3689  0.0400  0.1291
  290loPI   C6A 4636  13.606  15.119   7.452  0.0136 -0.0575 -0.1457
  290loPI   C1B 4637  13.180  15.308   9.251 -0.0120 -0.0219 -0.2152
  290loPI   C2B 4638  13.214  15.301   8.774  0.0015 -0.3245 -0.1701
  290loPI   C3B 4639  13.216  15.361   8.241 -0.0428 -0.1221  0.0939
  290loPI   C4B 4640  13.542  15.623   8.014 -0.0200 -0.0389 -0.0663
  291loPI    C1 4641   9.822   6.587   9.713  0.0971  0.1575  0.0206
  291loPI    C2 4642  10.030   6.423  10.013 -0.0028 -0.0345 -0.0135
  291loPI    C3 4643   9.651   6.537  10.071  0.0098  0.0207 -0.0394
  291loPI   PO4 4644   9.824   6.361   9.501 -0.2680  0.2349 -0.4671
  291loPI   GL1 4645   9.746   6.220   9.114  0.0024  0.1504 -0.0108
  291loPI   GL2 4646   9.983   6.075   9.131  0.0832  0.1120  0.0412
  291loPI   C1A 4647   9.487   6.215   8.787 -0.0956 -0.1446 -0.1666
  291loPI   C2A 4648   9.330   6.507   8.521  0.0041 -0.1475 -0.5687
  291loPI   C3A 4649   9.435   6.510   8.087  0.1234  0.4497 -0.2418
  291loPI   C4A 4650   9.631   6.448   7.599 -0.0574 -0.0993 -0.3524
  291loPI   C5A 4651   9.732   6.519   7.178  0.1753  0.0929 -0.1234
  291loPI   C6A 4652   9.641   6.851   6.804  0.0566  0.0331  0.2880
  291loPI   C1B 4653  10.000   6.187   8.695 -0.2511  0.3550 -0.2387
  291loPI   C2B 4654  10.300   6.477   8.464 -0.3158  0.3614  0.0590
  291loPI   C3B 4655  10.401   6.555   8.209  0.1872 -0.1003  0.0291
  291loPI   C4B 4656  10.522   6.468   7.814  0.0186  0.2950  0.3421
  292loPI    C1 4657   8.021  10.268   9.829  0.2434 -0.1723  0.0395
  292loPI    C2 4658   8.347  10.474   9.937 -0.0099  0.1985  0.1128
  292loPI    C3 4659   8.016  10.491  10.161 -0.1033 -0.1253  0.0055
  292loPI   PO4 4660   8.068  10.208   9.534  0.0822 -0.3036 -0.1868
  292loPI   GL1 4661   8.261  10.317   9.095 -0.0859  0.0697 -0.1079
  292loPI   GL2 4662   8.444  10.575   8.926  0.2252 -0.1137  0.1528
  292loPI   C1A 4663   8.228  10.174   8.635 -0.3170  0.0924  0.2633
  292loPI   C2A 4664   8.139  10.097   8.207  0.0189 -0.0025 -0.0597
  292loPI   C3A 4665   8.214  10.347   7.817  0.2051  0.2936 -0.0999
  292loPI   C4A 4666   8.056  10.577   7.490  0.0380 -0.1465 -0.1371
  292loPI   C5A 4667   7.662  10.833   7.362 -0.3722  0.3016  0.0935
  292loPI   C6A 4668   7.196  11.045   7.227 -0.0443 -0.2853  0.1678
  292loPI   C1B 4669   8.711  10.352   8.606  0.1653 -0.1254 -0.0426
  292loPI   C2B 4670   8.746  10.249   8.088  0.3012  0.0986 -0.3133
  292loPI   C3B 4671   8.738  10.256   7.668 -0.2800  0.1570  0.0867
  292loPI   C4B 4672   8.418  10.236   7.412  0.2169 -0.2095 -0.0787
  293loPI    C1 4673   7.083  14.059  10.047  0.2535 -0.0779  0.0089
  293loPI    C2 4674   6.853  13.930  10.348 -0.1814  0.1649 -0.2107
  293loPI    C3 4675   7.065  14.266  10.389  0.2726 -0.1430  0.0496
  293loPI   PO4 4676   6.829  14.067   9.853 -0.0760 -0.0103 -0.1105
  293loPI   GL1 4677   6.778  14.123   9.394  0.0708 -0.0255 -0.0072
  293loPI   GL2 4678   6.647  13.937   9.251  0.2013 -0.0017  0.3464
  293loPI   C1A 4679   7.224  14.035   9.182 -0.0993  0.1100 -0.0752
  293loPI   C2A 4680   7.464  13.889   9.053 -0.1659 -0.1346 -0.2090
  293loPI   C3A 4681   7.448  13.831   8.588  0.0166 -0.0208 -0.2582
  293loPI   C4A 4682   7.505  13.634   8.225 -0.1459  0.2324 -0.0212
  293loPI   C5A 4683   7.640  13.418   7.879  0.0777 -0.0295 -0.0933
  293loPI   C6A 4684   7.531  13.620   7.581 -0.2437  0.2670 -0.4089
  293loPI   C1B 4685   6.538  13.907   8.932  0.0015 -0.3418  0.0445
  293loPI   C2B 4686   6.301  13.626   8.775 -0.0211 -0.1226  0.0805
  293loPI   C3B 4687   5.996  13.649   8.403 -0.0610  0.1697  0.2362
  293loPI   C4B 4688   6.073  13.703   7.978 -0.0456  0.1269  0.0533
  294loPI    C1 4689   1.603   3.272   9.332 -0.1045  0.0719  0.0080
  294loPI    C2 4690   1.338   3.278   9.632 -0.0570 -0.0442  0.0532
  294loPI    C3 4691   1.696   3.107   9.685 -0.0184  0.0052 -0.0455
  294loPI   PO4 4692   1.549   3.305   9.172  0.1525 -0.0942  0.1145
  294loPI   GL1 4693   1.182   3.288   8.817 -0.2604 -0.3852  0.1586
  294loPI   GL2 4694   1.056   3.195   9.143  0.0344  0.0245  0.0434
  294loPI   C1A 4695   0.977   3.234   8.460  0.1885  0.0380 -0.1635
  294loPI   C2A 4696   0.905   3.096   8.049 -0.0464 -0.1619 -0.0426
  294loPI   C3A 4697   0.749   3.105   7.708 -0.3065 -0.1975  0.0755
  294loPI   C4A 4698   0.780   3.078   7.260  0.0671  0.0469 -0.3831
  294loPI   C5A 4699   0.763   2.774   7.038  0.1366  0.1041  0.1365
  294loPI   C6A 4700   0.629   2.464   6.727  0.2096  0.2006  0.4297
  294loPI   C1B 4701   0.925   2.811   8.730 -0.1832 -0.1480  0.0659
  294loPI   C2B 4702   0.913   2.680   8.307 -0.1103  0.0980  0.0053
  294loPI   C3B 4703   0.975   2.517   7.920 -0.0738  0.0198 -0.2434
  294loPI   C4B 4704   0.901   2.636   7.474  0.1346 -0.2692  0.0251
  295loPI    C1 4705  19.482  12.829   9.309  0.0731 -0.1796 -0.0341
  295loPI    C2 4706  19.148  12.668   9.459  0.0226 -0.1357 -0.0984
  295loPI    C3 4707  19.470  12.717   9.692 -0.0473 -0.0894 -0.0112
  295loPI   PO4 4708  19.530  12.754   9.095 -0.1777 -0.0621  0.0765
  295loPI   GL1 4709  19.390  12.709   8.732 -0.4912  0.2281  0.0896
  295loPI   GL2 4710  19.045  12.632   8.944  0.1887 -0.3182  0.3100
  295loPI   C1A 4711  19.353  12.863   8.322  0.0286  0.0238 -0.0315
  295loPI   C2A 4712  19.459  12.772   7.869 -0.1949  0.1868 -0.1996
  295loPI   C3A 4713  19.593  12.504   7.487 -0.2484 -0.0583  0.0511
  295loPI   C4A 4714  19.901  12.402   7.278 -0.2857  0.1061 -0.0840
  295loPI   C5A 4715  20.197  12.556   7.046 -0.0190  0.2311 -0.0288
  295loPI   C6A 4716  20.309  13.038   6.988 -0.0848 -0.0409  0.1027
  295loPI   C1B 4717  18.832  12.469   8.501 -0.0931 -0.0466  0.0550
  295loPI   C2B 4718  18.603  12.515   8.167  0.2575 -0.0363 -0.0452
  295loPI   C3B 4719  18.261  12.363   7.904  0.2454  0.1394 -0.1153
  295loPI   C4B 4720  18.155  12.462   7.459 -0.1551  0.1375 -0.3608
  296loPI    C1 4721  10.136  15.521  10.435 -0.1670 -0.1786 -0.2402
  296loPI    C2 4722  10.443  15.497  10.690 -0.2896 -0.3766 -0.1080
  296loPI    C3 4723  10.107  15.686  10.798 -0.2139 -0.1524 -0.2557
  296loPI   PO4 4724  10.303  15.553  10.224 -0.0132 -0.2527  0.0562
  296loPI   GL1 4725  10.045  15.404   9.840  0.0638 -0.1726 -0.0378
  296loPI   GL2 4726  10.128  15.130   9.654  0.1142 -0.0967 -0.3185
  296loPI   C1A 4727  10.018  15.719   9.505 -0.1783  0.0575 -0.2198
  296loPI   C2A 4728  10.145  15.777   9.165  0.1359  0.3318 -0.5138
  296loPI   C3A 4729  10.199  15.675   8.761  0.3013  0.0374  0.5510
  296loPI   C4A 4730  10.348  15.667   8.423 -0.0079  0.1846  0.0895
  296loPI   C5A 4731  10.561  15.499   8.218  0.0520 -0.2175  0.2361
  296loPI   C6A 4732  10.885  15.323   8.082  0.0554  0.0509  0.1948
  296loPI   C1B 4733   9.952  14.976   9.246  0.4032 -0.0839 -0.2167
  296loPI   C2B 4734   9.950  14.901   8.781 -0.0295  0.0070 -0.0445
  296loPI   C3B 4735   9.973  14.856   8.297 -0.1221  0.2183  0.5253
  296loPI   C4B 4736  10.056  14.801   7.818 -0.0572 -0.2569 -0.0977
  297loPI    C1 4737   8.419  18.440  10.002  0.1526 -0.0209  0.0782
  297loPI    C2 4738   8.177  18.176  10.178  0.0900 -0.1125 -0.1425
  297loPI    C3 4739   8.159  18.562  10.281 -0.2229 -0.1013 -0.2293
  297loPI   PO4 4740   8.329  18.392   9.739 -0.0089  0.1197  0.1334
  297loPI   GL1 4741   8.187  18.243   9.264 -0.0854 -0.4143 -0.4657
  297loPI   GL2 4742   8.116  17.942   9.211 -0.1371  0.0474  0.0841
  297loPI   C1A 4743   8.182  18.327   8.797  0.1798  0.2907  0.3822
  297loPI   C2A 4744   8.173  18.445   8.462 -0.0600 -0.1828  0.0228
  297loPI   C3A 4745   8.189  18.443   8.105  0.1131  0.0538 -0.1260
  297loPI   C4A 4746   8.424  18.657   7.758 -0.0485  0.0356  0.0540
  297loPI   C5A 4747   8.598  18.720   7.382 -0.1931  0.2030 -0.4012
  297loPI   C6A 4748   8.792  18.675   6.991 -0.1585  0.2716  0.1811
  297loPI   C1B 4749   8.065  17.875   8.707  0.1177 -0.3483 -0.0806
  297loPI   C2B 4750   8.033  17.935   8.198 -0.2375  0.2214  0.3740
  297loPI   C3B 4751   7.992  18.082   7.742 -0.1337 -0.0642  0.0020
  297loPI   C4B 4752   8.033  18.472   7.478  0.1992 -0.1460 -0.2265
  298loPI    C1 4753   9.661   3.908   9.370  0.1268  0.1980  0.1439
  298loPI    C2 4754   9.908   3.632   9.520  0.1259  0.0501 -0.1214
  298loPI    C3 4755   9.693   3.862   9.766 -0.0428 -0.3368  0.1034
  298loPI   PO4 4756   9.781   4.053   9.187 -0.0715 -0.0805 -0.0362
  298loPI   GL1 4757   9.843   4.266   8.814 -0.2658  0.1859  0.2434
  298loPI   GL2 4758   9.580   4.049   8.768  0.0973  0.5691 -0.2221
  298loPI   C1A 4759   9.962   4.068   8.363  0.0442  0.2187 -0.0476
  298loPI   C2A 4760   9.707   3.918   7.990 -0.1079  0.1456 -0.4739
  298loPI   C3A 4761   9.459   3.631   7.696  0.0197 -0.2860  0.1381
  298loPI   C4A 4762   9.261   3.216   7.593  0.0143 -0.1346 -0.2478
  298loPI   C5A 4763   9.325   3.052   7.275  0.0013 -0.1886 -0.0137
  298loPI   C6A 4764   9.669   2.870   7.021  0.2527 -0.3254  0.0357
  298loPI   C1B 4765   9.405   4.225   8.437 -0.0292  0.0462 -0.0612
  298loPI   C2B 4766   9.571   4.425   8.172 -0.0349  0.1318  0.1990
  298loPI   C3B 4767   9.528   4.398   7.736 -0.0004 -0.0001  0.1561
  298loPI   C4B 4768   9.598   4.062   7.443 -0.0404 -0.2437  0.2418
  299loPI    C1 4769  14.885  16.949   9.874  0.0157  0.0382 -0.0439
  299loPI    C2 4770  14.906  16.602  10.072  0.2774  0.0397 -0.0669
  299loPI    C3 4771  14.935  16.948  10.271  0.1394  0.0471 -0.0591
  299loPI   PO4 4772  14.707  16.932   9.742  0.3353 -0.1595  0.2246
  299loPI   GL1 4773  14.507  16.866   9.372 -0.0569  0.0281  0.3075
  299loPI   GL2 4774  14.637  17.216   9.329 -0.4123  0.4692  0.0615
  299loPI   C1A 4775  14.615  16.742   8.954  0.0301  0.1352 -0.0407
  299loPI   C2A 4776  14.663  16.793   8.507  0.1859  0.2313  0.0364
  299loPI   C3A 4777  14.622  16.921   8.028  0.0516 -0.1464 -0.2406
  299loPI   C4A 4778  14.456  17.015   7.547  0.2241 -0.0626  0.1831
  299loPI   C5A 4779  14.706  17.146   7.177  0.1663  0.0869  0.0453
  299loPI   C6A 4780  15.089  17.420   7.293  0.1225 -0.2527 -0.0127
  299loPI   C1B 4781  14.264  17.136   9.008  0.2709  0.1386  0.1449
  299loPI   C2B 4782  14.073  17.259   8.622 -0.0267  0.0705  0.0960
  299loPI   C3B 4783  13.998  16.979   8.274  0.0576  0.2467  0.0223
  299loPI   C4B 4784  14.141  16.872   7.916 -0.2153  0.0280 -0.3987
  300loPI    C1 4785   1.980  13.774  10.203  0.0754  0.0339 -0.0396
  300loPI    C2 4786   1.802  14.081  10.389  0.0478  0.0151 -0.0351
  300loPI    C3 4787   2.195  14.092  10.316  0.0488  0.0466 -0.0248
  300loPI   PO4 4788   1.894  13.783   9.912 -0.3188 -0.0380 -0.1013
  300loPI   GL1 4789   1.870  13.707   9.612  0.3780  0.2881 -0.4001
  300loPI   GL2 4790   1.703  13.477   9.523 -0.0611 -0.0502 -0.0907
  300loPI   C1A 4791   2.173  13.623   9.277 -0.0825  0.1493  0.0779
  300loPI   C2A 4792   2.398  13.883   8.960 -0.2413  0.2171 -0.2517
  300loPI   C3A 4793   2.426  13.846   8.527  0.1689  0.0834 -0.2327
  300loPI   C4A 4794   2.600  13.927   8.136 -0.0069  0.0250  0.0337
  300loPI   C5A 4795   2.882  13.745   7.845  0.1554 -0.0082  0.3929
  300loPI   C6A 4796   3.086  13.693   7.525  0.1064 -0.0322  0.2431
  300loPI   C1B 4797   1.807  13.291   9.104  0.0689 -0.1878 -0.0424
  300loPI   C2B 4798   1.678  13.217   8.648 -0.5026 -0.1331  0.1925
  300loPI   C3B 4799   1.612  13.282   8.148  0.2968 -0.0679 -0.1836
  300loPI   C4B 4800   1.816  13.398   7.880 -0.2639 -0.0033 -0.0364
  301loPI    C1 4801   9.356   7.779   9.655  0.1420 -0.0110 -0.0660
  301loPI    C2 4802   9.264   7.416   9.796  0.0744  0.0710  0.1029
  301loPI    C3 4803   8.983   7.701   9.778  0.1103  0.0953 -0.0934
  301loPI   PO4 4804   9.448   7.682   9.402 -0.0330 -0.3465 -0.0490
  301loPI   GL1 4805   9.653   7.780   9.063 -0.0963  0.0013  0.1613
  301loPI   GL2 4806   9.309   7.730   8.934  0.0809 -0.1836  0.1605
  301loPI   C1A 4807   9.980   7.604   8.865 -0.0540  0.0465  0.0802
  301loPI   C2A 4808  10.275   7.473   8.591  0.2779 -0.1694 -0.0592
  301loPI   C3A 4809  10.351   7.463   8.193 -0.0238 -0.1887  0.3033
  301loPI   C4A 4810  10.350   7.329   7.803  0.2103 -0.1583  0.0501
  301loPI   C5A 4811  10.468   7.237   7.407  0.1024 -0.0653  0.0306
  301loPI   C6A 4812  10.559   7.277   6.992  0.1758 -0.0426  0.2114
  301loPI   C1B 4813   9.234   7.520   8.460 -0.4888 -0.3895 -0.1966
  301loPI   C2B 4814   9.327   7.436   8.046  0.2488 -0.3200 -0.0288
  301loPI   C3B 4815   9.162   7.185   7.688 -0.1202 -0.0478 -0.1118
  301loPI   C4B 4816   8.826   7.017   7.379 -0.1390 -0.1764  0.0879
  302loPI    C1 4817   1.728  12.883   9.928 -0.2885  0.5184  0.0185
  302loPI    C2 4818   1.362  12.722   9.950 -0.0221 -0.1017  0.1278
  302loPI    C3 4819   1.605  12.711  10.268  0.1244  0.2339  0.0321
  302loPI   PO4 4820   1.759  12.958   9.633 -0.0259 -0.0286 -0.0326
  302loPI   GL1 4821   1.764  12.767   9.211 -0.1160  0.1126  0.1066
  302loPI   GL2 4822   1.866  12.441   8.949  0.1354 -0.1359  0.0144
  302loPI   C1A 4823   1.532  12.730   8.807 -0.0142 -0.0440  0.1257
  302loPI   C2A 4824   1.467  12.784   8.371 -0.3223 -0.1601  0.0154
  302loPI   C3A 4825   1.413  12.795   7.988  0.3212  0.0631 -0.2353
  302loPI   C4A 4826   1.646  13.053   7.636  0.1109  0.1925  0.3197
  302loPI   C5A 4827   1.807  13.258   7.385 -0.2447  0.2216  0.0112
  302loPI   C6A 4828   2.005  13.356   6.918  0.3147  0.3028 -0.0797
  302loPI   C1B 4829   1.815  12.326   8.601 -0.0257 -0.2446 -0.1026
  302loPI   C2B 4830   1.810  12.510   8.102  0.0070 -0.4471 -0.0169
  302loPI   C3B 4831   1.743  12.560   7.713 -0.2581 -0.1520 -0.3659
  302loPI   C4B 4832   1.631  12.337   7.378  0.2206 -0.0295 -0.0282
  303loPI    C1 4833   2.578  13.085  10.235  0.1799  0.1189 -0.3036
  303loPI    C2 4834   2.686  12.708  10.154  0.1325  0.0453 -0.0357
  303loPI    C3 4835   2.832  12.894  10.477 -0.1875  0.1009  0.0807
  303loPI   PO4 4836   2.627  13.243   9.997 -0.4303 -0.1442 -0.0104
  303loPI   GL1 4837   2.438  13.182   9.465 -0.1145  0.1612  0.3878
  303loPI   GL2 4838   2.590  13.427   9.470 -0.1101 -0.2660 -0.0539
  303loPI   C1A 4839   2.229  13.038   9.098 -0.0920  0.0861 -0.0554
  303loPI   C2A 4840   2.040  12.901   8.759  0.0517  0.1146 -0.2383
  303loPI   C3A 4841   2.031  12.940   8.383  0.1719  0.2249 -0.1736
  303loPI   C4A 4842   2.074  12.975   7.947 -0.4206  0.2421 -0.0497
  303loPI   C5A 4843   2.265  12.994   7.497  0.2077 -0.0445 -0.1314
  303loPI   C6A 4844   2.383  13.106   7.103 -0.0551 -0.0370 -0.0428
  303loPI   C1B 4845   2.532  13.408   9.027 -0.1980  0.1011 -0.3321
  303loPI   C2B 4846   2.278  13.405   8.723 -0.0089  0.1440  0.0655
  303loPI   C3B 4847   2.188  13.412   8.380  0.1202 -0.0856 -0.1253
  303loPI   C4B 4848   2.257  13.610   7.979 -0.2839  0.1587  0.0641
  304loPI    C1 4849   7.791  18.553   9.514 -0.1014  0.1174 -0.0211
  304loPI    C2 4850   7.837  18.417   9.888  0.0585 -0.0285 -0.0925
  304loPI    C3 4851   7.476  18.410   9.715 -0.0096  0.0084  0.0467
  304loPI   PO4 4852   7.903  18.737   9.479  0.0397 -0.3488  0.0049
  304loPI   GL1 4853   7.952  18.739   9.043 -0.0424  0.2066  0.1103
  304loPI   GL2 4854   8.137  18.973   9.076  0.4015  0.1012 -0.1153
  304loPI   C1A 4855   7.811  18.769   8.688  0.1863 -0.1557 -0.1962
  304loPI   C2A 4856   7.906  18.839   8.227 -0.1553 -0.3720 -0.1885
  304loPI   C3A 4857   7.850  18.863   7.680  0.1592  0.0985 -0.0227
  304loPI   C4A 4858   8.085  18.966   7.368  0.1095 -0.1518 -0.2072
  304loPI   C5A 4859   8.309  19.043   7.031 -0.0686  0.0247  0.1559
  304loPI   C6A 4860   8.636  19.143   6.752  0.0348  0.0810 -0.0774
  304loPI   C1B 4861   8.036  19.244   8.574 -0.0380  0.2927 -0.0137
  304loPI   C2B 4862   8.092  19.584   8.229 -0.0474  0.1328 -0.0501
  304loPI   C3B 4863   8.112  19.921   7.950 -0.1020 -0.1179  0.2738
  304loPI   C4B 4864   8.281  20.134   7.642 -0.0515 -0.2895  0.1079
  305loPI    C1 4865   7.541  15.739  10.008  0.0357 -0.1170 -0.1503
  305loPI    C2 4866   7.501  15.963  10.337 -0.0432  0.0784 -0.2911
  305loPI    C3 4867   7.552  15.568  10.369 -0.1570  0.0817 -0.0476
  305loPI   PO4 4868   7.712  15.799   9.899  0.0310 -0.0017 -0.0103
  305loPI   GL1 4869   7.837  16.050   9.587  0.0268  0.1407  0.0332
  305loPI   GL2 4870   7.673  16.284   9.461  0.1628 -0.0182 -0.2405
  305loPI   C1A 4871   8.082  15.844   9.197  0.2257 -0.0152 -0.0898
  305loPI   C2A 4872   8.292  15.761   8.808 -0.1274  0.3146 -0.1619
  305loPI   C3A 4873   8.153  15.628   8.353  0.2005  0.1000 -0.0355
  305loPI   C4A 4874   8.424  15.510   7.903  0.0044  0.1229  0.2151
  305loPI   C5A 4875   8.413  15.454   7.478  0.2243 -0.0606  0.1191
  305loPI   C6A 4876   8.505  15.719   7.006  0.3717 -0.0776 -0.2419
  305loPI   C1B 4877   7.899  16.304   9.106 -0.1401 -0.1198  0.3029
  305loPI   C2B 4878   7.916  16.413   8.687  0.1548 -0.3105  0.0105
  305loPI   C3B 4879   8.009  16.549   8.195  0.3775 -0.1068 -0.0788
  305loPI   C4B 4880   8.170  16.416   7.840 -0.1575 -0.0676 -0.0781
  306loPI    C1 4881   9.932   6.992   9.984 -0.2852 -0.2673 -0.0771
  306loPI    C2 4882  10.175   7.207  10.218 -0.2027 -0.3480 -0.0883
  306loPI    C3 4883   9.781   7.274  10.226 -0.1770 -0.1896 -0.0993
  306loPI   PO4 4884  10.095   6.984   9.735  0.1173  0.0649  0.2954
  306loPI   GL1 4885  10.005   6.891   9.301  0.2036 -0.0094  0.0183
  306loPI   GL2 4886   9.945   6.694   9.149  0.2214  0.0438 -0.2416
  306loPI   C1A 4887   9.936   7.105   8.969 -0.2680  0.0255 -0.0005
  306loPI   C2A 4888   9.967   7.030   8.453 -0.0917  0.4161 -0.2847
  306loPI   C3A 4889  10.089   6.918   8.043 -0.0389  0.0824 -0.1113
  306loPI   C4A 4890  10.140   6.806   7.632 -0.0425  0.0996  0.2183
  306loPI   C5A 4891  10.239   6.612   7.282  0.0990  0.0990 -0.1669
  306loPI   C6A 4892  10.176   6.344   6.930  0.1624  0.1907  0.3003
  306loPI   C1B 4893   9.806   6.632   8.764 -0.1078 -0.0719  0.1602
  306loPI   C2B 4894   9.815   6.471   8.347 -0.0775 -0.0940 -0.5758
  306loPI   C3B 4895  10.089   6.299   8.033 -0.2379 -0.0074 -0.1273
  306loPI   C4B 4896  10.158   6.232   7.556  0.0357 -0.1101 -0.1420
  307loPI    C1 4897  15.612  18.479   9.578  0.0179  0.1056 -0.0295
  307loPI    C2 4898  16.001  18.451   9.664  0.0006 -0.0508 -0.0001
  307loPI    C3 4899  15.728  18.392   9.950 -0.0505 -0.2784 -0.0936
  307loPI   PO4 4900  15.612  18.301   9.338  0.1312 -0.0960  0.0597
  307loPI   GL1 4901  15.296  18.305   8.912  0.3184  0.1103 -0.1589
  307loPI   GL2 4902  15.192  18.591   9.054  0.1471  0.0482 -0.0594
  307loPI   C1A 4903  15.247  18.093   8.467 -0.4073 -0.0883 -0.3017
  307loPI   C2A 4904  15.195  17.907   8.022  0.0794  0.1065  0.2498
  307loPI   C3A 4905  15.270  17.820   7.567 -0.3711 -0.1845 -0.3331
  307loPI   C4A 4906  15.400  17.910   7.201 -0.4015 -0.0613  0.1144
  307loPI   C5A 4907  15.596  18.232   6.855  0.0695 -0.0167  0.3387
  307loPI   C6A 4908  16.033  18.275   6.740  0.1102  0.3848  0.0437
  307loPI   C1B 4909  14.852  18.373   8.701 -0.1339 -0.0163  0.2693
  307loPI   C2B 4910  14.843  18.286   8.230  0.1464 -0.2858  0.0074
  307loPI   C3B 4911  14.968  18.442   7.841  0.0546 -0.4158  0.0550
  307loPI   C4B 4912  15.304  18.681   7.676  0.0147  0.2486  0.0771
  308loPI    C1 4913  19.217   1.647   9.915  0.0431  0.2266 -0.0201
  308loPI    C2 4914  19.298   1.268  10.016 -0.3479  0.1608  0.0641
  308loPI    C3 4915  19.299   1.554  10.296 -0.0211  0.2307 -0.0049
  308loPI   PO4 4916  19.371   1.758   9.678 -0.2706 -0.1265 -0.2579
  308loPI   GL1 4917  19.508   1.737   9.188 -0.1239  0.4139  0.1531
  308loPI   GL2 4918  19.569   2.044   8.973  0.1373  0.1227  0.0038
  308loPI   C1A 4919  19.489   1.532   8.712 -0.4304  0.1106 -0.0239
  308loPI   C2A 4920  19.538   1.537   8.340  0.0126  0.2419 -0.2245
  308loPI   C3A 4921  19.442   1.495   7.888  0.1862 -0.3605 -0.3695
  308loPI   C4A 4922  19.431   1.262   7.561 -0.0028  0.1406  0.1105
  308loPI   C5A 4923  19.678   1.223   7.227 -0.0488  0.2908  0.0809
  308loPI   C6A 4924  19.693   0.941   6.802 -0.4265  0.1067  0.3462
  308loPI   C1B 4925  19.328   2.014   8.488  0.0611 -0.0581  0.1327
  308loPI   C2B 4926  19.254   1.903   8.093  0.1195  0.1829 -0.0334
  308loPI   C3B 4927  19.196   1.947   7.621 -0.2322  0.1416 -0.5223
  308loPI   C4B 4928  19.305   1.751   7.233 -0.2298  0.0492 -0.0360
  309loPI    C1 4929   6.374  17.619   9.751  0.3226 -0.0979  0.0315
  309loPI    C2 4930   6.252  17.360  10.030 -0.1179  0.1769  0.1033
  309loPI    C3 4931   6.516  17.644  10.124 -0.1368  0.1638  0.1969
  309loPI   PO4 4932   6.379  17.459   9.523 -0.2943  0.0619  0.0416
  309loPI   GL1 4933   6.350  17.545   9.032  0.0688  0.1421 -0.0004
  309loPI   GL2 4934   6.553  17.731   8.845  0.0105  0.3178  0.2784
  309loPI   C1A 4935   6.393  17.167   8.733  0.2469 -0.1742  0.1914
  309loPI   C2A 4936   6.202  16.980   8.312  0.0578  0.1579  0.0464
  309loPI   C3A 4937   6.260  16.650   7.973  0.2741  0.1155 -0.1671
  309loPI   C4A 4938   6.626  16.535   7.710 -0.0273 -0.1654  0.2161
  309loPI   C5A 4939   6.565  16.372   7.431  0.0646  0.2174 -0.1431
  309loPI   C6A 4940   6.816  16.106   6.996  0.2205 -0.0160 -0.2138
  309loPI   C1B 4941   6.704  17.541   8.495  0.1529 -0.1307  0.0605
  309loPI   C2B 4942   6.716  17.464   8.242  0.1602  0.1547 -0.3458
  309loPI   C3B 4943   6.642  17.614   7.865  0.0075 -0.3004 -0.0335
  309loPI   C4B 4944   6.732  17.822   7.455 -0.0612  0.0861  0.1142
  310loPI    C1 4945  15.429  12.643   9.482  0.1589 -0.0914 -0.1360
  310loPI    C2 4946  15.744  12.457   9.644  0.0011 -0.0849  0.1851
  310loPI    C3 4947  15.465  12.246   9.452  0.1119 -0.1107  0.0511
  310loPI   PO4 4948  15.584  12.828   9.314 -0.0656 -0.0848  0.1237
  310loPI   GL1 4949  15.675  12.717   8.942  0.1893  0.1880  0.1520
  310loPI   GL2 4950  15.423  12.549   8.847 -0.0346 -0.0088  0.0971
  310loPI   C1A 4951  15.614  12.987   8.691 -0.1186 -0.2442 -0.3360
  310loPI   C2A 4952  15.682  13.138   8.213 -0.1357  0.2383  0.2224
  310loPI   C3A 4953  15.567  13.000   7.805 -0.0626 -0.0343 -0.0747
  310loPI   C4A 4954  15.216  12.876   7.529  0.1560  0.1900 -0.2563
  310loPI   C5A 4955  15.174  12.563   7.139  0.1903  0.0360  0.1588
  310loPI   C6A 4956  15.396  12.150   7.072  0.1303 -0.2655  0.0439
  310loPI   C1B 4957  15.500  12.559   8.468  0.1910  0.0917  0.1114
  310loPI   C2B 4958  15.545  12.616   8.116  0.0625  0.1886 -0.1032
  310loPI   C3B 4959  15.462  12.474   7.751 -0.1397 -0.0826  0.1001
  310loPI   C4B 4960  15.702  12.282   7.418  0.2308  0.0705 -0.3515
  311loPI    C1 4961   5.645  18.972   9.361  0.0832 -0.3560  0.0003
  311loPI    C2 4962   5.888  19.179   9.601 -0.3209  0.1641 -0.0210
  311loPI    C3 4963   5.619  18.928   9.757 -0.0443 -0.1143  0.0201
  311loPI   PO4 4964   5.652  19.114   9.179  0.4476 -0.2177  0.0945
  311loPI   GL1 4965   5.829  19.279   8.790  0.0492  0.1747  0.1789
  311loPI   GL2 4966   5.757  19.415   8.605  0.0472  0.1200  0.0120
  311loPI   C1A 4967   6.217  19.323   8.497  0.0007 -0.1903 -0.3629
  311loPI   C2A 4968   6.212  19.111   8.130 -0.2661 -0.1257 -0.1003
  311loPI   C3A 4969   6.295  19.043   7.738  0.2132  0.0387 -0.0050
  311loPI   C4A 4970   6.111  19.024   7.393  0.0987 -0.1128  0.0287
  311loPI   C5A 4971   6.154  19.093   6.981  0.2720  0.1559  0.1699
  311loPI   C6A 4972   6.353  19.059   6.533  0.0148  0.0753  0.0573
  311loPI   C1B 4973   5.797  19.510   8.120  0.1347 -0.0875  0.0074
  311loPI   C2B 4974   5.856  19.468   7.671 -0.1161  0.0885 -0.3140
  311loPI   C3B 4975   5.958  19.515   7.203  0.0239  0.3782 -0.0508
  311loPI   C4B 4976   6.173  19.593   6.763  0.1984 -0.0677 -0.0172
  312loPI    C1 4977   8.912   8.612   9.425  0.0628  0.1593 -0.1639
  312loPI    C2 4978   8.858   8.671   9.817  0.4467 -0.2088 -0.0487
  312loPI    C3 4979   8.941   8.981   9.579 -0.0014  0.0493  0.1181
  312loPI   PO4 4980   8.655   8.530   9.329  0.1113  0.1395 -0.2786
  312loPI   GL1 4981   8.494   8.297   9.077  0.1117 -0.2388  0.3411
  312loPI   GL2 4982   8.319   7.966   8.870 -0.1614 -0.1508  0.3206
  312loPI   C1A 4983   8.627   8.343   8.689  0.0400 -0.0510 -0.0359
  312loPI   C2A 4984   8.828   8.354   8.305  0.0624  0.1482  0.0156
  312loPI   C3A 4985   8.805   8.374   7.796  0.1303  0.2842  0.0997
  312loPI   C4A 4986   8.893   8.248   7.405  0.1260  0.2214 -0.3808
  312loPI   C5A 4987   9.032   8.100   6.938 -0.1771  0.2762  0.2085
  312loPI   C6A 4988   9.419   7.900   6.745  0.1014  0.1286 -0.0068
  312loPI   C1B 4989   8.463   7.818   8.394 -0.2402 -0.1102  0.4065
  312loPI   C2B 4990   8.567   7.854   8.012 -0.0856  0.0612  0.0099
  312loPI   C3B 4991   8.470   8.049   7.634 -0.2671  0.3668  0.0192
  312loPI   C4B 4992   8.418   8.200   7.177 -0.2454  0.0779 -0.0185
  313loPI    C1 4993  16.214   7.163  10.006  0.1974 -0.1010  0.0883
  313loPI    C2 4994  16.580   7.077   9.870  0.2077  0.2649 -0.1267
  313loPI    C3 4995  16.528   7.378  10.127  0.1268 -0.1375  0.3432
  313loPI   PO4 4996  16.083   7.167   9.852  0.1013  0.0298 -0.0108
  313loPI   GL1 4997  16.188   7.387   9.446  0.1583 -0.4899 -0.1812
  313loPI   GL2 4998  15.954   7.232   9.291  0.1624 -0.0910  0.0732
  313loPI   C1A 4999  16.374   7.531   9.155  0.3617 -0.0840 -0.0105
  313loPI   C2A 5000  16.397   7.614   8.701  0.1967  0.2766  0.0431
  313loPI   C3A 5001  16.431   7.696   8.369 -0.1633 -0.0158  0.1899
  313loPI   C4A 5002  16.488   7.661   7.957 -0.1142 -0.1364  0.0869
  313loPI   C5A 5003  16.517   7.561   7.480 -0.1374  0.0115  0.3075
  313loPI   C6A 5004  16.627   7.174   7.276 -0.3716  0.0173 -0.1019
  313loPI   C1B 5005  15.921   7.463   8.950  0.2662  0.3738  0.2700
  313loPI   C2B 5006  15.894   7.385   8.450 -0.2577  0.2152  0.1228
  313loPI   C3B 5007  15.976   7.316   7.993 -0.0648 -0.2126  0.0311
  313loPI   C4B 5008  16.011   7.574   7.594  0.1139 -0.1545 -0.1551
  314loPI    C1 5009   9.900  11.387   9.846  0.1081  0.3358  0.1398
  314loPI    C2 5010   9.964  11.679  10.113 -0.2220  0.2943  0.2688
  314loPI    C3 5011   9.777  11.343  10.224  0.2170 -0.0023  0.1392
  314loPI   PO4 5012   9.872  11.582   9.618  0.2732  0.1381  0.3022
  314loPI   GL1 5013  10.085  11.661   9.196  0.2594  0.0769  0.2964
  314loPI   GL2 5014  10.527  11.805   9.304  0.0681  0.1041  0.5148
  314loPI   C1A 5015   9.952  11.672   8.789 -0.2231 -0.0714 -0.3815
  314loPI   C2A 5016   9.925  11.800   8.303 -0.2245 -0.1578  0.1616
  314loPI   C3A 5017  10.071  11.839   7.861  0.0309  0.0101 -0.0048
  314loPI   C4A 5018  10.017  12.127   7.617 -0.1861 -0.0346 -0.1049
  314loPI   C5A 5019  10.276  12.326   7.323 -0.0627  0.0630 -0.1749
  314loPI   C6A 5020  10.606  12.290   6.995  0.0569 -0.1253  0.4398
  314loPI   C1B 5021  10.506  11.852   8.827 -0.0418  0.3891  0.3706
  314loPI   C2B 5022  10.422  11.940   8.338 -0.3678 -0.3571 -0.0946
  314loPI   C3B 5023  10.428  12.210   7.934  0.2367  0.2292 -0.1920
  314loPI   C4B 5024  10.721  12.197   7.482 -0.3882 -0.3699 -0.2194
  315loPI    C1 5025  13.691  15.767   9.963 -0.1808  0.0161 -0.0934
  315loPI    C2 5026  14.060  15.630  10.035 -0.3183 -0.2651  0.0952
  315loPI    C3 5027  13.950  15.991  10.170 -0.0389 -0.0758 -0.1699
  315loPI   PO4 5028  13.695  15.840   9.695  0.3630  0.2026  0.2727
  315loPI   GL1 5029  13.676  15.693   9.293 -0.1036 -0.2311 -0.0557
  315loPI   GL2 5030  13.660  15.337   9.200 -0.2822 -0.0469 -0.0349
  315loPI   C1A 5031  13.437  15.809   8.955 -0.1659 -0.0703 -0.2875
  315loPI   C2A 5032  13.150  15.766   8.660 -0.1856  0.3225  0.1179
  315loPI   C3A 5033  13.149  15.945   8.148 -0.1242 -0.2392 -0.0836
  315loPI   C4A 5034  13.171  15.978   7.718  0.1398  0.1731  0.0650
  315loPI   C5A 5035  13.202  16.239   7.406  0.0477 -0.0655 -0.0394
  315loPI   C6A 5036  13.539  16.244   7.204 -0.0927 -0.2742 -0.0580
  315loPI   C1B 5037  13.700  15.039   8.835  0.0199  0.4421 -0.1030
  315loPI   C2B 5038  13.755  15.024   8.348  0.1608 -0.3370  0.2136
  315loPI   C3B 5039  14.043  14.788   8.035  0.1165 -0.3491  0.3106
  315loPI   C4B 5040  13.934  14.675   7.642 -0.0667 -0.0202  0.2475
  316loPI    C1 5041  15.369   5.810   9.455  0.2577  0.0971 -0.1422
  316loPI    C2 5042  15.430   6.042   9.776  0.0815 -0.3667  0.2389
  316loPI    C3 5043  15.106   6.096   9.548  0.1492 -0.1083  0.2007
  316loPI   PO4 5044  15.604   5.696   9.259 -0.0303  0.0114  0.0399
  316loPI   GL1 5045  15.647   5.487   8.847  0.0199 -0.3893  0.2150
  316loPI   GL2 5046  15.501   5.882   8.839  0.2988  0.0658  0.1819
  316loPI   C1A 5047  15.994   5.602   8.658 -0.0815  0.2493  0.0204
  316loPI   C2A 5048  15.755   5.744   8.322  0.0510  0.0408 -0.3240
  316loPI   C3A 5049  15.722   6.096   8.027  0.1843  0.2605 -0.0641
  316loPI   C4A 5050  15.906   6.262   7.690 -0.1338 -0.0119 -0.3255
  316loPI   C5A 5051  15.900   6.516   7.450  0.1374 -0.1664 -0.0447
  316loPI   C6A 5052  15.777   6.660   7.037 -0.1015  0.3995 -0.4164
  316loPI   C1B 5053  15.905   6.127   8.589 -0.0126  0.2119  0.1133
  316loPI   C2B 5054  16.143   6.263   8.235 -0.1327 -0.1541 -0.1862
  316loPI   C3B 5055  16.432   6.223   7.855 -0.0120  0.3364 -0.0383
  316loPI   C4B 5056  16.342   6.252   7.397 -0.4766  0.2739  0.0772
  317loPI    C1 5057  12.773   5.815   9.720 -0.4045 -0.0798  0.1428
  317loPI    C2 5058  13.038   5.521   9.658  0.0558  0.3249  0.1272
  317loPI    C3 5059  12.941   5.628  10.031 -0.1445  0.1307  0.1330
  317loPI   PO4 5060  12.865   5.959   9.481 -0.0094  0.1261  0.1507
  317loPI   GL1 5061  13.030   5.923   9.046 -0.2237  0.1354 -0.0177
  317loPI   GL2 5062  13.276   6.200   9.095 -0.1863  0.2795  0.4279
  317loPI   C1A 5063  12.923   5.734   8.687  0.0474  0.0577  0.3489
  317loPI   C2A 5064  13.068   5.710   8.248 -0.1072 -0.0675 -0.1092
  317loPI   C3A 5065  13.272   5.679   7.866 -0.1026  0.2007  0.1020
  317loPI   C4A 5066  13.569   5.865   7.535  0.2740 -0.0748 -0.0546
  317loPI   C5A 5067  13.495   6.098   7.142 -0.0878  0.1052  0.1121
  317loPI   C6A 5068  13.150   6.345   6.893 -0.1659  0.0195  0.0512
  317loPI   C1B 5069  13.436   5.965   8.667 -0.2229 -0.0098 -0.2572
  317loPI   C2B 5070  13.574   5.866   8.309  0.1500  0.0678  0.0454
  317loPI   C3B 5071  13.593   6.045   7.984 -0.0548 -0.0029 -0.1141
  317loPI   C4B 5072  13.393   6.345   7.711  0.1021 -0.1054  0.1581
  318loPI    C1 5073  19.034   3.729   9.502 -0.0821 -0.2055  0.0335
  318loPI    C2 5074  19.250   3.572   9.800 -0.0081 -0.1426  0.0132
  318loPI    C3 5075  18.863   3.477   9.762 -0.1015  0.0979  0.3219
  318loPI   PO4 5076  19.145   3.755   9.329 -0.1973 -0.1871 -0.0711
  318loPI   GL1 5077  19.102   3.794   8.922 -0.1745 -0.3653 -0.1230
  318loPI   GL2 5078  18.721   3.808   8.932  0.2013 -0.0759  0.1956
  318loPI   C1A 5079  19.399   3.840   8.585  0.2439  0.1888 -0.0332
  318loPI   C2A 5080  19.619   3.869   8.246  0.0280 -0.0718  0.0539
  318loPI   C3A 5081  19.501   3.924   7.857 -0.0554 -0.0020  0.1712
  318loPI   C4A 5082  19.579   3.937   7.426 -0.0839  0.0224  0.0242
  318loPI   C5A 5083  19.764   3.637   7.053 -0.1190  0.3312  0.2062
  318loPI   C6A 5084  20.125   3.484   6.994  0.1834  0.3383  0.0977
  318loPI   C1B 5085  18.717   3.925   8.479 -0.2743 -0.0140  0.2204
  318loPI   C2B 5086  18.514   3.791   8.078 -0.1355  0.0338  0.1748
  318loPI   C3B 5087  18.363   3.627   7.642 -0.1197 -0.1055 -0.0028
  318loPI   C4B 5088  18.183   3.542   7.280 -0.1811  0.2098 -0.0546
  319loPI    C1 5089  19.530  13.358   9.330  0.0346  0.0303  0.0041
  319loPI    C2 5090  19.583  13.551   9.676 -0.0136  0.0377  0.0073
  319loPI    C3 5091  19.728  13.182   9.629  0.2357  0.1422 -0.0610
  319loPI   PO4 5092  19.419  13.563   9.179  0.0918 -0.0736 -0.2961
  319loPI   GL1 5093  19.496  13.721   8.861 -0.0004 -0.2015  0.1306
  319loPI   GL2 5094  19.585  14.000   8.876  0.0204 -0.2416  0.0443
  319loPI   C1A 5095  19.722  13.673   8.555  0.2430  0.0591 -0.3241
  319loPI   C2A 5096  19.698  13.705   8.128  0.3896  0.0073  0.3881
  319loPI   C3A 5097  19.654  13.698   7.751  0.4798 -0.0274 -0.2977
  319loPI   C4A 5098  19.728  13.562   7.406  0.3169  0.8024  0.3413
  319loPI   C5A 5099  19.612  13.681   7.015 -0.1024  0.0829 -0.2258
  319loPI   C6A 5100  19.445  14.143   6.987  0.0622  0.3028  0.0252
  319loPI   C1B 5101  19.554  14.163   8.548  0.4824 -0.0022 -0.3369
  319loPI   C2B 5102  19.494  14.304   8.162  0.0768  0.1151 -0.2171
  319loPI   C3B 5103  19.530  14.686   7.748 -0.0156  0.1581  0.0293
  319loPI   C4B 5104  19.604  15.071   7.607 -0.1577 -0.0534 -0.0201
  320loPI    C1 5105   3.997  10.905   9.297  0.0194 -0.3572 -0.0649
  320loPI    C2 5106   4.289  10.661   9.420  0.0939 -0.1663  0.1439
  320loPI    C3 5107   4.350  11.056   9.408 -0.0855 -0.1422 -0.0193
  320loPI   PO4 5108   3.885  10.762   9.115 -0.0024  0.0317  0.4654
  320loPI   GL1 5109   3.668  10.506   8.771 -0.0070  0.1508  0.1675
  320loPI   GL2 5110   4.068  10.526   8.611  0.0366 -0.2583  0.1334
  320loPI   C1A 5111   3.482  10.526   8.376 -0.2680 -0.0300 -0.0494
  320loPI   C2A 5112   3.154  10.656   8.182 -0.1354 -0.1119  0.1119
  320loPI   C3A 5113   3.121  10.675   7.808  0.0662  0.2327  0.1557
  320loPI   C4A 5114   3.074  10.307   7.541 -0.0851  0.2569 -0.0738
  320loPI   C5A 5115   2.952  10.066   7.193 -0.0113 -0.0089 -0.0827
  320loPI   C6A 5116   3.155   9.812   6.824  0.1379 -0.0589  0.4751
  320loPI   C1B 5117   4.336  10.510   8.221  0.1940 -0.0734 -0.1286
  320loPI   C2B 5118   4.458  10.269   7.962  0.1299  0.1881 -0.0630
  320loPI   C3B 5119   4.462  10.291   7.394  0.3401 -0.0884 -0.1124
  320loPI   C4B 5120   4.803  10.123   7.146 -0.0142  0.0952 -0.2530
  321loPI    C1 5121   2.272  15.379   9.627 -0.1137 -0.1041 -0.2433
  321loPI    C2 5122   2.387  15.057   9.834  0.3525  0.1321 -0.1191
  321loPI    C3 5123   2.276  15.390  10.026 -0.2417  0.0193 -0.2445
  321loPI   PO4 5124   2.356  15.201   9.352 -0.1195 -0.2026 -0.0597
  321loPI   GL1 5125   2.408  15.340   8.945  0.1000 -0.0111  0.2903
  321loPI   GL2 5126   2.782  15.178   8.726 -0.0587  0.1018 -0.2474
  321loPI   C1A 5127   2.265  15.046   8.656 -0.2129 -0.1913 -0.0608
  321loPI   C2A 5128   2.066  14.758   8.303 -0.0645  0.0025  0.0067
  321loPI   C3A 5129   1.825  14.893   7.900 -0.0977  0.0691 -0.1333
  321loPI   C4A 5130   1.783  14.903   7.371 -0.1357  0.1342  0.0802
  321loPI   C5A 5131   2.069  14.914   6.975 -0.2050 -0.0929 -0.1071
  321loPI   C6A 5132   2.372  14.979   6.600  0.4723  0.2151  0.0684
  321loPI   C1B 5133   2.992  15.064   8.456  0.1037 -0.2734 -0.2256
  321loPI   C2B 5134   2.994  14.930   8.055  0.1808 -0.0434  0.1829
  321loPI   C3B 5135   2.969  14.851   7.601  0.4018 -0.2860  0.0428
  321loPI   C4B 5136   3.032  15.283   7.284  0.3029  0.0148  0.0563
  322loPI    C1 5137  16.691  18.561   9.731  0.1595  0.2869 -0.0103
  322loPI    C2 5138  17.020  18.363   9.619 -0.0856 -0.0624 -0.1298
  322loPI    C3 5139  16.960  18.447  10.005  0.1243 -0.0289 -0.1028
  322loPI   PO4 5140  16.473  18.406   9.584  0.2707  0.0618 -0.3078
  322loPI   GL1 5141  16.627  18.043   9.282 -0.1328  0.2227 -0.2072
  322loPI   GL2 5142  16.903  17.730   9.367 -0.2801 -0.2489 -0.1447
  322loPI   C1A 5143  16.631  18.241   8.980 -0.1551  0.0697 -0.1459
  322loPI   C2A 5144  16.608  18.297   8.528  0.2882  0.1626  0.0883
  322loPI   C3A 5145  16.611  18.183   8.109  0.3144 -0.1251 -0.2744
  322loPI   C4A 5146  16.680  18.173   7.652 -0.0800  0.1997 -0.0311
  322loPI   C5A 5147  16.945  18.062   7.386  0.1387  0.4027  0.1802
  322loPI   C6A 5148  16.968  18.290   7.081 -0.1862  0.0843 -0.0405
  322loPI   C1B 5149  16.799  17.747   8.895  0.2252  0.2779 -0.2537
  322loPI   C2B 5150  16.780  17.698   8.444  0.1358 -0.0869 -0.5466
  322loPI   C3B 5151  16.780  17.714   7.949  0.0738  0.1489  0.1344
  322loPI   C4B 5152  16.933  17.545   7.548 -0.1681  0.2238 -0.0448
  323loPI    C1 5153   5.833   1.476   9.367 -0.0968  0.0528  0.0303
  323loPI    C2 5154   6.096   1.191   9.464  0.1003  0.1896 -0.0940
  323loPI    C3 5155   5.751   1.221   9.664  0.1736  0.0025  0.0645
  323loPI   PO4 5156   6.081   1.589   9.140 -0.2747 -0.2363 -0.1229
  323loPI   GL1 5157   6.066   1.888   8.679 -0.0705  0.3618 -0.0145
  323loPI   GL2 5158   6.399   1.753   8.743  0.3065 -0.2511 -0.0489
  323loPI   C1A 5159   5.990   1.996   8.294  0.1715 -0.0535 -0.1731
  323loPI   C2A 5160   5.851   1.786   7.796 -0.1632 -0.0279 -0.1999
  323loPI   C3A 5161   5.691   1.503   7.418  0.2057  0.2429 -0.2330
  323loPI   C4A 5162   5.380   1.224   7.278  0.1769 -0.0040 -0.0172
  323loPI   C5A 5163   5.064   0.907   7.151  0.0037 -0.2156 -0.0021
  323loPI   C6A 5164   4.824   0.941   6.875  0.4801 -0.2261  0.0678
  323loPI   C1B 5165   6.560   1.808   8.250  0.1321 -0.0442  0.1684
  323loPI   C2B 5166   6.385   1.851   7.738 -0.0643 -0.2488  0.4081
  323loPI   C3B 5167   6.628   1.723   7.423 -0.0050  0.2710  0.2962
  323loPI   C4B 5168   6.945   1.460   7.230  0.5064 -0.1194 -0.0047
  324loPI    C1 5169  15.453  11.457   9.925  0.0705  0.3277  0.0033
  324loPI    C2 5170  15.513  11.449  10.321  0.1743  0.1135 -0.0156
  324loPI    C3 5171  15.164  11.578  10.174 -0.0594 -0.2909  0.1683
  324loPI   PO4 5172  15.588  11.267   9.826  0.2988 -0.1718  0.1742
  324loPI   GL1 5173  15.654  11.184   9.357  0.0311 -0.3530 -0.1040
  324loPI   GL2 5174  15.925  11.282   9.214  0.1089 -0.1551 -0.2269
  324loPI   C1A 5175  15.528  11.107   8.873  0.0456  0.2172  0.0178
  324loPI   C2A 5176  15.499  10.980   8.417  0.1885  0.1415  0.0191
  324loPI   C3A 5177  15.585  10.954   7.989 -0.3388  0.1870  0.1684
  324loPI   C4A 5178  15.772  10.903   7.595  0.0523 -0.0890  0.0543
  324loPI   C5A 5179  16.082  10.951   7.396  0.0910  0.1109  0.1360
  324loPI   C6A 5180  16.354  11.126   7.166 -0.1375  0.0900  0.3934
  324loPI   C1B 5181  16.029  11.268   8.779  0.1372  0.3555  0.0133
  324loPI   C2B 5182  15.950  11.183   8.271  0.3135  0.2323 -0.1350
  324loPI   C3B 5183  16.090  11.199   7.889  0.2059  0.1932  0.2351
  324loPI   C4B 5184  16.124  11.412   7.443  0.3099  0.1831 -0.2026
  325loPI    C1 5185  14.707  11.276  10.325 -0.1646  0.0863 -0.0420
  325loPI    C2 5186  14.570  11.097  10.655  0.0658 -0.1410 -0.0666
  325loPI    C3 5187  14.953  11.055  10.549  0.0298  0.0541 -0.2826
  325loPI   PO4 5188  14.507  11.189  10.110  0.1765  0.2270 -0.0086
  325loPI   GL1 5189  14.370  11.088   9.687  0.0569 -0.0713 -0.0872
  325loPI   GL2 5190  14.121  11.252   9.651  0.0951 -0.2444  0.2460
  325loPI   C1A 5191  14.626  10.939   9.316 -0.3431 -0.1451 -0.2347
  325loPI   C2A 5192  14.893  10.922   9.029 -0.1743 -0.2566 -0.0710
  325loPI   C3A 5193  15.032  11.081   8.637 -0.0505 -0.2634 -0.0129
  325loPI   C4A 5194  15.000  11.127   8.160 -0.0456  0.1029 -0.0899
  325loPI   C5A 5195  15.130  11.105   7.785 -0.1002  0.4404  0.0536
  325loPI   C6A 5196  15.239  11.069   7.372 -0.4746  0.0300  0.2472
  325loPI   C1B 5197  13.982  11.428   9.140 -0.0867 -0.1204  0.2493
  325loPI   C2B 5198  13.964  11.441   8.708  0.1533 -0.0461 -0.0948
  325loPI   C3B 5199  13.993  11.433   8.254 -0.2088  0.0748  0.4872
  325loPI   C4B 5200  14.032  11.577   7.914 -0.3418 -0.0041 -0.1033
  326loPI    C1 5201   6.522  13.226  10.030 -0.2594  0.1782 -0.0834
  326loPI    C2 5202   6.783  13.529  10.033  0.0429 -0.0779  0.0982
  326loPI    C3 5203   6.670  13.359  10.377  0.0407 -0.3099 -0.0156
  326loPI   PO4 5204   6.538  13.092   9.762  0.0377 -0.4158 -0.3143
  326loPI   GL1 5205   6.422  13.116   9.354 -0.2724 -0.0283 -0.0261
  326loPI   GL2 5206   6.462  13.434   9.310 -0.1373  0.2037 -0.2395
  326loPI   C1A 5207   6.248  13.107   8.889  0.1268 -0.1269  0.1600
  326loPI   C2A 5208   6.202  13.251   8.534 -0.2233 -0.1664 -0.3835
  326loPI   C3A 5209   6.210  13.195   8.046 -0.1074 -0.3102  0.2146
  326loPI   C4A 5210   6.233  13.019   7.642  0.0151 -0.0478  0.0331
  326loPI   C5A 5211   6.229  12.954   7.247 -0.4926  0.0341  0.0318
  326loPI   C6A 5212   6.093  13.213   6.878  0.2176 -0.1273 -0.0480
  326loPI   C1B 5213   6.911  13.592   9.190  0.0890  0.0036  0.2129
  326loPI   C2B 5214   7.033  13.692   8.797  0.3072 -0.0362 -0.0126
  326loPI   C3B 5215   6.905  13.924   8.468  0.1135  0.2068  0.3760
  326loPI   C4B 5216   7.027  13.874   7.983  0.4402 -0.1329 -0.1220
  327loPI    C1 5217   6.205  11.343   9.735  0.0130  0.0885  0.0818
  327loPI    C2 5218   6.230  11.711   9.888  0.0738  0.0747  0.1056
  327loPI    C3 5219   6.414  11.406  10.071  0.0695  0.0421  0.0557
  327loPI   PO4 5220   6.269  11.469   9.452 -0.4247 -0.2862 -0.1546
  327loPI   GL1 5221   6.366  11.597   9.189 -0.1418  0.1579 -0.0792
  327loPI   GL2 5222   5.995  11.542   9.046  0.0254  0.1140  0.1370
  327loPI   C1A 5223   6.389  11.699   8.758 -0.1948 -0.3893 -0.0852
  327loPI   C2A 5224   6.391  11.808   8.368  0.0456  0.0461 -0.0511
  327loPI   C3A 5225   6.306  12.040   8.039 -0.1426 -0.4921 -0.2042
  327loPI   C4A 5226   6.708  11.984   7.801 -0.1640 -0.0327  0.0791
  327loPI   C5A 5227   6.956  12.007   7.483 -0.4030 -0.1558  0.2243
  327loPI   C6A 5228   6.894  12.382   7.212 -0.0866 -0.1741 -0.0478
  327loPI   C1B 5229   5.917  11.720   8.593  0.0903  0.0962 -0.2010
  327loPI   C2B 5230   5.827  11.890   8.262  0.0126  0.1302 -0.0771
  327loPI   C3B 5231   5.877  11.946   7.826 -0.3971 -0.0934  0.1364
  327loPI   C4B 5232   5.853  12.118   7.544  0.0184  0.2048 -0.1252
  328loPI    C1 5233   8.854  18.348   9.742 -0.0069  0.1898 -0.2531
  328loPI    C2 5234   8.875  18.719   9.889 -0.1507  0.0541  0.1207
  328loPI    C3 5235   9.025  18.413  10.098 -0.0918 -0.1082 -0.1553
  328loPI   PO4 5236   8.846  18.409   9.488 -0.2268  0.1396 -0.0833
  328loPI   GL1 5237   8.946  18.318   9.075  0.1030 -0.1762 -0.3078
  328loPI   GL2 5238   8.680  18.595   9.013  0.1429 -0.0904  0.1189
  328loPI   C1A 5239   9.248  18.207   8.726  0.0814  0.3426 -0.1809
  328loPI   C2A 5240   9.202  18.114   8.328  0.1295  0.3783  0.2426
  328loPI   C3A 5241   9.437  17.809   7.976  0.3338  0.1221  0.0426
  328loPI   C4A 5242   9.879  17.770   8.014  0.0466 -0.3061  0.1303
  328loPI   C5A 5243  10.192  17.564   7.859 -0.1122  0.3165  0.3018
  328loPI   C6A 5244  10.406  17.207   7.599 -0.1983 -0.1961 -0.0398
  328loPI   C1B 5245   8.798  18.585   8.599 -0.2204  0.0381  0.1024
  328loPI   C2B 5246   8.777  18.441   8.188 -0.0642  0.1877 -0.0321
  328loPI   C3B 5247   8.999  18.078   7.857  0.0451 -0.2228  0.1153
  328loPI   C4B 5248   9.329  18.062   7.499 -0.0828 -0.0948 -0.3179
  329loPI    C1 5249  12.627  14.204  10.227 -0.0629 -0.1426  0.1408
  329loPI    C2 5250  12.843  14.494  10.398 -0.1002 -0.0776  0.0778
  329loPI    C3 5251  12.611  14.258  10.623 -0.0954 -0.0371  0.1253
  329loPI   PO4 5252  12.492  14.324  10.036 -0.1166  0.1646  0.1798
  329loPI   GL1 5253  12.448  14.339   9.608  0.1772  0.0590  0.1606
  329loPI   GL2 5254  12.188  14.591   9.667 -0.2687  0.2822  0.0676
  329loPI   C1A 5255  12.559  14.179   9.302 -0.0466 -0.0313  0.1259
  329loPI   C2A 5256  12.520  13.826   9.037  0.1261 -0.2217 -0.0007
  329loPI   C3A 5257  12.576  13.719   8.645 -0.0569  0.1004 -0.0248
  329loPI   C4A 5258  12.524  13.579   8.202  0.0698 -0.2291  0.0015
  329loPI   C5A 5259  12.653  13.562   7.746  0.1827  0.4812 -0.0511
  329loPI   C6A 5260  12.866  13.973   7.491  0.0924 -0.4981 -0.2420
  329loPI   C1B 5261  12.148  14.526   9.198 -0.0943  0.0480  0.2129
  329loPI   C2B 5262  12.287  14.431   8.777  0.1248  0.1657 -0.0627
  329loPI   C3B 5263  12.510  14.270   8.387  0.0258  0.1301  0.2855
  329loPI   C4B 5264  12.864  13.980   8.346 -0.3643  0.0997  0.1887
  330loPI    C1 5265  15.379  10.820   9.862  0.0216  0.1972 -0.0795
  330loPI    C2 5266  15.126  11.084  10.023  0.0136  0.0635  0.1318
  330loPI    C3 5267  15.083  10.694  10.100 -0.0477 -0.0145 -0.2735
  330loPI   PO4 5268  15.360  10.734   9.554  0.0115 -0.1806 -0.2037
  330loPI   GL1 5269  15.449  10.582   9.143  0.2208 -0.0155 -0.0111
  330loPI   GL2 5270  15.117  10.416   9.284  0.2255  0.4251 -0.0754
  330loPI   C1A 5271  15.231  10.595   8.767  0.1284  0.0994 -0.4993
  330loPI   C2A 5272  15.139  10.653   8.395 -0.3787 -0.2851 -0.1040
  330loPI   C3A 5273  15.258  10.564   8.112 -0.1101 -0.1054 -0.3524
  330loPI   C4A 5274  15.272  10.614   7.763 -0.2456 -0.0470  0.1509
  330loPI   C5A 5275  15.369  10.183   7.579 -0.1819 -0.0889  0.0367
  330loPI   C6A 5276  15.431   9.781   7.438  0.3254  0.1284 -0.1408
  330loPI   C1B 5277  15.015  10.213   8.977  0.5663  0.0031  0.0230
  330loPI   C2B 5278  14.986  10.188   8.574  0.2844  0.0601 -0.1706
  330loPI   C3B 5279  14.866  10.325   8.110  0.0474 -0.0696 -0.2246
  330loPI   C4B 5280  14.791  10.354   7.636 -0.2696  0.0177 -0.2955
  331loPI    C1 5281  13.829   3.193   9.418 -0.2425  0.0632 -0.0809
  331loPI    C2 5282  14.130   3.449   9.481 -0.1472 -0.0128 -0.2200
  331loPI    C3 5283  13.917   3.309   9.790  0.0474 -0.0637 -0.1073
  331loPI   PO4 5284  13.726   3.292   9.272  0.1514  0.0037 -0.1692
  331loPI   GL1 5285  13.778   3.450   8.901  0.1606 -0.4235 -0.0015
  331loPI   GL2 5286  13.902   3.810   9.037  0.0089  0.0624 -0.0745
  331loPI   C1A 5287  13.719   3.474   8.444 -0.2482  0.1425 -0.0386
  331loPI   C2A 5288  13.428   3.408   8.036 -0.1491  0.1198  0.0589
  331loPI   C3A 5289  13.520   3.310   7.603 -0.2098 -0.0091 -0.1684
  331loPI   C4A 5290  13.787   3.443   7.163  0.6684 -0.1359  0.5034
  331loPI   C5A 5291  13.892   3.868   7.009  0.4780  0.2754 -0.1784
  331loPI   C6A 5292  14.044   4.325   6.877  0.1122 -0.0375 -0.3628
  331loPI   C1B 5293  14.159   3.693   8.616  0.1515  0.1658  0.5116
  331loPI   C2B 5294  14.070   3.640   8.164  0.1148  0.0782  0.0036
  331loPI   C3B 5295  13.913   3.558   7.844  0.1404 -0.3062 -0.0245
  331loPI   C4B 5296  13.827   3.756   7.485 -0.2319 -0.2742 -0.0953
  332loPI    C1 5297  11.663  16.082  10.295  0.0284  0.2883  0.1536
  332loPI    C2 5298  12.052  16.085  10.388 -0.0122  0.1135  0.3344
  332loPI    C3 5299  11.781  16.191  10.662 -0.1071 -0.0077  0.2877
  332loPI   PO4 5300  11.598  16.198  10.011  0.1193 -0.0327 -0.3337
  332loPI   GL1 5301  11.346  15.990   9.786 -0.0705  0.2036 -0.1995
  332loPI   GL2 5302  11.609  16.198   9.523  0.1906 -0.0578  0.0530
  332loPI   C1A 5303  11.325  15.813   9.408 -0.2078  0.1173 -0.1101
  332loPI   C2A 5304  11.500  15.747   9.248 -0.1800 -0.1110  0.3356
  332loPI   C3A 5305  11.562  15.602   8.831 -0.0511 -0.0319  0.0134
  332loPI   C4A 5306  11.431  15.522   8.440  0.2333  0.0486  0.0255
  332loPI   C5A 5307  11.478  15.382   8.000 -0.1472  0.4856 -0.0063
  332loPI   C6A 5308  11.442  15.043   7.784 -0.0509  0.1843  0.0420
  332loPI   C1B 5309  11.579  16.195   9.104 -0.3732  0.2992  0.0577
  332loPI   C2B 5310  11.618  16.153   8.644 -0.0946 -0.1291 -0.1756
  332loPI   C3B 5311  11.601  15.991   8.325  0.0700 -0.3557  0.4447
  332loPI   C4B 5312  11.487  15.925   7.876  0.0452  0.3730  0.1262
  333loPI    C1 5313  12.694   9.115   9.621  0.3650  0.0044 -0.1363
  333loPI    C2 5314  12.865   8.945   9.941  0.0694 -0.1278 -0.0448
  333loPI    C3 5315  12.646   9.277   9.983  0.0697 -0.1178 -0.1184
  333loPI   PO4 5316  12.879   9.104   9.464 -0.2081 -0.0731  0.0148
  333loPI   GL1 5317  12.968   8.965   9.127 -0.0457 -0.0960  0.0606
  333loPI   GL2 5318  12.980   8.712   8.967  0.0833  0.0667  0.1649
  333loPI   C1A 5319  12.919   9.157   8.675 -0.1534 -0.0971  0.0985
  333loPI   C2A 5320  12.842   9.118   8.183 -0.1518  0.0193 -0.1513
  333loPI   C3A 5321  12.580   9.210   7.905 -0.0843 -0.0129 -0.3856
  333loPI   C4A 5322  12.606   9.505   7.551  0.1248 -0.0705 -0.1700
  333loPI   C5A 5323  12.965   9.804   7.353 -0.1599 -0.0389  0.1177
  333loPI   C6A 5324  13.359   9.817   7.185 -0.2058  0.2754  0.0640
  333loPI   C1B 5325  12.914   8.569   8.498  0.2699 -0.0878 -0.0431
  333loPI   C2B 5326  12.906   8.633   8.042  0.1395 -0.0714  0.3480
  333loPI   C3B 5327  12.953   8.821   7.707 -0.0424 -0.1836 -0.1216
  333loPI   C4B 5328  12.946   8.799   7.262 -0.1040 -0.1081 -0.0544
  334loPI    C1 5329   2.885   6.989   9.507 -0.1700  0.1658  0.0131
  334loPI    C2 5330   3.210   6.793   9.382 -0.2587  0.1824 -0.2507
  334loPI    C3 5331   3.246   7.098   9.639 -0.1407 -0.3416  0.3814
  334loPI   PO4 5332   2.774   7.055   9.303  0.1592 -0.1964  0.1691
  334loPI   GL1 5333   2.732   7.173   8.978 -0.2025  0.1192  0.2206
  334loPI   GL2 5334   3.143   7.030   8.902  0.0877 -0.0761  0.0784
  334loPI   C1A 5335   2.533   7.114   8.632 -0.2052  0.1988  0.1435
  334loPI   C2A 5336   2.667   7.111   8.250 -0.1272 -0.3017  0.1316
  334loPI   C3A 5337   2.518   7.085   7.889  0.2253  0.1940 -0.1442
  334loPI   C4A 5338   2.604   6.945   7.409  0.3980 -0.2524 -0.0885
  334loPI   C5A 5339   2.811   6.841   7.028  0.0368 -0.0693 -0.1049
  334loPI   C6A 5340   3.175   6.585   7.009 -0.0896  0.1590 -0.1968
  334loPI   C1B 5341   3.111   7.040   8.507  0.0571  0.0460 -0.0912
  334loPI   C2B 5342   3.259   7.013   8.108 -0.2204 -0.2277  0.1125
  334loPI   C3B 5343   3.511   7.052   7.693 -0.1534 -0.0005 -0.1846
  334loPI   C4B 5344   3.513   6.766   7.467  0.4040 -0.3395 -0.1326
  335loPI    C1 5345  18.536  13.755   9.350 -0.0159 -0.2097 -0.2577
  335loPI    C2 5346  18.489  13.698   9.743  0.1391  0.3481 -0.1488
  335loPI    C3 5347  18.185  13.625   9.493  0.0529 -0.0523  0.0628
  335loPI   PO4 5348  18.650  14.102   9.286  0.2425  0.0489 -0.0675
  335loPI   GL1 5349  19.000  14.332   9.117 -0.0794 -0.1184 -0.1114
  335loPI   GL2 5350  19.298  14.391   8.927  0.0491 -0.3096 -0.2201
  335loPI   C1A 5351  18.904  14.302   8.650 -0.3503  0.5249  0.1392
  335loPI   C2A 5352  19.019  14.278   8.239 -0.0059 -0.1174  0.1778
  335loPI   C3A 5353  18.947  14.416   7.800 -0.0562 -0.2383  0.1495
  335loPI   C4A 5354  19.140  14.640   7.429  0.0799 -0.0160  0.0285
  335loPI   C5A 5355  19.594  14.605   7.260  0.0400  0.1564  0.1226
  335loPI   C6A 5356  19.817  14.530   6.898  0.1070 -0.1938  0.5493
  335loPI   C1B 5357  19.275  14.600   8.517 -0.1495 -0.3130  0.1107
  335loPI   C2B 5358  19.705  14.792   8.312  0.1455  0.2205  0.2005
  335loPI   C3B 5359  19.602  15.063   8.080  0.0146 -0.0311  0.1577
  335loPI   C4B 5360  19.661  15.530   8.031 -0.0705  0.1783  0.2643
  336loPI    C1 5361  17.269   3.634   9.512 -0.0762 -0.1057  0.0425
  336loPI    C2 5362  17.163   3.349   9.772 -0.0977 -0.0158  0.1327
  336loPI    C3 5363  17.495   3.563   9.834 -0.1212  0.0289  0.1047
  336loPI   PO4 5364  17.266   3.509   9.280  0.2278 -0.0641  0.0108
  336loPI   GL1 5365  17.400   3.668   8.883 -0.1357  0.0428  0.4383
  336loPI   GL2 5366  17.790   3.498   8.908  0.0173  0.0334 -0.2313
  336loPI   C1A 5367  17.451   4.118   8.713  0.3079 -0.1608 -0.2410
  336loPI   C2A 5368  17.641   4.225   8.303 -0.0059  0.1261  0.0442
  336loPI   C3A 5369  17.589   4.248   7.879 -0.4105 -0.2722 -0.1450
  336loPI   C4A 5370  17.662   4.450   7.543  0.1363 -0.0005  0.0251
  336loPI   C5A 5371  17.725   4.725   7.208 -0.0150 -0.0253  0.5827
  336loPI   C6A 5372  17.780   5.150   6.981 -0.0992  0.2093 -0.0717
  336loPI   C1B 5373  17.717   3.540   8.474  0.3696  0.2501  0.0620
  336loPI   C2B 5374  17.471   3.527   8.053 -0.4598 -0.2465  0.0107
  336loPI   C3B 5375  17.329   3.554   7.643 -0.1169  0.3090  0.1905
  336loPI   C4B 5376  17.083   3.547   7.332 -0.0222  0.0241 -0.0716
  337loPI    C1 5377  18.446  10.476   9.427 -0.0328 -0.2011  0.1409
  337loPI    C2 5378  18.303  10.483   9.800  0.0693  0.2614  0.1762
  337loPI    C3 5379  18.672  10.617   9.725  0.1340 -0.0391 -0.0598
  337loPI   PO4 5380  18.351  10.309   9.333  0.1768  0.3078  0.0293
  337loPI   GL1 5381  18.392  10.054   9.044 -0.0075 -0.2200 -0.1878
  337loPI   GL2 5382  18.225   9.820   9.088 -0.0237 -0.1001 -0.3740
  337loPI   C1A 5383  18.514  10.002   8.665  0.1439 -0.0522  0.0282
  337loPI   C2A 5384  18.604  10.068   8.351  0.1022 -0.1703 -0.4350
  337loPI   C3A 5385  18.421   9.886   8.060  0.2424  0.1385 -0.1484
  337loPI   C4A 5386  18.230   9.861   7.689  0.0355 -0.2997 -0.2251
  337loPI   C5A 5387  18.159   9.947   7.173  0.0388 -0.2278  0.0538
  337loPI   C6A 5388  17.952   9.899   6.764 -0.1150  0.0892  0.2310
  337loPI   C1B 5389  18.167   9.632   8.657  0.0927  0.0894  0.1631
  337loPI   C2B 5390  18.056   9.538   8.197  0.1336 -0.1286 -0.1591
  337loPI   C3B 5391  17.894   9.571   7.874  0.2002  0.0909 -0.0566
  337loPI   C4B 5392  17.885   9.552   7.446  0.2077 -0.0325  0.0280
  338loPI    C1 5393  12.069  12.987  10.010  0.1259 -0.0068  0.0018
  338loPI    C2 5394  12.117  13.363   9.883 -0.0187 -0.0003 -0.0353
  338loPI    C3 5395  11.877  13.286  10.193  0.2168 -0.0332  0.1413
  338loPI   PO4 5396  12.079  12.869   9.815 -0.0432 -0.1118 -0.0238
  338loPI   GL1 5397  12.242  12.619   9.571 -0.1511 -0.1755  0.1156
  338loPI   GL2 5398  11.997  12.463   9.521 -0.1686 -0.0634  0.1167
  338loPI   C1A 5399  12.327  12.427   9.118  0.1653  0.0481  0.1536
  338loPI   C2A 5400  12.212  12.204   8.820  0.1891 -0.0884 -0.0528
  338loPI   C3A 5401  12.131  12.040   8.466  0.2143  0.1971  0.3027
  338loPI   C4A 5402  12.026  12.161   8.119  0.1152  0.1191 -0.2001
  338loPI   C5A 5403  12.181  12.326   7.709  0.0325  0.0658 -0.0106
  338loPI   C6A 5404  12.485  12.373   7.443 -0.0349 -0.2264 -0.0385
  338loPI   C1B 5405  11.792  12.605   9.185 -0.1649  0.1222 -0.0178
  338loPI   C2B 5406  11.698  12.580   8.702  0.3057 -0.1516 -0.2441
  338loPI   C3B 5407  11.666  12.444   8.226 -0.1053  0.0240  0.2130
  338loPI   C4B 5408  11.693  12.409   7.741  0.1163  0.2914  0.2608
  339loPI    C1 5409   1.827  15.928   9.381 -0.0498  0.1911  0.1492
  339loPI    C2 5410   1.487  15.768   9.516 -0.0502 -0.1258 -0.2101
  339loPI    C3 5411   1.822  15.550   9.511  0.0797  0.0708 -0.1858
  339loPI   PO4 5412   1.787  15.974   9.119  0.1219  0.2352  0.0249
  339loPI   GL1 5413   1.850  15.842   8.768  0.2498  0.2032 -0.1703
  339loPI   GL2 5414   2.007  15.594   8.767 -0.1251  0.0815 -0.1826
  339loPI   C1A 5415   1.661  16.011   8.484  0.4687 -0.2722  0.3335
  339loPI   C2A 5416   1.588  16.088   8.046  0.2814  0.4276 -0.2029
  339loPI   C3A 5417   1.682  16.191   7.570  0.3975  0.0968  0.1200
  339loPI   C4A 5418   1.705  16.579   7.339 -0.5021  0.2400  0.1971
  339loPI   C5A 5419   1.937  16.745   7.027  0.1335  0.0461  0.2668
  339loPI   C6A 5420   2.121  16.933   6.639 -0.0592 -0.1685 -0.0748
  339loPI   C1B 5421   2.043  15.766   8.311 -0.1585  0.1059  0.0267
  339loPI   C2B 5422   1.911  15.784   7.849 -0.1107 -0.1710  0.0195
  339loPI   C3B 5423   1.810  15.586   7.432  0.2988 -0.1166  0.1120
  339loPI   C4B 5424   1.719  15.343   7.024 -0.3133 -0.0706  0.1988
  340loPI    C1 5425  13.225  10.843  10.049 -0.0317 -0.4137 -0.0047
  340loPI    C2 5426  13.319  10.533  10.283  0.0232 -0.1310  0.3583
  340loPI    C3 5427  13.602  10.793  10.173 -0.0001 -0.2663 -0.0391
  340loPI   PO4 5428  13.070  10.799   9.907  0.1806  0.0279 -0.0679
  340loPI   GL1 5429  13.090  10.476   9.531  0.8476  0.1989 -0.1537
  340loPI   GL2 5430  13.420  10.508   9.295 -0.2165  0.1919 -0.0162
  340loPI   C1A 5431  12.906  10.623   9.128  0.0805 -0.0527 -0.4758
  340loPI   C2A 5432  12.779  10.607   8.643  0.0090 -0.2202  0.1525
  340loPI   C3A 5433  12.765  10.851   8.322  0.1350 -0.1815 -0.2227
  340loPI   C4A 5434  12.749  10.836   7.903 -0.2734 -0.0609 -0.0112
  340loPI   C5A 5435  12.884  10.777   7.452  0.1429 -0.3107 -0.2920
  340loPI   C6A 5436  12.900  10.858   6.993 -0.1210 -0.1106 -0.2257
  340loPI   C1B 5437  13.618  10.517   8.875 -0.2267 -0.1262 -0.1318
  340loPI   C2B 5438  13.817  10.426   8.428 -0.0349 -0.1814  0.3763
  340loPI   C3B 5439  13.720  10.348   7.954 -0.1983  0.1910 -0.1260
  340loPI   C4B 5440  13.596  10.587   7.553  0.0102 -0.1935 -0.0036
  341loPI    C1 5441   4.849  18.075   9.511 -0.0017  0.1518  0.0085
  341loPI    C2 5442   4.881  18.449   9.648  0.0743  0.0650  0.2331
  341loPI    C3 5443   4.525  18.267   9.648  0.0082  0.1884 -0.0196
  341loPI   PO4 5444   4.873  18.081   9.255  0.0320  0.6160 -0.0215
  341loPI   GL1 5445   4.884  18.147   8.851 -0.1772 -0.1870 -0.1336
  341loPI   GL2 5446   4.860  18.404   8.725  0.3656  0.2005 -0.0357
  341loPI   C1A 5447   4.582  17.991   8.582  0.0835  0.2501  0.0208
  341loPI   C2A 5448   4.572  17.879   8.228  0.2868 -0.0182 -0.0527
  341loPI   C3A 5449   4.573  17.878   7.865 -0.0911  0.2310  0.2745
  341loPI   C4A 5450   4.650  17.706   7.559 -0.1159  0.0412  0.0126
  341loPI   C5A 5451   4.790  17.652   7.072  0.0873  0.1251 -0.2370
  341loPI   C6A 5452   5.055  17.884   6.779  0.0518 -0.2863  0.0108
  341loPI   C1B 5453   4.884  18.304   8.353 -0.2232 -0.0262  0.1414
  341loPI   C2B 5454   4.782  18.309   7.955 -0.1078 -0.1205  0.1693
  341loPI   C3B 5455   4.923  18.160   7.602 -0.1927  0.2079  0.3130
  341loPI   C4B 5456   4.905  18.322   7.134  0.3846  0.0940 -0.1367
  342loPI    C1 5457   2.684   4.182   9.392 -0.1811  0.0105 -0.2981
  342loPI    C2 5458   2.435   4.452   9.234 -0.3000  0.0808  0.0030
  342loPI    C3 5459   2.559   4.491   9.613 -0.0544 -0.1087 -0.0553
  342loPI   PO4 5460   2.802   4.056   9.114 -0.1848  0.3078 -0.0628
  342loPI   GL1 5461   3.005   4.121   8.781  0.0363  0.0480  0.1420
  342loPI   GL2 5462   2.880   4.398   8.727  0.0255  0.2373 -0.1843
  342loPI   C1A 5463   3.327   4.216   8.542  0.1376  0.0961  0.1286
  342loPI   C2A 5464   3.328   4.213   8.135 -0.2897  0.2934  0.1485
  342loPI   C3A 5465   3.310   4.155   7.659  0.0214  0.0367  0.0090
  342loPI   C4A 5466   3.444   4.175   7.222  0.4177  0.0601  0.0974
  342loPI   C5A 5467   3.269   4.325   6.815  0.0087 -0.1239  0.0964
  342loPI   C6A 5468   3.201   4.496   6.444  0.1313  0.0419  0.2733
  342loPI   C1B 5469   3.015   4.551   8.326  0.1286  0.1929  0.2402
  342loPI   C2B 5470   2.974   4.556   7.864 -0.1186  0.1417 -0.1930
  342loPI   C3B 5471   3.028   4.618   7.518  0.0121 -0.2755  0.3448
  342loPI   C4B 5472   2.887   4.522   7.145 -0.2535  0.1793  0.3008
  343loPI    C1 5473   2.877   9.736   9.870  0.1347  0.1555 -0.3287
  343loPI    C2 5474   3.106   9.519   9.624  0.3138  0.0100 -0.0391
  343loPI    C3 5475   3.062   9.409  10.006 -0.1634  0.0925 -0.0638
  343loPI   PO4 5476   2.875   9.987   9.663 -0.3217  0.0410  0.3074
  343loPI   GL1 5477   3.102  10.049   9.257  0.0944 -0.1309 -0.0218
  343loPI   GL2 5478   3.212  10.305   8.994  0.1487 -0.0730 -0.2010
  343loPI   C1A 5479   3.305   9.745   8.984  0.2972 -0.0788  0.0819
  343loPI   C2A 5480   3.253   9.768   8.497  0.3044  0.0907  0.1599
  343loPI   C3A 5481   3.105   9.655   8.062 -0.1877  0.1480  0.0551
  343loPI   C4A 5482   2.969   9.378   7.772 -0.1657  0.2127 -0.0558
  343loPI   C5A 5483   2.973   9.285   7.325 -0.0900 -0.2146 -0.2336
  343loPI   C6A 5484   2.758   9.363   6.951 -0.0547  0.1148  0.0051
  343loPI   C1B 5485   3.140  10.266   8.605 -0.2201  0.1730  0.0397
  343loPI   C2B 5486   3.113  10.169   8.147 -0.1197  0.0386 -0.1394
  343loPI   C3B 5487   2.624  10.195   8.017 -0.3687  0.1574  0.1889
  343loPI   C4B 5488   2.323  10.357   8.268  0.1615 -0.1118  0.2007
  344loPI    C1 5489  11.244  13.965  10.016 -0.1453 -0.0948  0.2458
  344loPI    C2 5490  10.881  13.819  10.100 -0.3069  0.1634  0.0124
  344loPI    C3 5491  11.207  13.649  10.258 -0.5167 -0.1788  0.0855
  344loPI   PO4 5492  11.328  14.250  10.043 -0.0967  0.1879  0.2607
  344loPI   GL1 5493  11.482  14.600   9.852  0.1376 -0.0403 -0.2198
  344loPI   GL2 5494  11.247  14.491   9.637  0.1019  0.0447  0.0111
  344loPI   C1A 5495  11.620  14.859   9.508  0.1937  0.0294 -0.1504
  344loPI   C2A 5496  11.692  14.738   9.109 -0.1924  0.1268  0.3279
  344loPI   C3A 5497  11.864  14.683   8.802  0.0819 -0.2314 -0.0009
  344loPI   C4A 5498  12.073  14.827   8.451  0.0158 -0.3939 -0.0839
  344loPI   C5A 5499  12.204  14.649   8.099 -0.2144 -0.2553  0.2241
  344loPI   C6A 5500  12.435  14.712   7.778  0.1656  0.4406  0.0510
  344loPI   C1B 5501  11.218  14.519   9.198 -0.0057 -0.1043 -0.0435
  344loPI   C2B 5502  11.318  14.616   8.800  0.0915  0.1131  0.2062
  344loPI   C3B 5503  11.192  14.460   8.392  0.2501 -0.3288  0.2360
  344loPI   C4B 5504  11.301  14.335   7.947 -0.1644  0.1376  0.1284
  345loPI    C1 5505  11.643   9.284   9.659 -0.1226  0.0272 -0.1259
  345loPI    C2 5506  11.304   9.365   9.856 -0.1474  0.2828 -0.2688
  345loPI    C3 5507  11.594   9.153  10.033 -0.5008 -0.2019 -0.2500
  345loPI   PO4 5508  11.599   9.309   9.428  0.2190 -0.0166  0.0794
  345loPI   GL1 5509  11.594   9.216   9.043 -0.2858  0.1808 -0.3676
  345loPI   GL2 5510  11.174   9.169   8.907 -0.1507  0.2059 -0.1902
  345loPI   C1A 5511  11.600   9.205   8.632 -0.0185  0.1956 -0.4697
  345loPI   C2A 5512  11.640   9.324   8.199  0.0727 -0.1447  0.0168
  345loPI   C3A 5513  11.603   9.257   7.790  0.2920  0.1018  0.0204
  345loPI   C4A 5514  11.613   9.361   7.338 -0.1371  0.0067  0.0905
  345loPI   C5A 5515  11.539   9.438   6.899  0.1340 -0.0299 -0.1823
  345loPI   C6A 5516  11.308   9.417   6.491  0.5937  0.0299  0.3001
  345loPI   C1B 5517  10.927   9.467   8.755 -0.1544 -0.0530 -0.0706
  345loPI   C2B 5518  10.829   9.501   8.415 -0.4512  0.2112  0.1931
  345loPI   C3B 5519  10.772   9.559   8.088 -0.1753 -0.1897  0.0703
  345loPI   C4B 5520  10.821   9.714   7.572 -0.1232  0.1804  0.2967
  346loPI    C1 5521   2.839  14.617   9.881 -0.0684  0.2336  0.1351
  346loPI    C2 5522   2.482  14.579  10.058 -0.1654  0.0104 -0.1009
  346loPI    C3 5523   2.804  14.403  10.218 -0.2126 -0.0182 -0.0367
  346loPI   PO4 5524   2.765  14.548   9.479 -0.1929 -0.2069  0.0045
  346loPI   GL1 5525   3.058  14.517   9.225 -0.0420 -0.1498 -0.0521
  346loPI   GL2 5526   3.304  14.233   9.071 -0.1420  0.4548  0.3896
  346loPI   C1A 5527   2.953  14.737   8.823 -0.0610  0.1921 -0.0284
  346loPI   C2A 5528   2.689  14.705   8.438 -0.1656 -0.1335  0.1929
  346loPI   C3A 5529   2.475  14.688   7.986  0.0115  0.1066 -0.1299
  346loPI   C4A 5530   2.181  14.720   7.618 -0.0853  0.0386  0.3919
  346loPI   C5A 5531   2.317  14.475   7.270 -0.0592 -0.2568  0.2151
  346loPI   C6A 5532   2.466  14.536   6.865  0.1967  0.0011  0.0097
  346loPI   C1B 5533   3.328  14.376   8.690  0.1010 -0.0143  0.1342
  346loPI   C2B 5534   3.244  14.440   8.273 -0.0021 -0.2074  0.0650
  346loPI   C3B 5535   3.347  14.501   7.829 -0.0914 -0.1336 -0.2235
  346loPI   C4B 5536   3.523  14.558   7.359  0.2596  0.1346 -0.4415
  347loPI    C1 5537  15.396  19.063   9.616 -0.0556  0.1178 -0.1608
  347loPI    C2 5538  15.362  18.781   9.899  0.1267  0.0295 -0.2257
  347loPI    C3 5539  15.144  19.116   9.923  0.0980 -0.0033 -0.0119
  347loPI   PO4 5540  15.398  18.898   9.367 -0.2473  0.0391  0.1973
  347loPI   GL1 5541  15.356  19.055   8.922  0.0315 -0.0840  0.2054
  347loPI   GL2 5542  15.336  19.412   8.841 -0.0862 -0.1045 -0.3697
  347loPI   C1A 5543  15.469  19.097   8.438 -0.1717 -0.0041  0.0529
  347loPI   C2A 5544  15.382  19.328   7.990 -0.3473  0.1027 -0.0508
  347loPI   C3A 5545  15.453  19.400   7.561 -0.4073 -0.0584 -0.0017
  347loPI   C4A 5546  15.658  19.491   7.162  0.0016  0.1920 -0.3964
  347loPI   C5A 5547  15.584  19.405   6.707 -0.0113  0.1312 -0.0105
  347loPI   C6A 5548  15.638  19.143   6.264  0.1423 -0.1275 -0.0895
  347loPI   C1B 5549  15.514  19.630   8.383  0.0705 -0.0159 -0.1726
  347loPI   C2B 5550  15.696  19.730   7.975  0.1104  0.1724 -0.2499
  347loPI   C3B 5551  15.786  19.812   7.555 -0.2323  0.0394  0.2352
  347loPI   C4B 5552  15.718  20.190   7.203  0.3393 -0.0872 -0.3982
  348loPI    C1 5553  10.886   9.604   9.728  0.0723 -0.0884 -0.2237
  348loPI    C2 5554  10.570   9.608   9.972  0.0497  0.1193 -0.2548
  348loPI    C3 5555  10.805   9.286   9.956  0.0796  0.1210  0.0769
  348loPI   PO4 5556  10.818   9.803   9.442 -0.1234 -0.1331 -0.4309
  348loPI   GL1 5557  10.892  10.135   9.141 -0.1352  0.1488  0.0456
  348loPI   GL2 5558  10.854  10.444   8.983 -0.3305  0.0665 -0.3990
  348loPI   C1A 5559  11.044  10.009   8.814 -0.3495  0.0917  0.1325
  348loPI   C2A 5560  11.001   9.972   8.425 -0.6104  0.0704  0.0448
  348loPI   C3A 5561  10.827  10.188   8.189 -0.3383  0.1562  0.1941
  348loPI   C4A 5562  10.684  10.318   7.800  0.0491 -0.0102  0.2071
  348loPI   C5A 5563  10.671  10.405   7.448 -0.2517 -0.2369  0.1150
  348loPI   C6A 5564  10.994  10.557   7.165 -0.1263  0.2054 -0.3808
  348loPI   C1B 5565  11.057  10.510   8.666 -0.2774 -0.1484  0.1005
  348loPI   C2B 5566  11.176  10.484   8.346 -0.2394  0.2605 -0.2442
  348loPI   C3B 5567  11.040  10.670   8.041  0.0338 -0.0916 -0.0866
  348loPI   C4B 5568  11.059  10.678   7.625  0.1093 -0.1687 -0.0806
  349loPI    C1 5569  15.782   5.383   9.637  0.0095 -0.0817 -0.0543
  349loPI    C2 5570  15.579   5.603   9.902  0.0225 -0.2445  0.0922
  349loPI    C3 5571  15.532   5.206   9.894  0.1954 -0.2642  0.0036
  349loPI   PO4 5572  16.043   5.403   9.693 -0.1553 -0.1986 -0.2173
  349loPI   GL1 5573  16.209   5.515   9.282 -0.0401 -0.0585  0.1910
  349loPI   GL2 5574  15.942   5.315   9.183 -0.2296  0.1313 -0.1087
  349loPI   C1A 5575  16.404   5.716   9.011  0.1623  0.2281  0.1332
  349loPI   C2A 5576  16.481   5.701   8.600 -0.0531  0.1351 -0.0275
  349loPI   C3A 5577  16.441   5.803   8.203 -0.2643  0.3138  0.2326
  349loPI   C4A 5578  16.148   5.776   7.934  0.1664  0.0436  0.0555
  349loPI   C5A 5579  15.779   5.594   7.710 -0.1877 -0.0505 -0.2078
  349loPI   C6A 5580  15.738   5.415   7.378  0.0414  0.1796  0.0112
  349loPI   C1B 5581  16.176   5.207   8.868  0.3927  0.1329  0.0284
  349loPI   C2B 5582  16.192   5.232   8.392  0.0069  0.1282  0.3587
  349loPI   C3B 5583  16.162   5.327   8.071  0.0075 -0.0993  0.1451
  349loPI   C4B 5584  16.183   5.358   7.600 -0.1222  0.1751  0.1479
  350loPI    C1 5585  11.730   4.603   9.474 -0.0714 -0.3039  0.4464
  350loPI    C2 5586  12.100   4.696   9.595  0.0691 -0.1064 -0.1061
  350loPI    C3 5587  11.785   4.890   9.748  0.2294  0.0528  0.0271
  350loPI   PO4 5588  11.720   4.639   9.134  0.0316 -0.1401  0.1748
  350loPI   GL1 5589  11.945   4.748   8.896  0.2959  0.4065  0.0153
  350loPI   GL2 5590  11.709   4.470   8.650  0.1042  0.1840 -0.1675
  350loPI   C1A 5591  12.124   4.487   8.467 -0.1003  0.0546  0.4867
  350loPI   C2A 5592  11.994   4.595   8.115 -0.3014  0.0237  0.1678
  350loPI   C3A 5593  12.063   4.707   7.663 -0.1270 -0.1224 -0.3954
  350loPI   C4A 5594  12.325   4.874   7.419 -0.2854  0.0905  0.1310
  350loPI   C5A 5595  12.303   5.081   7.011 -0.1071 -0.2366  0.3282
  350loPI   C6A 5596  12.286   5.040   6.615  0.1703  0.1683 -0.0892
  350loPI   C1B 5597  11.509   4.555   8.332 -0.0122  0.1595 -0.1428
  350loPI   C2B 5598  11.510   4.516   7.878 -0.4108  0.0139 -0.1248
  350loPI   C3B 5599  11.584   4.719   7.407 -0.0263  0.3641  0.1662
  350loPI   C4B 5600  11.856   4.928   7.061  0.1945 -0.0737  0.0050
  351loPI    C1 5601  15.045  12.451   9.825  0.1335 -0.1345 -0.0428
  351loPI    C2 5602  15.128  12.838   9.879  0.0503 -0.1176 -0.0342
  351loPI    C3 5603  15.099  12.595  10.195  0.1785 -0.1470 -0.0444
  351loPI   PO4 5604  14.935  12.500   9.592  0.0311 -0.0608 -0.0505
  351loPI   GL1 5605  14.999  12.427   9.100  0.0199  0.1683 -0.0242
  351loPI   GL2 5606  14.931  12.153   9.237  0.0524  0.0336 -0.0837
  351loPI   C1A 5607  14.940  12.503   8.693 -0.2654  0.1129 -0.0202
  351loPI   C2A 5608  14.977  12.615   8.242  0.0872  0.0505 -0.1135
  351loPI   C3A 5609  14.962  12.474   7.812  0.0186 -0.1109 -0.2785
  351loPI   C4A 5610  14.889  12.247   7.400 -0.2549 -0.0947  0.0572
  351loPI   C5A 5611  14.912  12.171   6.900  0.0634 -0.0569 -0.1437
  351loPI   C6A 5612  14.973  12.145   6.494  0.0427  0.2194  0.1542
  351loPI   C1B 5613  14.775  12.002   8.828  0.4151 -0.1162  0.2257
  351loPI   C2B 5614  14.766  12.029   8.425 -0.0584 -0.1454 -0.0839
  351loPI   C3B 5615  14.612  12.266   8.047 -0.1746 -0.0490  0.0534
  351loPI   C4B 5616  14.431  12.294   7.586 -0.0386 -0.0882  0.1207
  352loPI    C1 5617   7.938   3.646   9.111 -0.1078 -0.0297  0.1505
  352loPI    C2 5618   8.267   3.535   9.311  0.0592  0.2046  0.0113
  352loPI    C3 5619   7.915   3.555   9.500  0.0980 -0.1720  0.1315
  352loPI   PO4 5620   7.905   3.569   8.836 -0.0433 -0.0348  0.2677
  352loPI   GL1 5621   7.927   3.323   8.446 -0.3224  0.1118  0.0516
  352loPI   GL2 5622   8.310   3.425   8.468  0.2803 -0.2046 -0.1109
  352loPI   C1A 5623   7.850   3.311   8.113 -0.0295 -0.3384  0.2289
  352loPI   C2A 5624   7.861   3.257   7.785 -0.0460  0.0490 -0.0187
  352loPI   C3A 5625   7.966   3.059   7.383  0.2593  0.1177 -0.1847
  352loPI   C4A 5626   8.346   2.939   7.256  0.2363  0.0443  0.1229
  352loPI   C5A 5627   8.608   2.923   6.899  0.0950  0.1335  0.1093
  352loPI   C6A 5628   8.367   3.044   6.454 -0.3826  0.2231  0.6699
  352loPI   C1B 5629   8.451   3.751   8.284 -0.0772 -0.0649 -0.0433
  352loPI   C2B 5630   8.600   3.872   7.851 -0.2866  0.0040 -0.1338
  352loPI   C3B 5631   8.687   3.868   7.328  0.1382 -0.0202  0.1490
  352loPI   C4B 5632   8.861   3.936   6.961  0.0299  0.2766  0.1100
  353loPI    C1 5633  12.809   0.930   9.556  0.1574  0.2181 -0.1211
  353loPI    C2 5634  13.051   1.226   9.673  0.2461  0.0478  0.1357
  353loPI    C3 5635  12.948   0.939   9.931  0.0932 -0.1008 -0.0873
  353loPI   PO4 5636  12.636   0.971   9.305 -0.1579 -0.0391 -0.1437
  353loPI   GL1 5637  12.378   0.886   8.975 -0.1772  0.2770 -0.1654
  353loPI   GL2 5638  12.571   0.820   8.811  0.4433  0.0606  0.1031
  353loPI   C1A 5639  12.089   0.948   8.684  0.2585  0.1077 -0.1974
  353loPI   C2A 5640  11.897   1.062   8.374  0.1787  0.2566 -0.1419
  353loPI   C3A 5641  11.685   1.096   8.056  0.1839 -0.2771 -0.1126
  353loPI   C4A 5642  11.611   0.899   7.617 -0.0205 -0.1300  0.3553
  353loPI   C5A 5643  11.644   0.652   7.347 -0.2570 -0.1810  0.1113
  353loPI   C6A 5644  11.529   0.575   6.974 -0.4138  0.2836  0.1204
  353loPI   C1B 5645  12.614   0.749   8.467  0.0919 -0.0069  0.0184
  353loPI   C2B 5646  12.700   0.504   8.143 -0.0786 -0.2913 -0.0776
  353loPI   C3B 5647  12.390   0.411   7.779  0.1217  0.2134  0.1928
  353loPI   C4B 5648  12.016   0.103   7.684 -0.0424 -0.2092 -0.4380
  354loPI    C1 5649   6.156  13.418   9.836  0.1929  0.1974 -0.0059
  354loPI    C2 5650   5.872  13.520  10.099 -0.0263  0.1842 -0.2331
  354loPI    C3 5651   6.256  13.601  10.177 -0.0848  0.1515  0.1035
  354loPI   PO4 5652   6.062  13.509   9.588  0.4351  0.1976  0.1165
  354loPI   GL1 5653   5.966  13.391   9.161 -0.2094 -0.0390  0.3255
  354loPI   GL2 5654   5.616  13.339   9.220  0.2967 -0.1353  0.0231
  354loPI   C1A 5655   5.781  13.167   8.756 -0.2264 -0.2001  0.1228
  354loPI   C2A 5656   5.696  13.250   8.262 -0.0728 -0.2880 -0.1771
  354loPI   C3A 5657   5.633  13.371   7.774 -0.1823 -0.1411  0.0013
  354loPI   C4A 5658   5.578  13.363   7.234  0.3059  0.0996 -0.0270
  354loPI   C5A 5659   5.341  13.288   6.943 -0.0243  0.0042 -0.1688
  354loPI   C6A 5660   5.322  13.434   6.449 -0.2071  0.0750  0.3588
  354loPI   C1B 5661   5.299  13.638   8.952  0.2556 -0.2515  0.0294
  354loPI   C2B 5662   4.856  13.602   8.700 -0.3541  0.3280 -0.0374
  354loPI   C3B 5663   4.815  13.199   8.446 -0.2404 -0.0658  0.1494
  354loPI   C4B 5664   4.821  13.134   7.984 -0.2161 -0.0688 -0.1281
  355loPI    C1 5665  19.380  16.754  10.176  0.0481  0.3808 -0.0262
  355loPI    C2 5666  19.728  16.726   9.981  0.0617  0.0445  0.0410
  355loPI    C3 5667  19.723  16.825  10.369  0.0885 -0.0181  0.0574
  355loPI   PO4 5668  19.218  16.830   9.965  0.1242  0.2715  0.0300
  355loPI   GL1 5669  18.979  16.898   9.598  0.1929 -0.1535 -0.1297
  355loPI   GL2 5670  18.686  16.972   9.639  0.0285  0.0026  0.3345
  355loPI   C1A 5671  19.186  17.011   9.129  0.1485  0.0615  0.0598
  355loPI   C2A 5672  19.421  17.350   8.908 -0.4545 -0.1333  0.0370
  355loPI   C3A 5673  19.489  17.480   8.457  0.1473 -0.4955  0.0275
  355loPI   C4A 5674  19.417  17.583   7.990 -0.4141  0.2860 -0.2828
  355loPI   C5A 5675  19.558  17.875   7.784  0.2603  0.0749  0.2483
  355loPI   C6A 5676  19.412  18.185   7.484  0.0432 -0.0164  0.1391
  355loPI   C1B 5677  18.661  16.992   9.173  0.2792  0.0067  0.0650
  355loPI   C2B 5678  18.528  16.950   8.757  0.0572 -0.4299  0.0572
  355loPI   C3B 5679  18.538  17.122   8.387 -0.2220 -0.0308 -0.1656
  355loPI   C4B 5680  18.731  17.196   8.055  0.0097 -0.0492 -0.1949
  356loPI    C1 5681   6.504   2.395   9.055  0.2227 -0.2240  0.2180
  356loPI    C2 5682   6.891   2.494   9.066  0.1688  0.0584 -0.1921
  356loPI    C3 5683   6.612   2.770   9.141  0.0431 -0.1681  0.2046
  356loPI   PO4 5684   6.491   2.222   8.887  0.2418 -0.0220  0.1144
  356loPI   GL1 5685   6.733   2.309   8.519  0.1828  0.1102 -0.1398
  356loPI   GL2 5686   6.371   2.260   8.409 -0.1228  0.1336 -0.1780
  356loPI   C1A 5687   6.933   2.190   8.124  0.3458 -0.2419  0.1022
  356loPI   C2A 5688   6.870   1.893   7.864 -0.0434  0.1899 -0.3867
  356loPI   C3A 5689   7.153   2.021   7.596 -0.0341  0.2578  0.1965
  356loPI   C4A 5690   7.210   2.342   7.371  0.0644  0.1158  0.0780
  356loPI   C5A 5691   7.007   2.418   6.871 -0.0670  0.2278  0.0805
  356loPI   C6A 5692   6.932   2.700   6.451 -0.0389 -0.0493 -0.0475
  356loPI   C1B 5693   6.211   2.267   7.974 -0.0885  0.4445  0.2864
  356loPI   C2B 5694   5.860   2.359   7.715  0.2637 -0.3984  0.0253
  356loPI   C3B 5695   5.813   2.385   7.237  0.3029 -0.1326 -0.1735
  356loPI   C4B 5696   5.953   2.387   6.886 -0.2887  0.0968 -0.4617
  357loPI    C1 5697   3.737  12.127   9.674 -0.0578  0.0985 -0.2013
  357loPI    C2 5698   3.493  12.290   9.946 -0.0127  0.0208 -0.1135
  357loPI    C3 5699   3.677  11.944  10.025 -0.0232 -0.0178 -0.2555
  357loPI   PO4 5700   3.469  12.195   9.427  0.0341 -0.1823 -0.3122
  357loPI   GL1 5701   3.475  12.529   9.220  0.0424  0.0933  0.0208
  357loPI   GL2 5702   3.669  12.889   9.179 -0.0993 -0.0891 -0.2952
  357loPI   C1A 5703   3.320  12.415   8.723 -0.2096 -0.1593  0.1168
  357loPI   C2A 5704   3.483  12.330   8.428 -0.1944  0.1071 -0.0376
  357loPI   C3A 5705   3.296  12.470   8.048  0.0746 -0.3878 -0.0645
  357loPI   C4A 5706   3.322  12.473   7.622 -0.0701  0.1224  0.3177
  357loPI   C5A 5707   3.156  12.712   7.338  0.0304  0.2748  0.0444
  357loPI   C6A 5708   2.871  12.835   7.160  0.4095 -0.0756  0.2270
  357loPI   C1B 5709   3.682  12.914   8.845  0.0922 -0.0974  0.1641
  357loPI   C2B 5710   3.554  12.836   8.432 -0.1885 -0.6065  0.2721
  357loPI   C3B 5711   3.656  12.866   7.986  0.2095 -0.1541  0.0712
  357loPI   C4B 5712   3.950  12.922   7.590 -0.0995  0.0331 -0.1912
  358loPI    C1 5713   3.567  10.943   9.522  0.0754 -0.2585 -0.1393
  358loPI    C2 5714   3.762  10.932   9.871  0.1796  0.0244 -0.1854
  358loPI    C3 5715   3.413  10.739   9.829  0.1719 -0.0204  0.0701
  358loPI   PO4 5716   3.546  11.199   9.453 -0.2675 -0.0523 -0.0290
  358loPI   GL1 5717   3.316  11.296   9.178  0.1727  0.0089  0.3725
  358loPI   GL2 5718   3.563  11.145   8.996 -0.3836  0.0536  0.1359
  358loPI   C1A 5719   3.298  11.448   8.713 -0.0812  0.3087 -0.0773
  358loPI   C2A 5720   3.461  11.583   8.314  0.0805 -0.0993  0.0100
  358loPI   C3A 5721   3.550  11.956   8.109  0.2114 -0.0764 -0.0138
  358loPI   C4A 5722   3.583  12.037   7.613  0.3141 -0.3290  0.0610
  358loPI   C5A 5723   3.637  11.717   7.349  0.2739 -0.0605 -0.3689
  358loPI   C6A 5724   3.760  11.270   7.437  0.5722 -0.3599 -0.0330
  358loPI   C1B 5725   3.730  11.181   8.645  0.0191 -0.0707  0.2619
  358loPI   C2B 5726   3.952  10.941   8.362  0.1952  0.0941 -0.0636
  358loPI   C3B 5727   4.099  10.931   8.106  0.1955 -0.0306 -0.0346
  358loPI   C4B 5728   4.267  11.128   7.742  0.2648  0.3713 -0.0462
  359loPI    C1 5729  18.052   7.862  10.012 -0.2967 -0.1092  0.1634
  359loPI    C2 5730  18.078   8.199  10.225 -0.1445 -0.0326  0.0259
  359loPI    C3 5731  18.380   7.937  10.228 -0.2574 -0.1626  0.1228
  359loPI   PO4 5732  17.888   8.024   9.809 -0.1813  0.0132 -0.3202
  359loPI   GL1 5733  17.688   7.981   9.431 -0.0281 -0.0927  0.0898
  359loPI   GL2 5734  17.696   7.747   9.315 -0.0199  0.0487 -0.2244
  359loPI   C1A 5735  17.630   8.248   9.029  0.1824  0.0728  0.0020
  359loPI   C2A 5736  17.779   8.206   8.618  0.1801  0.1067  0.1861
  359loPI   C3A 5737  17.747   8.234   8.169  0.3602  0.0228  0.1349
  359loPI   C4A 5738  17.788   8.059   7.772  0.0864  0.3090 -0.4400
  359loPI   C5A 5739  17.494   8.272   7.604  0.4485 -0.1748 -0.1675
  359loPI   C6A 5740  17.140   8.516   7.773 -0.1816  0.0533 -0.1970
  359loPI   C1B 5741  17.737   7.754   8.871  0.3737  0.3081  0.3032
  359loPI   C2B 5742  17.850   7.776   8.372  0.1109 -0.1578 -0.0010
  359loPI   C3B 5743  18.262   7.685   8.103  0.0991  0.0644 -0.2183
  359loPI   C4B 5744  18.561   7.486   8.002  0.3775  0.1744  0.1533
  360loPI    C1 5745   7.131  14.842  10.205 -0.2012  0.1008  0.1418
  360loPI    C2 5746   7.414  14.587  10.328 -0.1455  0.1114  0.0369
  360loPI    C3 5747   7.144  14.727  10.588 -0.0657  0.0870  0.1336
  360loPI   PO4 5748   7.153  14.741   9.885  0.0151 -0.0397 -0.2812
  360loPI   GL1 5749   7.139  14.859   9.491  0.4190 -0.1819 -0.6056
  360loPI   GL2 5750   7.051  14.977   9.270 -0.0793 -0.4525 -0.0124
  360loPI   C1A 5751   7.493  14.842   9.161  0.3060  0.2353  0.3823
  360loPI   C2A 5752   7.550  14.823   8.701 -0.1506  0.2614  0.1245
  360loPI   C3A 5753   7.646  14.838   8.272 -0.0074 -0.0932 -0.2064
  360loPI   C4A 5754   7.555  14.938   7.984 -0.2457 -0.1477 -0.3729
  360loPI   C5A 5755   7.577  15.057   7.565  0.2250  0.1539  0.2448
  360loPI   C6A 5756   7.861  15.042   7.264  0.1112  0.1932 -0.1429
  360loPI   C1B 5757   6.939  14.849   8.819 -0.0297  0.0322 -0.0305
  360loPI   C2B 5758   7.093  14.919   8.480 -0.2900  0.0973  0.1552
  360loPI   C3B 5759   7.073  14.839   8.115  0.1808  0.0361 -0.0988
  360loPI   C4B 5760   7.088  14.959   7.662 -0.2858  0.1511 -0.0355
  361loPI    C1 5761   3.102  11.187   9.668  0.0134  0.0625 -0.1772
  361loPI    C2 5762   2.996  10.944   9.968  0.1507  0.0634 -0.1274
  361loPI    C3 5763   3.315  11.183  10.007  0.0214  0.2465 -0.1788
  361loPI   PO4 5764   3.028  10.942   9.383  0.0661 -0.0778 -0.5878
  361loPI   GL1 5765   2.978  10.964   8.963 -0.0063 -0.3248 -0.0733
  361loPI   GL2 5766   3.143  10.743   8.687 -0.0810 -0.0775 -0.1237
  361loPI   C1A 5767   2.876  11.175   8.630  0.0084  0.0009 -0.2738
  361loPI   C2A 5768   2.988  11.524   8.278 -0.0807  0.2056  0.1884
  361loPI   C3A 5769   2.660  11.571   7.956 -0.0540 -0.0934 -0.1485
  361loPI   C4A 5770   2.597  11.456   7.566  0.1565 -0.0909 -0.0627
  361loPI   C5A 5771   2.744  11.311   7.147 -0.0555 -0.0114 -0.2376
  361loPI   C6A 5772   2.631  10.992   6.879 -0.1867 -0.2496  0.2088
  361loPI   C1B 5773   3.412  11.038   8.316  0.0939  0.1406 -0.1507
  361loPI   C2B 5774   3.616  10.955   7.932  0.0089  0.0434  0.0670
  361loPI   C3B 5775   3.863  10.819   7.626 -0.1931  0.1238 -0.0032
  361loPI   C4B 5776   4.148  10.593   7.683 -0.2611 -0.2261  0.0637
  362loPI    C1 5777   7.089   4.329   9.163 -0.0921  0.0238 -0.0666
  362loPI    C2 5778   7.419   4.408   9.374 -0.0672  0.0631 -0.1200
  362loPI    C3 5779   7.174   4.114   9.489 -0.1295  0.1783  0.0458
  362loPI   PO4 5780   7.195   4.344   8.846 -0.2978  0.2113 -0.1741
  362loPI   GL1 5781   7.079   4.642   8.654 -0.2280  0.2616  0.1390
  362loPI   GL2 5782   7.347   4.813   8.620  0.1419  0.0558 -0.3828
  362loPI   C1A 5783   7.035   4.934   8.278 -0.0624  0.3580  0.1077
  362loPI   C2A 5784   6.935   4.915   7.709 -0.0550  0.1397 -0.1686
  362loPI   C3A 5785   7.118   4.942   7.221  0.2574  0.0713  0.0580
  362loPI   C4A 5786   7.020   4.772   6.753  0.2008  0.1227 -0.1873
  362loPI   C5A 5787   7.337   4.812   6.392 -0.3213 -0.2653 -0.0582
  362loPI   C6A 5788   7.622   5.041   6.346 -0.1596 -0.0385  0.1984
  362loPI   C1B 5789   7.650   4.970   8.377 -0.0532 -0.0522  0.1101
  362loPI   C2B 5790   7.948   5.005   8.129 -0.1032 -0.0632 -0.1757
  362loPI   C3B 5791   7.964   5.144   7.732 -0.1371 -0.1279 -0.2271
  362loPI   C4B 5792   8.151   5.388   7.805  0.0016  0.0583 -0.0942
  363loPI    C1 5793  12.311  18.885   9.821  0.0527 -0.2542 -0.0593
  363loPI    C2 5794  11.919  18.828   9.761  0.0528 -0.1366 -0.1742
  363loPI    C3 5795  12.044  19.116  10.009  0.0626 -0.3219  0.0392
  363loPI   PO4 5796  12.381  18.645   9.570 -0.0771  0.3096 -0.0975
  363loPI   GL1 5797  12.164  18.603   9.082 -0.0895  0.2091 -0.1615
  363loPI   GL2 5798  12.594  18.588   9.046  0.2414  0.2824 -0.2652
  363loPI   C1A 5799  12.154  18.281   8.791  0.1789  0.1221  0.1223
  363loPI   C2A 5800  12.340  18.176   8.370  0.0139 -0.3551 -0.1743
  363loPI   C3A 5801  12.454  18.509   8.065 -0.0472 -0.0709  0.1998
  363loPI   C4A 5802  12.535  18.543   7.619  0.1582 -0.3415 -0.1096
  363loPI   C5A 5803  12.873  18.515   7.312 -0.0191  0.1022 -0.3453
  363loPI   C6A 5804  13.051  18.509   6.940 -0.0085  0.1243  0.1975
  363loPI   C1B 5805  12.985  18.766   8.824 -0.0733 -0.3551 -0.1713
  363loPI   C2B 5806  13.059  18.734   8.342  0.1379 -0.0109  0.3354
  363loPI   C3B 5807  12.906  18.820   7.913 -0.1227 -0.1722 -0.0946
  363loPI   C4B 5808  12.760  18.970   7.596  0.3331  0.0992 -0.0704
  364loPI    C1 5809   8.959   8.044   9.395 -0.0374 -0.1494  0.2872
  364loPI    C2 5810   9.106   8.243   9.709 -0.0728  0.0711  0.1657
  364loPI    C3 5811   8.711   8.190   9.672 -0.0746  0.1173  0.1176
  364loPI   PO4 5812   9.110   8.212   9.124  0.1469 -0.1770  0.2472
  364loPI   GL1 5813   9.203   8.293   8.702  0.0154  0.0176  0.1539
  364loPI   GL2 5814   9.537   8.265   8.825 -0.0684  0.0744  0.0258
  364loPI   C1A 5815   9.393   8.322   8.354 -0.3307  0.2585 -0.0782
  364loPI   C2A 5816   9.349   8.278   7.889  0.4541  0.1065  0.0020
  364loPI   C3A 5817   9.490   8.063   7.503  0.3196 -0.0464  0.2477
  364loPI   C4A 5818   9.680   8.251   7.121 -0.0624 -0.1592 -0.1713
  364loPI   C5A 5819   9.971   8.426   6.759  0.2372  0.1165  0.0860
  364loPI   C6A 5820  10.072   8.942   6.824 -0.2863 -0.2194  0.3879
  364loPI   C1B 5821   9.586   7.880   8.528 -0.0458 -0.3561  0.0677
  364loPI   C2B 5822   9.625   7.892   8.090  0.1194  0.2431  0.0051
  364loPI   C3B 5823   9.512   7.555   7.612 -0.0316 -0.1815  0.0556
  364loPI   C4B 5824   9.439   7.300   7.175 -0.0273  0.0248  0.1518
  365loPI    C1 5825   9.870   7.800   9.578 -0.0003 -0.0477  0.2270
  365loPI    C2 5826   9.965   7.481   9.356  0.0942  0.0743  0.0898
  365loPI    C3 5827   9.816   7.432   9.724 -0.1369 -0.1316 -0.0287
  365loPI   PO4 5828   9.938   7.926   9.474 -0.0213 -0.1267 -0.1030
  365loPI   GL1 5829  10.019   8.134   9.138  0.1074 -0.1185  0.1290
  365loPI   GL2 5830  10.271   8.404   9.193 -0.1129 -0.1047 -0.0415
  365loPI   C1A 5831  10.040   8.075   8.732 -0.0270 -0.1913 -0.0674
  365loPI   C2A 5832  10.078   7.914   8.354  0.0527 -0.1131 -0.2026
  365loPI   C3A 5833  10.102   7.792   7.883 -0.0863 -0.0635 -0.0185
  365loPI   C4A 5834   9.979   7.883   7.532 -0.0591  0.0197 -0.1169
  365loPI   C5A 5835   9.720   7.676   7.171  0.0432 -0.0070  0.0169
  365loPI   C6A 5836   9.637   7.442   6.767  0.2825 -0.1142  0.0065
  365loPI   C1B 5837  10.345   8.505   8.771 -0.0617  0.1451 -0.4548
  365loPI   C2B 5838  10.312   8.436   8.300 -0.1363 -0.0329  0.1357
  365loPI   C3B 5839  10.229   8.370   7.896 -0.1079 -0.3351 -0.0133
  365loPI   C4B 5840  10.499   8.515   7.611 -0.0477 -0.0968 -0.4003
  366loPI    C1 5841  18.013   6.466   9.843  0.0909 -0.2104 -0.2776
  366loPI    C2 5842  18.008   6.471  10.243 -0.0849 -0.2063 -0.2790
  366loPI    C3 5843  18.126   6.142  10.049 -0.0245 -0.2173 -0.2243
  366loPI   PO4 5844  17.787   6.531   9.784  0.0881  0.0557  0.2063
  366loPI   GL1 5845  17.707   6.510   9.395 -0.1905 -0.2505  0.1924
  366loPI   GL2 5846  17.422   6.258   9.180  0.0424  0.0809 -0.2697
  366loPI   C1A 5847  17.357   6.753   9.091 -0.3804  0.1287 -0.1917
  366loPI   C2A 5848  17.270   6.739   8.566 -0.1040  0.0493 -0.1009
  366loPI   C3A 5849  17.230   6.804   8.187 -0.1321  0.0150  0.2024
  366loPI   C4A 5850  17.154   6.890   7.815 -0.0352 -0.0334  0.2389
  366loPI   C5A 5851  17.134   6.868   7.427  0.1486  0.1047  0.2039
  366loPI   C6A 5852  17.139   6.880   7.039 -0.0268 -0.3732  0.1509
  366loPI   C1B 5853  17.568   6.447   8.790  0.0132  0.0109  0.2391
  366loPI   C2B 5854  17.343   6.299   8.341  0.1105  0.0668 -0.0443
  366loPI   C3B 5855  17.394   5.992   7.933 -0.2548  0.0785 -0.1978
  366loPI   C4B 5856  17.676   5.976   7.659 -0.2353  0.2451 -0.0599
  367loPI    C1 5857   4.768   8.966   9.862 -0.0053  0.0544  0.0125
  367loPI    C2 5858   4.872   9.224  10.149  0.0322 -0.2182  0.2483
  367loPI    C3 5859   4.486   9.167  10.062  0.0278 -0.0058  0.1205
  367loPI   PO4 5860   4.838   9.050   9.633  0.3199  0.0216 -0.1050
  367loPI   GL1 5861   4.925   9.027   9.187 -0.2371 -0.3134 -0.3132
  367loPI   GL2 5862   4.607   9.011   9.129  0.1610 -0.0258 -0.4624
  367loPI   C1A 5863   4.994   9.382   9.004 -0.3445 -0.1451 -0.0088
  367loPI   C2A 5864   5.261   9.626   8.846 -0.0828  0.0926 -0.1323
  367loPI   C3A 5865   5.367   9.861   8.396 -0.0005  0.0082  0.1945
  367loPI   C4A 5866   5.201   9.872   7.973 -0.1811 -0.4415  0.0272
  367loPI   C5A 5867   5.271   9.888   7.552 -0.2240  0.0135 -0.0541
  367loPI   C6A 5868   5.060   9.766   7.260  0.1385 -0.0689  0.2725
  367loPI   C1B 5869   4.631   9.223   8.679 -0.2364 -0.1724 -0.1728
  367loPI   C2B 5870   4.567   9.327   8.260  0.1000 -0.1318  0.0776
  367loPI   C3B 5871   4.469   9.412   7.860 -0.3261  0.0119 -0.2737
  367loPI   C4B 5872   4.595   9.320   7.450 -0.1769 -0.1055 -0.3258
  368loPI    C1 5873   1.472   0.136   9.542 -0.0415 -0.3305  0.0806
  368loPI    C2 5874   1.853   0.051   9.631  0.0931  0.0455 -0.1133
  368loPI    C3 5875   1.609  -0.237   9.498  0.2666 -0.2290  0.1504
  368loPI   PO4 5876   1.458   0.383   9.362  0.2669 -0.4753  0.2042
  368loPI   GL1 5877   1.673   0.404   8.916 -0.1780  0.2120  0.0728
  368loPI   GL2 5878   1.689   0.765   9.014 -0.3833  0.1770  0.1739
  368loPI   C1A 5879   1.878   0.541   8.584 -0.1606 -0.0120  0.0868
  368loPI   C2A 5880   2.164   0.818   8.359  0.1074 -0.2587 -0.2032
  368loPI   C3A 5881   2.555   0.699   7.955 -0.1028  0.0466 -0.1632
  368loPI   C4A 5882   2.556   0.492   7.607  0.0865 -0.1513  0.0024
  368loPI   C5A 5883   2.625   0.544   7.241 -0.1509 -0.0232 -0.2785
  368loPI   C6A 5884   2.566   0.737   6.841  0.0751 -0.5346 -0.3823
  368loPI   C1B 5885   1.618   0.921   8.609 -0.1101  0.3784  0.0689
  368loPI   C2B 5886   1.296   1.024   8.226 -0.2088 -0.1874 -0.2720
  368loPI   C3B 5887   1.092   1.327   7.872  0.0150 -0.2087  0.0259
  368loPI   C4B 5888   0.675   1.274   7.524 -0.1662 -0.1943 -0.0699
  369loPI    C1 5889   9.255   5.659  10.144  0.0958 -0.0361 -0.1511
  369loPI    C2 5890   9.313   6.010  10.327  0.1360 -0.0617 -0.1145
  369loPI    C3 5891   9.564   5.705  10.395  0.0210 -0.1402 -0.0385
  369loPI   PO4 5892   9.243   5.750   9.723 -0.0028 -0.1608 -0.2926
  369loPI   GL1 5893   9.010   5.724   9.330  0.1353 -0.1996  0.0767
  369loPI   GL2 5894   9.027   5.991   9.049 -0.0176 -0.0594  0.0193
  369loPI   C1A 5895   8.590   5.813   8.924 -0.0166 -0.0503  0.2567
  369loPI   C2A 5896   8.483   5.669   8.542  0.3251 -0.1879 -0.1290
  369loPI   C3A 5897   8.348   5.758   8.177 -0.2400 -0.2350  0.2039
  369loPI   C4A 5898   8.156   5.903   7.807  0.0280 -0.0445 -0.2651
  369loPI   C5A 5899   8.179   5.647   7.376  0.0073 -0.2794  0.2713
  369loPI   C6A 5900   8.111   5.261   7.237 -0.0452  0.1656 -0.3322
  369loPI   C1B 5901   9.042   6.023   8.643 -0.2922  0.0882  0.1156
  369loPI   C2B 5902   9.063   6.126   8.250  0.2521  0.1125 -0.4622
  369loPI   C3B 5903   9.162   6.150   7.869  0.0554 -0.2102 -0.0584
  369loPI   C4B 5904   9.160   6.110   7.386 -0.0256 -0.0034 -0.0920
  370loPI    C1 5905  17.289   2.910   9.491 -0.1320 -0.0108 -0.0576
  370loPI    C2 5906  17.595   3.158   9.425  0.0732 -0.2774 -0.1246
  370loPI    C3 5907  17.538   3.004   9.789 -0.2108  0.0694 -0.0163
  370loPI   PO4 5908  17.369   2.790   9.195 -0.1420  0.0518  0.1301
  370loPI   GL1 5909  17.405   2.799   8.871  0.1769  0.1965  0.2410
  370loPI   GL2 5910  17.411   3.157   8.907 -0.1221 -0.3203 -0.0358
  370loPI   C1A 5911  17.334   2.886   8.455 -0.1300  0.0902 -0.0721
  370loPI   C2A 5912  17.271   3.049   8.019  0.2275 -0.3901  0.0400
  370loPI   C3A 5913  17.209   3.009   7.707 -0.0821 -0.3856  0.1715
  370loPI   C4A 5914  17.195   3.037   7.184 -0.1744 -0.2460  0.0506
  370loPI   C5A 5915  17.181   3.363   6.898 -0.3225  0.1136  0.1056
  370loPI   C6A 5916  17.648   3.446   6.983  0.1854  0.1761  0.4487
  370loPI   C1B 5917  17.235   3.403   8.479 -0.1020  0.3931  0.0674
  370loPI   C2B 5918  16.978   3.489   8.065  0.2238  0.0631  0.2102
  370loPI   C3B 5919  16.722   3.376   7.745 -0.2298  0.0567 -0.2298
  370loPI   C4B 5920  16.457   3.078   7.749  0.2884 -0.1205  0.0232
  371loPI    C1 5921  13.739  17.162   9.873  0.2115  0.0983  0.1459
  371loPI    C2 5922  13.841  17.530   9.991  0.0256  0.1745  0.0723
  371loPI    C3 5923  13.558  17.328  10.189  0.0624  0.1075  0.0567
  371loPI   PO4 5924  13.753  17.103   9.545  0.2516  0.1411  0.0708
  371loPI   GL1 5925  13.664  17.201   9.252 -0.1873 -0.1881  0.1017
  371loPI   GL2 5926  13.378  17.186   9.242 -0.2755 -0.1753  0.2132
  371loPI   C1A 5927  13.716  16.991   8.890  0.2299 -0.0071  0.2659
  371loPI   C2A 5928  13.532  17.168   8.539 -0.0665  0.0704 -0.0457
  371loPI   C3A 5929  13.376  17.342   8.137 -0.0773  0.0128  0.2197
  371loPI   C4A 5930  13.438  17.212   7.709 -0.1887 -0.0579  0.0779
  371loPI   C5A 5931  13.122  17.432   7.355 -0.2003  0.0101  0.0788
  371loPI   C6A 5932  12.696  17.608   7.377 -0.1404 -0.0691 -0.0308
  371loPI   C1B 5933  13.021  17.180   8.945  0.2058 -0.0903  0.1111
  371loPI   C2B 5934  13.010  17.371   8.513 -0.0658 -0.3386  0.0208
  371loPI   C3B 5935  12.877  17.429   8.114 -0.1835 -0.0746 -0.0800
  371loPI   C4B 5936  12.864  17.236   7.752  0.0405  0.1642 -0.0082
  372loPI    C1 5937   9.881   0.473   9.654  0.0798  0.0738 -0.1329
  372loPI    C2 5938   9.742   0.741   9.917  0.1389  0.0170 -0.0433
  372loPI    C3 5939   9.861   0.380  10.042 -0.1245 -0.1242 -0.1885
  372loPI   PO4 5940   9.758   0.488   9.473 -0.1932 -0.2199 -0.1557
  372loPI   GL1 5941   9.406   0.541   9.188  0.0542  0.1860 -0.1867
  372loPI   GL2 5942   9.633   0.706   9.062  0.0068  0.3947  0.2040
  372loPI   C1A 5943   9.176   0.256   8.896 -0.0862  0.0598 -0.3565
  372loPI   C2A 5944   9.020   0.218   8.476 -0.0828 -0.0794 -0.4157
  372loPI   C3A 5945   8.917   0.301   8.054 -0.4398  0.0441  0.0501
  372loPI   C4A 5946   8.901   0.453   7.611 -0.0696 -0.2301 -0.3237
  372loPI   C5A 5947   8.985   0.736   7.203  0.1150 -0.0829 -0.0483
  372loPI   C6A 5948   9.207   1.098   7.257 -0.2332  0.3300  0.2144
  372loPI   C1B 5949   9.693   0.879   8.681 -0.1806 -0.1907  0.1536
  372loPI   C2B 5950   9.703   0.732   8.186  0.1159  0.0938 -0.1360
  372loPI   C3B 5951   9.596   0.607   7.782 -0.2670  0.0789  0.2454
  372loPI   C4B 5952   9.345   0.372   7.462  0.0430 -0.1122  0.1771
  373loPI    C1 5953   1.503  15.159   9.599 -0.0692  0.1316 -0.1663
  373loPI    C2 5954   1.889  15.065   9.550 -0.0861 -0.0929  0.1060
  373loPI    C3 5955   1.757  15.186   9.908 -0.2253  0.2065 -0.0428
  373loPI   PO4 5956   1.454  15.140   9.346 -0.0591 -0.0269  0.2967
  373loPI   GL1 5957   0.957  15.115   9.171 -0.0499  0.3912 -0.1230
  373loPI   GL2 5958   1.176  15.107   8.944  0.0201  0.2363 -0.1734
  373loPI   C1A 5959   0.898  15.497   8.872  0.0040 -0.0723 -0.2475
  373loPI   C2A 5960   1.008  15.490   8.403 -0.4636  0.1347  0.4172
  373loPI   C3A 5961   0.887  15.475   7.920 -0.2757  0.1980  0.1620
  373loPI   C4A 5962   0.862  15.510   7.512 -0.4396  0.0402 -0.0776
  373loPI   C5A 5963   0.992  15.573   7.071 -0.0133  0.1610 -0.1214
  373loPI   C6A 5964   1.314  15.555   6.892  0.1955 -0.0743 -0.0480
  373loPI   C1B 5965   1.248  15.119   8.639 -0.2095  0.0087  0.2613
  373loPI   C2B 5966   1.440  15.073   8.171  0.2891  0.1503 -0.2626
  373loPI   C3B 5967   1.577  15.246   7.681  0.0071  0.0635 -0.1503
  373loPI   C4B 5968   1.369  15.296   7.356 -0.2214  0.2127  0.0593
  374loPI    C1 5969   1.021   6.525   9.815  0.0660 -0.0815  0.0297
  374loPI    C2 5970   1.066   6.238  10.089  0.4039 -0.1798 -0.1241
  374loPI    C3 5971   1.281   6.574  10.114 -0.0236  0.0863  0.0814
  374loPI   PO4 5972   1.076   6.447   9.637 -0.3448  0.1348  0.2243
  374loPI   GL1 5973   0.799   6.288   9.171 -0.2801  0.0109 -0.3181
  374loPI   GL2 5974   0.977   6.484   9.048  0.1620  0.0419 -0.2259
  374loPI   C1A 5975   0.646   6.584   8.688 -0.0722  0.1081 -0.1214
  374loPI   C2A 5976   0.514   6.600   8.215  0.0278  0.3363  0.0712
  374loPI   C3A 5977   0.571   6.434   7.764  0.1397 -0.5714  0.0223
  374loPI   C4A 5978   0.683   6.608   7.428 -0.0741  0.2155 -0.0408
  374loPI   C5A 5979   0.738   6.970   7.196 -0.1655  0.1487 -0.0250
  374loPI   C6A 5980   0.815   7.411   7.317 -0.2677 -0.0765  0.2121
  374loPI   C1B 5981   0.973   6.204   8.690  0.2216 -0.1432 -0.0170
  374loPI   C2B 5982   0.933   6.243   8.356  0.3448 -0.3353  0.0742
  374loPI   C3B 5983   0.980   6.268   7.922  0.2620  0.1562  0.0842
  374loPI   C4B 5984   1.194   6.370   7.512  0.1349  0.1558 -0.2373
  375loPI    C1 5985  14.693  19.157   9.617 -0.1623 -0.1274 -0.2134
  375loPI    C2 5986  14.904  18.905   9.388  0.2732  0.0542 -0.0233
  375loPI    C3 5987  14.787  18.793   9.754  0.4217  0.1063  0.0411
  375loPI   PO4 5988  14.573  19.275   9.399  0.1151 -0.3345  0.1647
  375loPI   GL1 5989  14.765  19.281   8.986  0.0833  0.1340 -0.2492
  375loPI   GL2 5990  14.712  19.630   8.988  0.0443  0.0866 -0.1273
  375loPI   C1A 5991  14.985  19.134   8.589 -0.5638  0.0809  0.0204
  375loPI   C2A 5992  15.130  18.700   8.440 -0.3355 -0.3420  0.4484
  375loPI   C3A 5993  15.309  18.435   8.165 -0.5039  0.1180  0.4031
  375loPI   C4A 5994  15.465  18.256   7.767  0.2956  0.0343 -0.0041
  375loPI   C5A 5995  15.748  18.437   7.482 -0.4298  0.1278 -0.0043
  375loPI   C6A 5996  15.773  18.689   7.077 -0.0504 -0.1078  0.1893
  375loPI   C1B 5997  14.952  19.661   8.575  0.2170  0.0637 -0.1223
  375loPI   C2B 5998  14.991  19.622   8.134  0.0494  0.2988 -0.3363
  375loPI   C3B 5999  14.960  19.494   7.725  0.2575  0.0034 -0.1667
  375loPI   C4B 6000  14.989  19.119   7.560 -0.6046  0.2105  0.2000
  376loPI    C1 6001  14.218   2.894   9.648  0.0338  0.0921  0.0742
  376loPI    C2 6002  14.064   2.526   9.669 -0.1345  0.1699  0.2270
  376loPI    C3 6003  13.951   2.805   9.933  0.0978  0.2923  0.1989
  376loPI   PO4 6004  14.224   2.905   9.314 -0.1143  0.1809 -0.3425
  376loPI   GL1 6005  14.231   2.574   9.021  0.1013  0.0139  0.1039
  376loPI   GL2 6006  14.422   2.842   8.861 -0.1999  0.2135  0.4154
  376loPI   C1A 6007  14.206   2.480   8.575 -0.0177 -0.2141 -0.1477
  376loPI   C2A 6008  14.098   2.524   8.083 -0.2043 -0.3428  0.0218
  376loPI   C3A 6009  13.885   2.504   7.799 -0.3465 -0.0378  0.2632
  376loPI   C4A 6010  13.496   2.534   7.515  0.0749  0.3633 -0.1232
  376loPI   C5A 6011  13.315   2.516   7.205 -0.3816 -0.4529 -0.0820
  376loPI   C6A 6012  13.250   2.614   6.794  0.1125 -0.4359  0.0303
  376loPI   C1B 6013  14.568   2.854   8.442 -0.1715  0.3869 -0.0424
  376loPI   C2B 6014  14.429   2.881   7.988 -0.0666 -0.0303 -0.2193
  376loPI   C3B 6015  14.328   3.041   7.536  0.3688 -0.0885  0.1268
  376loPI   C4B 6016  14.328   3.425   7.204  0.0347 -0.2206 -0.0653
  377loPI    C1 6017   0.660   1.315   9.528  0.1561 -0.2252  0.1084
  377loPI    C2 6018   0.772   1.672   9.670  0.2127 -0.2136  0.0350
  377loPI    C3 6019   0.610   1.401   9.916 -0.3222  0.0548 -0.0077
  377loPI   PO4 6020   0.596   1.341   9.278  0.0475  0.3278  0.2483
  377loPI   GL1 6021   0.778   1.237   8.847 -0.2094  0.0600 -0.0047
  377loPI   GL2 6022   0.655   0.941   9.014  0.1040  0.0918  0.0000
  377loPI   C1A 6023   0.866   1.163   8.393  0.4412 -0.0669 -0.0900
  377loPI   C2A 6024   0.668   0.954   7.941 -0.0532 -0.3719 -0.1381
  377loPI   C3A 6025   0.957   0.780   7.555 -0.1677 -0.1988  0.0180
  377loPI   C4A 6026   0.887   0.940   7.184 -0.1674  0.1247  0.1532
  377loPI   C5A 6027   0.576   0.752   6.928  0.1727  0.0326  0.1952
  377loPI   C6A 6028   0.225   0.459   6.766  0.0545 -0.0096 -0.0554
  377loPI   C1B 6029   0.467   0.856   8.664 -0.0643  0.0131  0.0121
  377loPI   C2B 6030   0.268   0.746   8.301  0.1900 -0.0251 -0.0064
  377loPI   C3B 6031   0.316   0.543   7.961 -0.2524 -0.0979  0.1222
  377loPI   C4B 6032   0.156   0.307   7.677 -0.0419 -0.4490 -0.1373
  378loPI    C1 6033  16.441  16.142  10.091  0.0863  0.0713  0.3442
  378loPI    C2 6034  16.139  16.404  10.073 -0.0679 -0.1240 -0.0013
  378loPI    C3 6035  16.153  16.135  10.368  0.0138  0.1747  0.2724
  378loPI   PO4 6036  16.688  16.177   9.910  0.3463  0.1463  0.0817
  378loPI   GL1 6037  16.795  16.406   9.580  0.1731  0.2300 -0.1661
  378loPI   GL2 6038  17.132  16.320   9.417 -0.0127 -0.0714 -0.4323
  378loPI   C1A 6039  16.420  16.241   9.247 -0.0197  0.0973 -0.1262
  378loPI   C2A 6040  16.222  16.406   8.809  0.0541 -0.0507  0.0647
  378loPI   C3A 6041  16.388  16.687   8.577 -0.1703 -0.2040  0.0927
  378loPI   C4A 6042  16.566  16.796   8.198  0.2549  0.0011 -0.1271
  378loPI   C5A 6043  16.454  16.647   7.814 -0.4008 -0.3850  0.0743
  378loPI   C6A 6044  16.114  16.304   7.707 -0.1494  0.3527 -0.0128
  378loPI   C1B 6045  17.251  16.248   9.007  0.0968  0.1193 -0.0856
  378loPI   C2B 6046  17.286  16.088   8.599 -0.1495  0.0016  0.0261
  378loPI   C3B 6047  17.272  15.982   8.223  0.2452 -0.0959  0.1192
  378loPI   C4B 6048  17.478  15.986   7.781 -0.0272  0.3393  0.0086
  379loPI    C1 6049   4.253   1.794   9.462  0.2550 -0.2601  0.2795
  379loPI    C2 6050   3.902   1.803   9.654  0.1748  0.0137  0.1259
  379loPI    C3 6051   4.212   1.605   9.812 -0.0665 -0.2902  0.2283
  379loPI   PO4 6052   4.123   1.867   9.191 -0.2561  0.4645 -0.0738
  379loPI   GL1 6053   4.173   2.018   8.793  0.0549 -0.0037  0.1868
  379loPI   GL2 6054   4.180   1.761   8.703  0.1221  0.1691  0.2501
  379loPI   C1A 6055   3.962   2.272   8.423 -0.2674  0.0317 -0.0578
  379loPI   C2A 6056   4.048   2.458   8.090 -0.0055  0.0200  0.1848
  379loPI   C3A 6057   3.983   2.379   7.638 -0.1863 -0.0690 -0.3719
  379loPI   C4A 6058   3.826   2.610   7.357 -0.3477  0.1582 -0.0533
  379loPI   C5A 6059   3.821   2.870   6.994  0.1940  0.1604 -0.0963
  379loPI   C6A 6060   3.607   2.874   6.658  0.0753  0.2028 -0.2297
  379loPI   C1B 6061   4.042   1.778   8.222  0.0135 -0.1388  0.0833
  379loPI   C2B 6062   3.891   1.894   7.819  0.2086  0.1270  0.3377
  379loPI   C3B 6063   4.005   1.938   7.417 -0.1525 -0.2182  0.1438
  379loPI   C4B 6064   4.038   2.222   7.029  0.0045 -0.2532  0.1006
  380loPI    C1 6065  14.143   0.299   9.950  0.0141  0.2866  0.0269
  380loPI    C2 6066  13.904  -0.014  10.023  0.0230  0.2695 -0.0168
  380loPI    C3 6067  14.121   0.146  10.319  0.1378  0.1352 -0.0274
  380loPI   PO4 6068  14.004   0.377   9.689 -0.0752  0.1627 -0.0060
  380loPI   GL1 6069  13.883   0.254   9.327  0.2544 -0.0147 -0.0015
  380loPI   GL2 6070  14.172   0.618   9.259 -0.1451  0.4910  0.0009
  380loPI   C1A 6071  13.859   0.103   8.866 -0.4629  0.1463  0.2387
  380loPI   C2A 6072  13.969   0.044   8.446 -0.2732  0.1369 -0.4039
  380loPI   C3A 6073  13.865   0.225   8.097 -0.1188 -0.2143 -0.2452
  380loPI   C4A 6074  13.877   0.224   7.757 -0.1374  0.1071 -0.1209
  380loPI   C5A 6075  13.793   0.208   7.343 -0.2691  0.2995  0.1670
  380loPI   C6A 6076  13.637   0.055   6.965 -0.0678  0.0308 -0.0399
  380loPI   C1B 6077  14.112   0.489   8.861 -0.1393 -0.1504 -0.3207
  380loPI   C2B 6078  14.054   0.554   8.486 -0.2104 -0.1353  0.2824
  380loPI   C3B 6079  14.190   0.705   8.081  0.0211 -0.1477 -0.2549
  380loPI   C4B 6080  14.281   0.535   7.778 -0.1674 -0.0247 -0.1862
  381loPI    C1 6081  14.742   9.058  10.068 -0.0098 -0.0573 -0.1173
  381loPI    C2 6082  14.552   8.806  10.314 -0.0589  0.2164  0.1300
  381loPI    C3 6083  14.693   9.154  10.453  0.2121  0.2255 -0.1561
  381loPI   PO4 6084  14.834   8.768   9.832 -0.3104 -0.0732 -0.4737
  381loPI   GL1 6085  14.816   8.747   9.431 -0.2260 -0.4242 -0.2061
  381loPI   GL2 6086  15.132   9.026   9.518  0.0193 -0.2575 -0.0190
  381loPI   C1A 6087  14.792   9.093   9.047 -0.1158 -0.1627 -0.3598
  381loPI   C2A 6088  14.874   8.913   8.540  0.3273 -0.0131  0.2729
  381loPI   C3A 6089  14.920   8.743   8.117  0.0405  0.3669  0.3102
  381loPI   C4A 6090  14.942   8.574   7.753 -0.0276  0.1282  0.0276
  381loPI   C5A 6091  14.799   8.240   7.544  0.2983  0.0908  0.0380
  381loPI   C6A 6092  14.718   7.965   7.249 -0.0780 -0.0163  0.0379
  381loPI   C1B 6093  15.350   9.159   9.058  0.1097 -0.2124 -0.2710
  381loPI   C2B 6094  15.200   9.243   8.650  0.1518  0.3395 -0.2132
  381loPI   C3B 6095  14.699   9.427   8.683 -0.0617  0.1515  0.0902
  381loPI   C4B 6096  14.173   9.467   8.519 -0.1530  0.2804  0.0114
  382loPI    C1 6097   7.954   7.367   9.511 -0.0591  0.0655 -0.2291
  382loPI    C2 6098   8.165   7.343   9.850 -0.1795  0.3023 -0.1350
  382loPI    C3 6099   7.944   7.032   9.730 -0.0549  0.1800 -0.0513
  382loPI   PO4 6100   8.067   7.460   9.371  0.0306  0.1875 -0.0136
  382loPI   GL1 6101   8.195   7.515   8.941  0.2352 -0.1959  0.2389
  382loPI   GL2 6102   8.067   7.279   8.813  0.0568  0.2366 -0.1854
  382loPI   C1A 6103   7.986   7.800   8.593 -0.0234  0.1003 -0.1884
  382loPI   C2A 6104   7.997   7.962   8.206 -0.2026  0.1096  0.1187
  382loPI   C3A 6105   7.886   7.901   7.806  0.1920  0.1864  0.0749
  382loPI   C4A 6106   7.679   8.029   7.410 -0.1575 -0.1441 -0.1045
  382loPI   C5A 6107   7.346   8.276   7.264  0.1107 -0.4219  0.0986
  382loPI   C6A 6108   7.182   8.515   6.942 -0.0221  0.1931 -0.1188
  382loPI   C1B 6109   8.303   7.220   8.369  0.3814  0.4337  0.3874
  382loPI   C2B 6110   8.149   7.470   8.049  0.2326 -0.0808  0.0423
  382loPI   C3B 6111   8.027   7.448   7.687  0.1154  0.3457  0.4201
  382loPI   C4B 6112   8.159   7.376   7.307 -0.0811 -0.2093  0.1686
  383loPI    C1 6113   3.581  13.908  10.106  0.0281 -0.0147 -0.1927
  383loPI    C2 6114   3.660  13.550  10.265 -0.1622  0.0370  0.0231
  383loPI    C3 6115   3.937  13.838  10.273  0.0846 -0.1806 -0.3790
  383loPI   PO4 6116   3.518  13.914   9.836 -0.1883 -0.1073 -0.1427
  383loPI   GL1 6117   3.754  13.849   9.437 -0.0835 -0.2327 -0.0126
  383loPI   GL2 6118   4.055  13.849   9.428  0.2765 -0.1509  0.2896
  383loPI   C1A 6119   3.562  13.796   8.994  0.0442 -0.1449  0.0812
  383loPI   C2A 6120   3.490  13.405   8.660 -0.0003 -0.0333 -0.1533
  383loPI   C3A 6121   3.269  13.250   8.304 -0.0467 -0.2610 -0.1431
  383loPI   C4A 6122   3.358  13.421   7.918 -0.0436  0.0678 -0.1187
  383loPI   C5A 6123   3.538  13.569   7.584 -0.1883 -0.2548 -0.2765
  383loPI   C6A 6124   3.971  13.401   7.234  0.1732  0.2386 -0.1264
  383loPI   C1B 6125   4.273  13.805   9.121  0.0989 -0.0948  0.1501
  383loPI   C2B 6126   4.464  13.841   8.780  0.2569 -0.0358  0.1338
  383loPI   C3B 6127   4.626  13.973   8.343  0.0971 -0.2828  0.1866
  383loPI   C4B 6128   4.870  13.809   8.222  0.4362  0.2044 -0.0806
  384loPI    C1 6129  16.367  11.947   9.812 -0.2616  0.0603  0.1453
  384loPI    C2 6130  16.710  12.138   9.739 -0.2183 -0.0150  0.1515
  384loPI    C3 6131  16.569  12.115  10.113 -0.0800 -0.2349  0.1914
  384loPI   PO4 6132  16.190  12.004   9.668  0.3189 -0.0380 -0.4898
  384loPI   GL1 6133  15.892  11.912   9.263 -0.1448  0.1077  0.0153
  384loPI   GL2 6134  15.908  12.240   9.139  0.2391 -0.1857  0.2522
  384loPI   C1A 6135  15.775  11.674   8.958  0.1271 -0.1050  0.1507
  384loPI   C2A 6136  15.811  11.722   8.431  0.0333  0.1590 -0.1737
  384loPI   C3A 6137  15.873  11.717   8.026  0.0149 -0.0358 -0.1205
  384loPI   C4A 6138  15.830  11.851   7.610  0.0320  0.2846  0.3600
  384loPI   C5A 6139  15.891  11.802   7.186 -0.0404  0.0098 -0.1542
  384loPI   C6A 6140  15.851  11.408   6.860 -0.1888  0.0943  0.2626
  384loPI   C1B 6141  15.751  12.212   8.723  0.0739 -0.0769  0.1180
  384loPI   C2B 6142  15.780  12.221   8.288 -0.0091  0.1650 -0.1341
  384loPI   C3B 6143  15.884  12.302   7.900 -0.5078  0.0043  0.2701
  384loPI   C4B 6144  15.885  12.702   7.602  0.2113  0.0463  0.3701
  385loPI    C1 6145  17.598  10.226   9.955  0.0795 -0.1130  0.3607
  385loPI    C2 6146  17.387   9.917  10.096 -0.0712 -0.2165 -0.0765
  385loPI    C3 6147  17.200  10.253   9.985  0.0632 -0.0728  0.1249
  385loPI   PO4 6148  17.713  10.185   9.717  0.0402 -0.0477  0.0627
  385loPI   GL1 6149  17.591  10.323   9.179  0.1727  0.1927  0.1570
  385loPI   GL2 6150  17.879  10.247   9.100 -0.0614 -0.0090  0.0245
  385loPI   C1A 6151  17.435  10.123   8.791 -0.1630 -0.1073 -0.3891
  385loPI   C2A 6152  17.428  10.088   8.308 -0.1075  0.0110 -0.0249
  385loPI   C3A 6153  17.446   9.807   8.002  0.1704  0.0747 -0.2022
  385loPI   C4A 6154  17.405   9.625   7.518  0.1430  0.0275 -0.2125
  385loPI   C5A 6155  17.160   9.712   7.087  0.1861  0.0402  0.0120
  385loPI   C6A 6156  17.154   9.854   6.674  0.3071  0.0551 -0.1577
  385loPI   C1B 6157  17.970  10.083   8.736  0.2260  0.1524 -0.3238
  385loPI   C2B 6158  18.043  10.040   8.374  0.3176  0.1137 -0.2122
  385loPI   C3B 6159  17.943  10.024   8.074 -0.3596  0.0896  0.3598
  385loPI   C4B 6160  17.737  10.016   7.700 -0.2037  0.2544 -0.0751
  386loPI    C1 6161  11.725  11.090   9.737  0.0589 -0.1402  0.0516
  386loPI    C2 6162  11.411  11.138   9.980  0.0815 -0.4062  0.1367
  386loPI    C3 6163  11.723  10.916  10.097  0.3414 -0.0752  0.0869
  386loPI   PO4 6164  11.884  11.254   9.599 -0.2718  0.3418  0.3644
  386loPI   GL1 6165  11.985  11.525   9.346 -0.1512  0.1159 -0.1150
  386loPI   GL2 6166  11.858  11.119   9.129  0.1253 -0.0392 -0.0230
  386loPI   C1A 6167  11.957  11.631   8.823  0.1994  0.1885 -0.0877
  386loPI   C2A 6168  11.862  11.592   8.377  0.2595 -0.1014 -0.2542
  386loPI   C3A 6169  11.793  11.385   7.996  0.3116  0.2538  0.2047
  386loPI   C4A 6170  11.712  11.449   7.542  0.0232  0.3810 -0.4526
  386loPI   C5A 6171  11.905  11.510   7.122  0.1305  0.0472 -0.2976
  386loPI   C6A 6172  11.953  11.196   6.832 -0.0662  0.0186 -0.2986
  386loPI   C1B 6173  11.889  11.123   8.646 -0.1127 -0.1865  0.0166
  386loPI   C2B 6174  12.033  10.959   8.132  0.3001 -0.1418 -0.2500
  386loPI   C3B 6175  12.042  11.056   7.661 -0.0033 -0.0153 -0.0666
  386loPI   C4B 6176  11.982  10.983   7.323  0.1493 -0.3787 -0.2110
  387loPI    C1 6177   8.512  16.256  10.541 -0.0033  0.1377 -0.2862
  387loPI    C2 6178   8.257  16.126  10.820  0.1488 -0.0910 -0.2507
  387loPI    C3 6179   8.433  16.482  10.861 -0.0426 -0.0014 -0.1965
  387loPI   PO4 6180   8.470  16.104  10.230  0.0911  0.0954  0.2969
  387loPI   GL1 6181   8.526  15.941   9.754 -0.0565 -0.3627 -0.0933
  387loPI   GL2 6182   8.215  15.844   9.860  0.0664 -0.0435  0.2071
  387loPI   C1A 6183   8.609  15.856   9.230 -0.0541 -0.0655  0.0538
  387loPI   C2A 6184   8.790  15.651   8.769  0.3629 -0.0775  0.0735
  387loPI   C3A 6185   8.771  15.718   8.345  0.1150 -0.0867  0.0977
  387loPI   C4A 6186   8.843  15.721   7.804 -0.0263 -0.0704 -0.1854
  387loPI   C5A 6187   8.739  16.012   7.384  0.0322  0.2253 -0.4867
  387loPI   C6A 6188   8.589  16.483   7.211 -0.1012  0.1334  0.0551
  387loPI   C1B 6189   8.316  15.560   9.504 -0.3082  0.2141 -0.2125
  387loPI   C2B 6190   8.362  15.339   9.232  0.1315  0.0701 -0.0739
  387loPI   C3B 6191   8.370  15.147   8.812  0.0882 -0.2049 -0.5209
  387loPI   C4B 6192   8.519  15.257   8.321  0.2064 -0.0938  0.1222
  388loPI    C1 6193  11.213   1.273   9.910 -0.2030 -0.3156  0.2385
  388loPI    C2 6194  11.481   0.980   9.962  0.0212 -0.1568  0.0029
  388loPI    C3 6195  11.604   1.352   9.880 -0.2715 -0.0733 -0.0712
  388loPI   PO4 6196  10.945   1.162   9.810 -0.0586 -0.1309 -0.1834
  388loPI   GL1 6197  10.863   1.031   9.404 -0.1540 -0.1442 -0.0405
  388loPI   GL2 6198  10.685   1.187   9.297  0.3809  0.2083  0.3494
  388loPI   C1A 6199  11.062   1.047   8.999  0.3333 -0.3364 -0.0783
  388loPI   C2A 6200  11.073   1.089   8.586 -0.1702 -0.0407 -0.3071
  388loPI   C3A 6201  11.271   0.886   8.213  0.2776  0.0179 -0.0596
  388loPI   C4A 6202  11.238   0.661   7.855  0.1508  0.1538  0.0510
  388loPI   C5A 6203  11.146   0.522   7.497  0.0273  0.0323  0.0812
  388loPI   C6A 6204  11.126   0.354   7.106 -0.1963  0.1822 -0.1468
  388loPI   C1B 6205  10.536   1.001   8.984 -0.1883  0.0615  0.1183
  388loPI   C2B 6206  10.217   0.686   8.725 -0.1518  0.1854 -0.1972
  388loPI   C3B 6207  10.097   0.377   8.404  0.0224  0.1434 -0.1917
  388loPI   C4B 6208   9.992   0.051   8.374  0.0810 -0.0433 -0.2916
  389loPI    C1 6209   5.592  12.140   9.783  0.0947  0.2929 -0.0759
  389loPI    C2 6210   5.824  11.975  10.065  0.0731  0.0343 -0.2065
  389loPI    C3 6211   5.542  12.240  10.167  0.0541 -0.0700  0.0167
  389loPI   PO4 6212   5.489  11.962   9.686 -0.0542  0.2110  0.0101
  389loPI   GL1 6213   5.313  11.641   9.375 -0.1184 -0.0698  0.1201
  389loPI   GL2 6214   4.996  11.632   9.277 -0.0665 -0.2391  0.1051
  389loPI   C1A 6215   5.519  11.688   9.061 -0.0504  0.1199 -0.0063
  389loPI   C2A 6216   5.631  11.354   8.691  0.0386 -0.1608 -0.1897
  389loPI   C3A 6217   5.503  11.464   8.318  0.2458  0.1269  0.2401
  389loPI   C4A 6218   5.632  11.511   7.894  0.2781  0.0126  0.0923
  389loPI   C5A 6219   5.528  11.734   7.486  0.6476 -0.1047 -0.0049
  389loPI   C6A 6220   5.462  12.048   7.171  0.3019 -0.0637 -0.1626
  389loPI   C1B 6221   5.066  11.567   8.872 -0.0876  0.2369  0.1618
  389loPI   C2B 6222   5.055  11.543   8.419  0.3021  0.0467  0.0805
  389loPI   C3B 6223   5.034  11.614   7.953 -0.3966  0.0710 -0.3154
  389loPI   C4B 6224   5.209  11.376   7.711  0.0935 -0.0867  0.1927
  390loPI    C1 6225   6.252  14.265   9.791 -0.1316 -0.0409  0.1808
  390loPI    C2 6226   6.058  13.964   9.968  0.2295 -0.2131  0.2926
  390loPI    C3 6227   6.420  14.072  10.098  0.2560  0.0354  0.0223
  390loPI   PO4 6228   6.245  14.151   9.487 -0.0973  0.1349 -0.2681
  390loPI   GL1 6229   6.180  13.942   9.338  0.0417  0.0652  0.1595
  390loPI   GL2 6230   6.008  14.145   9.029 -0.5117  0.2773 -0.2729
  390loPI   C1A 6231   5.790  13.761   8.924  0.0425  0.1828 -0.1386
  390loPI   C2A 6232   5.487  13.790   8.510  0.3535  0.1859  0.6096
  390loPI   C3A 6233   5.510  13.813   8.074  0.0710  0.0746 -0.2523
  390loPI   C4A 6234   5.611  13.793   7.562 -0.2902 -0.0697  0.0286
  390loPI   C5A 6235   6.045  13.472   7.369 -0.1039  0.0426  0.0389
  390loPI   C6A 6236   6.418  13.740   7.263  0.3621 -0.0217  0.0670
  390loPI   C1B 6237   6.245  14.313   8.693  0.2115  0.0217 -0.1040
  390loPI   C2B 6238   6.298  14.550   8.299 -0.0239 -0.0714 -0.0225
  390loPI   C3B 6239   6.546  14.728   7.943  0.0191 -0.2626 -0.0764
  390loPI   C4B 6240   6.726  14.611   7.540  0.0473 -0.0820  0.0188
  391loPI    C1 6241   3.036  17.031   9.383 -0.0187  0.3215 -0.0884
  391loPI    C2 6242   2.958  16.903   9.754  0.0589  0.0164 -0.1747
  391loPI    C3 6243   2.706  17.155   9.573 -0.1177 -0.0434 -0.0154
  391loPI   PO4 6244   3.125  16.890   9.267 -0.0590  0.1650  0.0126
  391loPI   GL1 6245   3.386  16.651   9.090 -0.0324  0.3859  0.2087
  391loPI   GL2 6246   3.092  16.354   9.162 -0.2222  0.0398 -0.0398
  391loPI   C1A 6247   3.368  16.442   8.692 -0.1377 -0.1458 -0.2966
  391loPI   C2A 6248   3.238  16.388   8.241  0.0025  0.1088  0.1794
  391loPI   C3A 6249   3.418  16.276   7.828 -0.0679 -0.1621 -0.2300
  391loPI   C4A 6250   3.539  16.464   7.442  0.2123  0.0431 -0.0977
  391loPI   C5A 6251   3.874  16.305   7.147 -0.1324 -0.2197 -0.1522
  391loPI   C6A 6252   4.160  15.923   7.086  0.2844  0.0361  0.0230
  391loPI   C1B 6253   2.901  16.249   8.733 -0.0663  0.3447  0.4481
  391loPI   C2B 6254   2.757  16.197   8.315 -0.0326  0.2223  0.0180
  391loPI   C3B 6255   2.534  15.931   8.127  0.5057  0.0894  0.2667
  391loPI   C4B 6256   2.398  15.642   7.959 -0.0855  0.3916  0.2219
  392loPI    C1 6257   2.516  14.096   9.941  0.0853 -0.0267 -0.1297
  392loPI    C2 6258   2.392  13.718   9.896 -0.1657  0.0081  0.2337
  392loPI    C3 6259   2.626  13.817  10.206  0.0045  0.1280  0.0690
  392loPI   PO4 6260   2.571  14.166   9.673  0.1821  0.2212  0.1070
  392loPI   GL1 6261   2.385  14.251   9.321 -0.4370  0.1065  0.0134
  392loPI   GL2 6262   2.078  14.279   9.246  0.2225 -0.2833  0.0724
  392loPI   C1A 6263   2.698  14.291   8.915  0.1238  0.1795 -0.1051
  392loPI   C2A 6264   2.814  14.273   8.510 -0.2397 -0.1532  0.1744
  392loPI   C3A 6265   2.846  14.302   7.974  0.0545 -0.2469  0.0429
  392loPI   C4A 6266   2.700  14.381   7.628 -0.0406  0.0054 -0.2383
  392loPI   C5A 6267   2.819  14.531   7.263  0.1746 -0.1965  0.2970
  392loPI   C6A 6268   3.117  14.822   7.123  0.0960 -0.3035 -0.0792
  392loPI   C1B 6269   2.217  14.413   8.859 -0.0827  0.0919 -0.0689
  392loPI   C2B 6270   2.353  14.337   8.368  0.0103  0.1247  0.0928
  392loPI   C3B 6271   2.274  14.234   7.939  0.1719 -0.0961 -0.0098
  392loPI   C4B 6272   2.379  14.023   7.616 -0.2329  0.1127  0.1296
  393loPI    C1 6273  14.959  14.914   9.574 -0.0115 -0.0358  0.1514
  393loPI    C2 6274  14.570  14.821   9.579 -0.0635  0.1681  0.0416
  393loPI    C3 6275  14.810  14.695   9.873 -0.2130  0.0456  0.1125
  393loPI   PO4 6276  14.951  15.212   9.501 -0.0477  0.0035 -0.1156
  393loPI   GL1 6277  14.648  15.279   9.177  0.1023 -0.0385 -0.1083
  393loPI   GL2 6278  14.302  15.216   9.180  0.1350 -0.2729 -0.1139
  393loPI   C1A 6279  14.778  15.176   8.753  0.2262  0.2199  0.1201
  393loPI   C2A 6280  14.835  15.255   8.299  0.0470  0.0383 -0.2093
  393loPI   C3A 6281  14.869  15.188   7.853 -0.1657  0.0535  0.0282
  393loPI   C4A 6282  14.659  15.130   7.494  0.1436  0.1779 -0.0978
  393loPI   C5A 6283  14.386  14.724   7.176  0.0879  0.1650 -0.2008
  393loPI   C6A 6284  14.163  14.269   7.235 -0.1868 -0.0885 -0.2690
  393loPI   C1B 6285  14.075  15.370   8.805  0.3547  0.0398  0.0032
  393loPI   C2B 6286  13.682  15.517   8.535 -0.1221  0.3630  0.0449
  393loPI   C3B 6287  13.545  15.924   8.472  0.0218  0.0669  0.2244
  393loPI   C4B 6288  13.615  16.121   8.205 -0.1906  0.2077  0.1858
  394loPI    C1 6289  13.380   3.427   9.781 -0.1184  0.3783 -0.1209
  394loPI    C2 6290  13.321   3.746  10.016 -0.1894  0.1477  0.1799
  394loPI    C3 6291  13.271   3.377  10.163  0.0993 -0.0096 -0.1048
  394loPI   PO4 6292  13.202   3.480   9.547 -0.3140 -0.3613 -0.0106
  394loPI   GL1 6293  13.307   3.488   9.161  0.2570 -0.0592 -0.4184
  394loPI   GL2 6294  13.376   3.219   8.790 -0.0174 -0.0983  0.1350
  394loPI   C1A 6295  13.391   3.718   8.744 -0.2063  0.1615 -0.0004
  394loPI   C2A 6296  13.198   3.565   8.483  0.0781  0.1106 -0.2241
  394loPI   C3A 6297  12.836   3.665   8.204  0.1051 -0.1303 -0.3191
  394loPI   C4A 6298  12.791   3.858   7.866  0.1061 -0.1789 -0.0954
  394loPI   C5A 6299  12.765   3.927   7.461 -0.0977  0.0803 -0.2304
  394loPI   C6A 6300  12.943   4.073   7.016 -0.2375  0.1432  0.3734
  394loPI   C1B 6301  13.355   3.018   8.385  0.1719 -0.0427 -0.0766
  394loPI   C2B 6302  13.309   2.940   7.895  0.0860 -0.0075 -0.1657
  394loPI   C3B 6303  13.190   2.938   7.441  0.0981  0.0896  0.0028
  394loPI   C4B 6304  13.143   3.123   6.953  0.3592 -0.3304 -0.0205
  395loPI    C1 6305  18.624   8.396  10.202  0.1591  0.0555  0.1614
  395loPI    C2 6306  18.333   8.500  10.456  0.0022  0.2299 -0.0851
  395loPI    C3 6307  18.701   8.426  10.593 -0.1478  0.0410  0.2260
  395loPI   PO4 6308  18.561   8.608   9.924  0.0741  0.1197  0.0576
  395loPI   GL1 6309  18.496   8.559   9.430  0.2391  0.1021 -0.1905
  395loPI   GL2 6310  18.286   8.843   9.543  0.2705  0.2217 -0.2993
  395loPI   C1A 6311  18.794   8.596   9.078  0.0406  0.2431  0.0150
  395loPI   C2A 6312  19.120   8.726   8.902 -0.0646  0.0252 -0.0201
  395loPI   C3A 6313  19.346   8.743   8.449  0.1609  0.1840  0.2651
  395loPI   C4A 6314  19.225   8.688   8.038 -0.1680  0.1455  0.0515
  395loPI   C5A 6315  19.230   8.720   7.621 -0.0187  0.2764  0.1257
  395loPI   C6A 6316  19.421   8.871   7.244 -0.0400  0.1441  0.2016
  395loPI   C1B 6317  18.255   8.804   9.093  0.1472  0.0344  0.7013
  395loPI   C2B 6318  18.290   8.587   8.834  0.3374  0.0178 -0.0222
  395loPI   C3B 6319  18.444   8.327   8.434  0.1414  0.1065 -0.2881
  395loPI   C4B 6320  18.200   8.126   8.312  0.0032 -0.0240  0.1161
  396loPI    C1 6321  15.628   2.831   9.829  0.1138 -0.3399 -0.3801
  396loPI    C2 6322  15.743   2.451   9.780  0.0018 -0.4287  0.0126
  396loPI    C3 6323  15.881   2.663  10.090 -0.2002 -0.2565 -0.0135
  396loPI   PO4 6324  15.533   2.891   9.483 -0.1471 -0.1212 -0.3990
  396loPI   GL1 6325  15.299   3.126   9.136 -0.2714 -0.1886  0.0493
  396loPI   GL2 6326  15.083   2.807   9.186 -0.3271  0.1800  0.3402
  396loPI   C1A 6327  15.163   3.179   8.668 -0.1318 -0.1194  0.3395
  396loPI   C2A 6328  15.018   3.054   8.273  0.0709  0.0052 -0.0418
  396loPI   C3A 6329  14.995   3.203   7.803  0.0052 -0.3295  0.1274
  396loPI   C4A 6330  14.993   3.357   7.441 -0.1473 -0.2062  0.1079
  396loPI   C5A 6331  15.274   3.183   7.157  0.2365  0.3241  0.2495
  396loPI   C6A 6332  15.337   2.960   6.764 -0.2342 -0.1039  0.2801
  396loPI   C1B 6333  14.886   2.653   8.841 -0.2160 -0.0534  0.2514
  396loPI   C2B 6334  15.050   2.539   8.428  0.0737  0.3796 -0.0757
  396loPI   C3B 6335  15.012   2.707   7.953 -0.0922 -0.0944 -0.0780
  396loPI   C4B 6336  14.737   2.743   7.594  0.1205 -0.1033 -0.0148
  397loPI    C1 6337   7.743   9.609   9.450 -0.1363  0.1891 -0.2377
  397loPI    C2 6338   8.080   9.635   9.664 -0.1640 -0.2325 -0.1344
  397loPI    C3 6339   7.755   9.837   9.779 -0.0598 -0.1327 -0.0118
  397loPI   PO4 6340   7.834   9.521   9.239  0.3105 -0.2450  0.0343
  397loPI   GL1 6341   7.816   9.545   8.838  0.2580 -0.1788 -0.1288
  397loPI   GL2 6342   8.158   9.646   8.778  0.3669  0.0107  0.0830
  397loPI   C1A 6343   7.663   9.876   8.608 -0.1174  0.1141 -0.1431
  397loPI   C2A 6344   7.593   9.902   8.218  0.1342  0.0702  0.2715
  397loPI   C3A 6345   7.379   9.913   7.868  0.3397 -0.0766 -0.2162
  397loPI   C4A 6346   7.147   9.748   7.460  0.0925 -0.1917  0.2563
  397loPI   C5A 6347   7.018   9.879   7.062  0.0806  0.1137  0.3666
  397loPI   C6A 6348   6.792   9.865   6.801  0.0480  0.2396  0.2406
  397loPI   C1B 6349   8.039   9.606   8.377 -0.1787 -0.0146 -0.2395
  397loPI   C2B 6350   7.980   9.650   7.882 -0.1660  0.1732 -0.3025
  397loPI   C3B 6351   8.022   9.390   7.439 -0.0458  0.1002  0.1087
  397loPI   C4B 6352   7.996   9.404   6.971  0.2489  0.0129 -0.3270
  398loPI    C1 6353  12.425   8.315  10.036  0.0814 -0.1333  0.1214
  398loPI    C2 6354  12.065   8.464   9.948  0.1173 -0.1511 -0.0609
  398loPI    C3 6355  12.115   8.240  10.276 -0.0637 -0.2490 -0.0986
  398loPI   PO4 6356  12.449   8.308   9.631 -0.1320 -0.0923  0.1599
  398loPI   GL1 6357  12.414   8.404   9.156 -0.1428  0.0058  0.0218
  398loPI   GL2 6358  12.692   8.172   9.213 -0.2344  0.0404 -0.4220
  398loPI   C1A 6359  12.141   8.327   8.809 -0.0906 -0.2481  0.0342
  398loPI   C2A 6360  12.131   8.349   8.357  0.0869  0.0752 -0.0175
  398loPI   C3A 6361  12.096   8.307   7.877  0.0086  0.2453  0.1160
  398loPI   C4A 6362  12.268   8.289   7.441  0.2178 -0.3657  0.1638
  398loPI   C5A 6363  12.356   8.230   7.019  0.1752  0.1360 -0.2768
  398loPI   C6A 6364  12.825   8.350   6.858  0.3200  0.0898 -0.0202
  398loPI   C1B 6365  12.620   8.197   8.755 -0.0414 -0.0492 -0.0762
  398loPI   C2B 6366  12.683   8.171   8.303  0.0237  0.5694 -0.0687
  398loPI   C3B 6367  12.592   8.277   7.868  0.0212  0.0705 -0.0797
  398loPI   C4B 6368  12.736   8.358   7.337 -0.1867 -0.0060 -0.1519
  399loPI    C1 6369   9.952  16.462  10.572  0.1444  0.0692  0.1807
  399loPI    C2 6370  10.021  16.174  10.841 -0.1099  0.0002  0.1747
  399loPI    C3 6371   9.646  16.282  10.755 -0.0309  0.0376 -0.1369
  399loPI   PO4 6372  10.129  16.365  10.302 -0.1584  0.0365  0.0421
  399loPI   GL1 6373  10.009  16.528   9.932  0.1439  0.1717 -0.0199
  399loPI   GL2 6374  10.303  16.321   9.843  0.0394  0.2854  0.0525
  399loPI   C1A 6375  10.162  16.768   9.549  0.1911 -0.2316 -0.1190
  399loPI   C2A 6376  10.225  16.710   9.101 -0.1043  0.1638 -0.1916
  399loPI   C3A 6377  10.292  16.606   8.738  0.1057 -0.1126 -0.0561
  399loPI   C4A 6378  10.657  16.607   8.396 -0.0685  0.2874 -0.2749
  399loPI   C5A 6379  10.856  16.951   8.070  0.2756  0.1117  0.0899
  399loPI   C6A 6380  10.921  17.211   7.622 -0.3290 -0.0285 -0.4046
  399loPI   C1B 6381  10.384  16.149   9.466  0.1747  0.0992 -0.0235
  399loPI   C2B 6382  10.557  16.228   9.070 -0.0473  0.5084  0.0049
  399loPI   C3B 6383  10.658  16.097   8.664 -0.0931 -0.4306 -0.0835
  399loPI   C4B 6384  10.586  16.130   8.190  0.1278  0.2334 -0.3762
  400loPI    C1 6385   9.135  14.708  10.304  0.0425  0.0571  0.1099
  400loPI    C2 6386   9.517  14.753  10.198  0.0542 -0.2537  0.0088
  400loPI    C3 6387   9.424  14.661  10.576  0.0571  0.1312  0.1069
  400loPI   PO4 6388   9.020  14.857  10.197  0.2203  0.1029  0.3224
  400loPI   GL1 6389   9.136  14.851   9.785 -0.0194 -0.0670 -0.2634
  400loPI   GL2 6390   9.047  14.603   9.548 -0.1430 -0.2174  0.1303
  400loPI   C1A 6391   8.953  15.056   9.325  0.0855 -0.3894  0.0299
  400loPI   C2A 6392   8.911  15.140   8.940  0.1506 -0.2317 -0.1091
  400loPI   C3A 6393   8.996  15.133   8.494 -0.2263 -0.0113  0.0559
  400loPI   C4A 6394   9.074  15.305   8.065  0.1584  0.0279 -0.0533
  400loPI   C5A 6395   9.299  15.202   7.738 -0.2004  0.1701 -0.0143
  400loPI   C6A 6396   9.387  14.942   7.399  0.0138  0.0851  0.1448
  400loPI   C1B 6397   9.242  14.292   9.330  0.0047  0.2257  0.2881
  400loPI   C2B 6398   9.522  14.045   9.067  0.1638  0.3497  0.2312
  400loPI   C3B 6399   9.891  13.903   9.067  0.3788 -0.0567 -0.0850
  400loPI   C4B 6400  10.203  14.013   9.282 -0.0007  0.0063 -0.0670
  401loPI    C1 6401   9.132  11.247   9.744  0.0937  0.1800 -0.2307
  401loPI    C2 6402   9.458  11.205   9.517  0.3307  0.1975  0.0994
  401loPI    C3 6403   9.464  11.087   9.899 -0.0443  0.2194  0.1154
  401loPI   PO4 6404   8.927  11.241   9.516  0.0843 -0.3428  0.0233
  401loPI   GL1 6405   8.755  11.362   9.160 -0.0141 -0.1330  0.2825
  401loPI   GL2 6406   8.675  11.021   9.015  0.3387  0.1039 -0.0116
  401loPI   C1A 6407   8.926  11.747   8.981 -0.1475 -0.2140 -0.1217
  401loPI   C2A 6408   9.077  11.980   8.625  0.1444  0.2828  0.0103
  401loPI   C3A 6409   9.068  12.121   8.191 -0.1456  0.3099 -0.1270
  401loPI   C4A 6410   9.134  12.175   7.680 -0.2720 -0.2959  0.2208
  401loPI   C5A 6411   8.964  12.369   7.334  0.4670 -0.0838 -0.1690
  401loPI   C6A 6412   8.567  12.401   7.135 -0.0199 -0.1237  0.0767
  401loPI   C1B 6413   8.859  11.328   8.639 -0.1209  0.3019 -0.0680
  401loPI   C2B 6414   9.075  11.567   8.287 -0.0204 -0.0245 -0.1547
  401loPI   C3B 6415   9.082  11.697   7.824  0.2246 -0.0535 -0.0580
  401loPI   C4B 6416   8.784  11.773   7.496 -0.4631 -0.1811 -0.1401
  402loPI    C1 6417   7.477   7.837   9.614  0.0510 -0.1234 -0.1127
  402loPI    C2 6418   7.660   8.187   9.551  0.1616 -0.1671 -0.0365
  402loPI    C3 6419   7.460   8.124   9.891 -0.1355 -0.0598 -0.1884
  402loPI   PO4 6420   7.380   7.758   9.269  0.2042  0.0619  0.0819
  402loPI   GL1 6421   7.652   7.506   9.027 -0.1375 -0.0029  0.1832
  402loPI   GL2 6422   7.381   7.317   8.953  0.1001  0.0513  0.3250
  402loPI   C1A 6423   7.689   7.260   8.426  0.0105  0.0655  0.1697
  402loPI   C2A 6424   7.723   7.202   7.975 -0.0906 -0.0958  0.1461
  402loPI   C3A 6425   7.769   6.969   7.530 -0.0309  0.2812  0.0470
  402loPI   C4A 6426   7.926   6.971   7.207  0.0340 -0.0763 -0.4095
  402loPI   C5A 6427   7.835   7.220   6.896 -0.0861 -0.3264  0.1301
  402loPI   C6A 6428   7.811   7.623   6.633  0.1837 -0.3165 -0.1849
  402loPI   C1B 6429   7.270   7.108   8.628  0.0617 -0.0694 -0.1146
  402loPI   C2B 6430   7.205   6.788   8.334 -0.2001  0.4653  0.0637
  402loPI   C3B 6431   7.067   6.748   8.003 -0.1372 -0.2080 -0.1594
  402loPI   C4B 6432   6.747   6.757   7.705  0.1653 -0.3877 -0.1965
  403loPI    C1 6433  13.660   4.306   9.486  0.0134 -0.2345  0.1761
  403loPI    C2 6434  13.574   4.695   9.521 -0.0369 -0.2082 -0.2014
  403loPI    C3 6435  13.873   4.536   9.734 -0.1414 -0.0078  0.1016
  403loPI   PO4 6436  13.640   4.230   9.237 -0.0479  0.1357  0.4388
  403loPI   GL1 6437  13.551   4.168   8.859 -0.1612  0.0339 -0.1063
  403loPI   GL2 6438  13.261   4.454   8.889  0.0669  0.1846 -0.5019
  403loPI   C1A 6439  13.461   4.404   8.458 -0.0888  0.1438  0.0479
  403loPI   C2A 6440  13.465   4.468   8.067 -0.1751 -0.0670 -0.2147
  403loPI   C3A 6441  13.409   4.513   7.631  0.0738 -0.1244  0.1541
  403loPI   C4A 6442  13.476   4.812   7.371  0.1147  0.0468  0.1890
  403loPI   C5A 6443  13.152   4.953   7.295  0.0520 -0.0308  0.3576
  403loPI   C6A 6444  13.128   5.089   6.852 -0.1764  0.0410 -0.1712
  403loPI   C1B 6445  13.105   4.772   8.517  0.2091 -0.1130  0.0897
  403loPI   C2B 6446  12.995   4.775   8.091  0.1087 -0.1553  0.0863
  403loPI   C3B 6447  13.253   5.123   7.778  0.1643  0.0331  0.4915
  403loPI   C4B 6448  13.450   5.337   7.485  0.2014 -0.2057  0.0490
  404loPI    C1 6449   6.963   1.105   9.506 -0.4088  0.1242  0.2682
  404loPI    C2 6450   7.313   1.161   9.693 -0.0892  0.1342 -0.3091
  404loPI    C3 6451   7.061   0.877   9.820 -0.0341  0.3520  0.3236
  404loPI   PO4 6452   6.975   1.076   9.252 -0.1296 -0.4371 -0.1321
  404loPI   GL1 6453   7.019   0.962   8.916 -0.2130  0.1406 -0.1484
  404loPI   GL2 6454   6.690   0.944   8.847 -0.1426  0.0126  0.3628
  404loPI   C1A 6455   7.062   0.895   8.523 -0.1335 -0.4749  0.0374
  404loPI   C2A 6456   6.927   0.870   8.124  0.3002 -0.0948 -0.2935
  404loPI   C3A 6457   6.817   0.686   7.785 -0.1768 -0.2614 -0.0077
  404loPI   C4A 6458   6.707   0.751   7.315 -0.0564 -0.0289 -0.2409
  404loPI   C5A 6459   6.595   0.791   6.921 -0.1019  0.0105  0.0789
  404loPI   C6A 6460   6.272   0.506   6.726  0.0715  0.0126 -0.2728
  404loPI   C1B 6461   6.572   0.904   8.496 -0.3006  0.2788 -0.0333
  404loPI   C2B 6462   6.610   0.530   8.265 -0.0580  0.1706  0.0594
  404loPI   C3B 6463   6.360   0.535   7.885 -0.0924  0.1716  0.3650
  404loPI   C4B 6464   6.103   0.280   7.530  0.1533 -0.0529  0.0184
  405loPI    C1 6465   4.741   2.701   9.309  0.3602 -0.2019  0.0320
  405loPI    C2 6466   5.027   2.638   9.581  0.0653 -0.0388  0.3889
  405loPI    C3 6467   4.674   2.789   9.694 -0.1881 -0.2953 -0.0336
  405loPI   PO4 6468   4.836   2.822   9.115 -0.2018 -0.0973 -0.1211
  405loPI   GL1 6469   4.781   3.093   8.759  0.1565  0.0421  0.1100
  405loPI   GL2 6470   4.622   3.195   8.473 -0.0840 -0.0775 -0.2212
  405loPI   C1A 6471   5.113   3.027   8.450 -0.0395 -0.0283 -0.2866
  405loPI   C2A 6472   5.183   3.024   8.077  0.0653 -0.3192 -0.0471
  405loPI   C3A 6473   5.464   3.135   7.719  0.2885  0.1411  0.2571
  405loPI   C4A 6474   5.623   2.832   7.403 -0.0636  0.2964  0.2617
  405loPI   C5A 6475   5.978   2.856   7.069 -0.3837  0.1923  0.2278
  405loPI   C6A 6476   6.079   2.864   6.640 -0.1395  0.1619 -0.0412
  405loPI   C1B 6477   4.694   3.112   8.095 -0.1189  0.1644 -0.0512
  405loPI   C2B 6478   4.568   3.174   7.670  0.3947  0.0005 -0.0466
  405loPI   C3B 6479   4.580   3.305   7.247  0.0456  0.3083  0.5988
  405loPI   C4B 6480   4.921   3.348   6.910 -0.0139 -0.0268 -0.0726
  406loPI    C1 6481  13.617  11.404  10.053  0.0683 -0.1320  0.0317
  406loPI    C2 6482  13.543  11.341  10.441  0.0334  0.2113  0.0838
  406loPI    C3 6483  13.251  11.470  10.200  0.1349  0.3121  0.0134
  406loPI   PO4 6484  13.680  11.197   9.958  0.2893 -0.0516  0.1229
  406loPI   GL1 6485  13.405  11.265   9.534  0.0038  0.0825 -0.4317
  406loPI   GL2 6486  13.350  10.942   9.529 -0.2292 -0.4371  0.2575
  406loPI   C1A 6487  13.510  11.408   9.172  0.0018  0.0082 -0.2734
  406loPI   C2A 6488  13.485  11.528   8.808  0.1055 -0.1347 -0.3982
  406loPI   C3A 6489  13.424  11.503   8.277  0.2349  0.0823 -0.1130
  406loPI   C4A 6490  13.446  11.759   7.972 -0.1691 -0.0016  0.0651
  406loPI   C5A 6491  13.673  11.952   7.724  0.0594 -0.0431  0.0802
  406loPI   C6A 6492  13.887  12.301   7.557  0.1206 -0.4350 -0.1021
  406loPI   C1B 6493  13.288  10.901   9.075 -0.1253  0.0240  0.0272
  406loPI   C2B 6494  13.263  10.798   8.656 -0.1002  0.2097  0.2241
  406loPI   C3B 6495  13.341  10.701   8.325 -0.3827  0.1729  0.2361
  406loPI   C4B 6496  13.200  10.700   7.902 -0.1698  0.0260  0.1606
  407loPI    C1 6497  10.512  18.605  10.099 -0.0880  0.2128  0.0140
  407loPI    C2 6498  10.275  18.325  10.258 -0.2747  0.3042 -0.0996
  407loPI    C3 6499  10.500  18.555  10.495 -0.1233  0.0630 -0.0052
  407loPI   PO4 6500  10.463  18.498   9.867  0.0723 -0.2157  0.1516
  407loPI   GL1 6501  10.415  18.499   9.479  0.2104 -0.0439 -0.0601
  407loPI   GL2 6502  10.134  18.378   9.290  0.0907 -0.0914 -0.0185
  407loPI   C1A 6503  10.524  18.497   8.990  0.2290  0.1247 -0.0131
  407loPI   C2A 6504  10.304  18.305   8.717 -0.1229 -0.1537  0.0404
  407loPI   C3A 6505  10.390  18.038   8.285 -0.1533 -0.1209  0.1665
  407loPI   C4A 6506  10.630  17.836   8.026 -0.1854  0.0785 -0.3662
  407loPI   C5A 6507  10.654  17.624   7.700  0.0949 -0.2292 -0.0560
  407loPI   C6A 6508  10.391  17.679   7.368 -0.3926  0.2263  0.1592
  407loPI   C1B 6509  10.259  17.982   9.083  0.1869 -0.2346 -0.1169
  407loPI   C2B 6510  10.113  17.546   8.920  0.2609 -0.1795 -0.0094
  407loPI   C3B 6511  10.317  17.152   8.785  0.0396 -0.1062  0.0029
  407loPI   C4B 6512  10.790  17.006   8.612 -0.1385 -0.0554 -0.1233
  408loPI    C1 6513   9.678  10.416   9.885  0.0996 -0.1012  0.0630
  408loPI    C2 6514   9.396  10.612  10.090  0.2306 -0.0234  0.1704
  408loPI    C3 6515   9.711  10.456  10.282  0.2739 -0.0878  0.0482
  408loPI   PO4 6516   9.556  10.267   9.606 -0.1383 -0.0695  0.2538
  408loPI   GL1 6517   9.358  10.380   9.188 -0.1016 -0.2992  0.0055
  408loPI   GL2 6518   9.085  10.435   9.235  0.2384 -0.0014  0.4578
  408loPI   C1A 6519   9.266  10.269   8.818  0.0724 -0.0502  0.0307
  408loPI   C2A 6520   9.113  10.458   8.314 -0.2390  0.2209  0.3992
  408loPI   C3A 6521   9.035  10.553   7.916 -0.2573 -0.1908 -0.3405
  408loPI   C4A 6522   8.905  10.754   7.546  0.1731 -0.0060 -0.0678
  408loPI   C5A 6523   9.059  11.199   7.283 -0.1631 -0.2610 -0.3800
  408loPI   C6A 6524   8.870  11.519   7.053 -0.0243  0.3747  0.0124
  408loPI   C1B 6525   9.018  10.665   8.927  0.0364 -0.2158 -0.1608
  408loPI   C2B 6526   8.908  10.858   8.565 -0.1282  0.2236 -0.4361
  408loPI   C3B 6527   8.832  11.068   8.215  0.2903 -0.1606 -0.0373
  408loPI   C4B 6528   8.996  11.148   7.831  0.1602  0.0310 -0.0635
  409loPI    C1 6529  15.177   7.541   9.816 -0.3247 -0.1034  0.1547
  409loPI    C2 6530  14.911   7.777   9.633 -0.1615 -0.0562 -0.0255
  409loPI    C3 6531  15.197   7.938   9.861 -0.0080 -0.0727 -0.2041
  409loPI   PO4 6532  15.263   7.337   9.626 -0.1833 -0.0051  0.1170
  409loPI   GL1 6533  15.476   7.239   9.215 -0.0861  0.0442 -0.3485
  409loPI   GL2 6534  15.224   7.060   9.190  0.2328 -0.0300 -0.0283
  409loPI   C1A 6535  15.453   7.496   8.792 -0.1395  0.0027  0.2448
  409loPI   C2A 6536  15.502   7.664   8.276  0.2865  0.3224 -0.1100
  409loPI   C3A 6537  15.539   7.819   7.743  0.2203  0.1890 -0.3438
  409loPI   C4A 6538  15.817   8.066   7.465 -0.1749 -0.2377 -0.0568
  409loPI   C5A 6539  15.836   8.345   7.188 -0.2426 -0.0482 -0.0571
  409loPI   C6A 6540  15.819   8.642   7.073  0.1104  0.0892 -0.0734
  409loPI   C1B 6541  15.206   6.818   8.796  0.0277  0.1569 -0.0943
  409loPI   C2B 6542  15.145   6.787   8.385  0.0599 -0.2607 -0.0458
  409loPI   C3B 6543  15.073   6.874   8.066 -0.0069  0.2722 -0.0876
  409loPI   C4B 6544  15.104   7.002   7.667  0.1775 -0.2267  0.1102
  410loPI    C1 6545  12.553  17.137   9.839  0.0854 -0.1046 -0.0098
  410loPI    C2 6546  12.918  17.254   9.952  0.1338 -0.0387 -0.2289
  410loPI    C3 6547  12.627  17.524   9.905  0.0530 -0.0922 -0.0456
  410loPI   PO4 6548  12.462  17.061   9.694 -0.0458 -0.3583 -0.0813
  410loPI   GL1 6549  12.403  17.132   9.285  0.1379  0.1267 -0.1769
  410loPI   GL2 6550  12.449  17.442   9.114  0.0730 -0.3262 -0.0554
  410loPI   C1A 6551  12.459  16.989   8.843  0.3380  0.1517 -0.0080
  410loPI   C2A 6552  12.637  16.852   8.405 -0.2456  0.0199 -0.1004
  410loPI   C3A 6553  12.628  16.824   7.981  0.1582 -0.1618  0.0162
  410loPI   C4A 6554  12.373  16.779   7.502 -0.3821 -0.0792  0.0575
  410loPI   C5A 6555  12.112  16.471   7.296  0.0158 -0.1926  0.0064
  410loPI   C6A 6556  11.954  16.266   6.995  0.0432  0.2841  0.4754
  410loPI   C1B 6557  12.493  17.428   8.598 -0.2155 -0.4114 -0.0428
  410loPI   C2B 6558  12.361  17.293   8.138 -0.1563 -0.0430 -0.1529
  410loPI   C3B 6559  12.325  17.382   7.694  0.0967  0.1631 -0.0072
  410loPI   C4B 6560  12.148  17.164   7.359 -0.1130  0.0155 -0.4037
  411loPI    C1 6561  12.176   3.897   9.305 -0.0514 -0.0042 -0.1437
  411loPI    C2 6562  12.365   4.007   9.640 -0.0694 -0.1608 -0.0812
  411loPI    C3 6563  12.014   4.173   9.545  0.0636  0.0792 -0.1613
  411loPI   PO4 6564  12.409   3.925   9.077  0.0054 -0.0519  0.1262
  411loPI   GL1 6565  12.680   4.181   8.883  0.3061 -0.3008 -0.0915
  411loPI   GL2 6566  12.738   3.783   8.748  0.1384 -0.1791 -0.1819
  411loPI   C1A 6567  12.575   4.132   8.414  0.4350 -0.0508 -0.3242
  411loPI   C2A 6568  12.492   4.277   7.943  0.1324 -0.0669  0.2469
  411loPI   C3A 6569  12.523   4.382   7.508  0.0347  0.2448  0.0382
  411loPI   C4A 6570  12.688   4.749   7.159 -0.0877 -0.2227  0.2617
  411loPI   C5A 6571  13.113   4.594   6.959 -0.2148 -0.2606  0.1460
  411loPI   C6A 6572  13.510   4.653   6.886  0.1471  0.0490  0.1095
  411loPI   C1B 6573  13.069   4.110   8.612  0.0459 -0.0375 -0.2626
  411loPI   C2B 6574  13.019   4.286   8.229 -0.2621 -0.2939  0.2086
  411loPI   C3B 6575  12.949   4.329   7.789 -0.1996  0.2184 -0.0048
  411loPI   C4B 6576  13.035   4.383   7.356  0.2616 -0.0528 -0.2271
  412loPI    C1 6577   0.388   0.915   9.934 -0.2663  0.0472  0.0427
  412loPI    C2 6578   0.065   0.785  10.131 -0.1572  0.2798  0.3847
  412loPI    C3 6579   0.405   0.575  10.144 -0.3049  0.0017 -0.0274
  412loPI   PO4 6580   0.247   1.081   9.685 -0.1220  0.2631  0.0912
  412loPI   GL1 6581   0.108   1.004   9.295 -0.4395  0.1600  0.3947
  412loPI   GL2 6582   0.137   0.713   9.134  0.2922 -0.0807  0.0388
  412loPI   C1A 6583  -0.237   1.075   9.010  0.2265 -0.1266 -0.1947
  412loPI   C2A 6584  -0.602   1.252   8.809  0.0682 -0.0682 -0.3211
  412loPI   C3A 6585  -0.808   1.058   8.452  0.1744  0.3834  0.0676
  412loPI   C4A 6586  -0.800   1.091   8.012  0.0611  0.2792  0.3120
  412loPI   C5A 6587  -0.858   1.149   7.532  0.0192  0.1144  0.0734
  412loPI   C6A 6588  -1.009   0.970   7.175  0.1378  0.0548 -0.0532
  412loPI   C1B 6589  -0.049   0.683   8.731  0.1673  0.1860 -0.0837
  412loPI   C2B 6590  -0.181   1.018   8.482 -0.2383  0.1574 -0.0969
  412loPI   C3B 6591  -0.285   1.015   8.019 -0.2971 -0.1744  0.2813
  412loPI   C4B 6592  -0.435   0.704   7.697 -0.0799 -0.0949 -0.0630
  413loPI    C1 6593  11.023   6.035   9.384  0.2110  0.1307 -0.0531
  413loPI    C2 6594  11.209   6.171   9.712 -0.0140 -0.1843  0.2114
  413loPI    C3 6595  10.861   5.975   9.745 -0.1260 -0.0727 -0.2329
  413loPI   PO4 6596  11.068   6.109   9.208 -0.1113 -0.0459  0.0953
  413loPI   GL1 6597  11.038   6.164   8.815 -0.0463 -0.4574 -0.0506
  413loPI   GL2 6598  10.853   6.513   8.794 -0.1183 -0.1683  0.1900
  413loPI   C1A 6599  11.086   6.079   8.353  0.0090  0.1044  0.3010
  413loPI   C2A 6600  11.145   5.948   7.990  0.0330 -0.2061  0.4185
  413loPI   C3A 6601  11.378   5.783   7.606  0.1458  0.2231 -0.1071
  413loPI   C4A 6602  11.452   5.713   7.106 -0.0371 -0.1524  0.1322
  413loPI   C5A 6603  11.574   5.539   6.766 -0.0976  0.0278  0.0397
  413loPI   C6A 6604  11.623   5.466   6.365  0.2374  0.1739  0.0579
  413loPI   C1B 6605  10.824   6.495   8.464  0.0008  0.2417 -0.3633
  413loPI   C2B 6606  10.916   6.598   8.057 -0.0060 -0.2312 -0.1299
  413loPI   C3B 6607  11.030   6.417   7.689  0.1896  0.3116 -0.2139
  413loPI   C4B 6608  11.073   6.468   7.268 -0.1114  0.0351  0.0058
  414loPI    C1 6609   0.188   2.056   9.447  0.0298 -0.1885 -0.2544
  414loPI    C2 6610   0.517   2.137   9.661  0.0637 -0.2527 -0.2820
  414loPI    C3 6611   0.158   2.131   9.839  0.0178  0.2895 -0.3409
  414loPI   PO4 6612   0.412   1.925   9.187  0.2047 -0.1681  0.0696
  414loPI   GL1 6613   0.300   1.658   8.920  0.2744  0.1521 -0.1017
  414loPI   GL2 6614   0.274   1.313   8.928 -0.1988 -0.0749  0.3711
  414loPI   C1A 6615   0.239   1.939   8.541  0.4042 -0.0352  0.1658
  414loPI   C2A 6616   0.187   1.833   8.049 -0.5407 -0.3094  0.0573
  414loPI   C3A 6617   0.191   1.713   7.554 -0.2104  0.0518 -0.1981
  414loPI   C4A 6618   0.156   1.707   7.139 -0.4925 -0.3240 -0.0012
  414loPI   C5A 6619  -0.136   1.918   6.805 -0.2908  0.0345 -0.0322
  414loPI   C6A 6620  -0.245   2.018   6.398  0.2738  0.1033 -0.1196
  414loPI   C1B 6621   0.379   1.337   8.520 -0.0830 -0.0664 -0.0631
  414loPI   C2B 6622   0.232   1.234   8.013 -0.0012 -0.0784 -0.2344
  414loPI   C3B 6623   0.177   0.928   7.698 -0.3258  0.1538  0.1905
  414loPI   C4B 6624   0.214   0.643   7.318 -0.0605 -0.1530 -0.2133
  415loPI    C1 6625   4.490  17.764   9.109 -0.1336 -0.1297  0.2194
  415loPI    C2 6626   4.327  17.882   9.454 -0.1958  0.1801  0.0871
  415loPI    C3 6627   4.361  18.140   9.150 -0.0100 -0.0499 -0.0910
  415loPI   PO4 6628   4.359  17.523   9.081 -0.1941  0.1987 -0.0948
  415loPI   GL1 6629   4.287  17.266   8.652 -0.0559 -0.0966 -0.0748
  415loPI   GL2 6630   4.008  17.129   8.578  0.1213  0.0243 -0.1728
  415loPI   C1A 6631   4.053  17.527   8.304  0.0693  0.3136  0.2449
  415loPI   C2A 6632   3.742  17.401   7.933 -0.1170 -0.1261 -0.3301
  415loPI   C3A 6633   3.524  17.435   7.461 -0.1388 -0.1276 -0.0244
  415loPI   C4A 6634   3.497  17.034   7.170  0.1714  0.1255  0.0844
  415loPI   C5A 6635   3.147  16.849   6.853  0.0322 -0.2044  0.0910
  415loPI   C6A 6636   2.836  16.644   6.874  0.1594  0.0978  0.0969
  415loPI   C1B 6637   4.081  17.063   8.131  0.1000  0.1051  0.2284
  415loPI   C2B 6638   4.308  16.924   7.724 -0.0646  0.1683  0.0294
  415loPI   C3B 6639   4.478  17.089   7.343  0.2539 -0.1208 -0.1386
  415loPI   C4B 6640   4.417  17.333   6.964 -0.1453  0.0160 -0.2072
  416loPI    C1 6641  16.438   0.339   9.525  0.0599 -0.0224 -0.0032
  416loPI    C2 6642  16.636   0.279   9.868 -0.1148 -0.0979  0.0854
  416loPI    C3 6643  16.416   0.610   9.819 -0.1746 -0.1371  0.0873
  416loPI   PO4 6644  16.681   0.299   9.307 -0.0350 -0.1349 -0.0868
  416loPI   GL1 6645  16.944   0.018   9.101  0.0576 -0.0144 -0.1134
  416loPI   GL2 6646  17.202   0.211   9.157 -0.0348  0.0319 -0.2210
  416loPI   C1A 6647  16.931  -0.094   8.647  0.0218  0.1742 -0.2256
  416loPI   C2A 6648  16.892  -0.123   8.204  0.1966 -0.2635  0.1623
  416loPI   C3A 6649  16.990  -0.082   7.818 -0.0932 -0.0896 -0.2528
  416loPI   C4A 6650  17.049   0.066   7.388  0.0851  0.2050 -0.0525
  416loPI   C5A 6651  17.167   0.379   7.106 -0.2543  0.1111 -0.0777
  416loPI   C6A 6652  17.624   0.519   6.968  0.0917 -0.1102  0.1357
  416loPI   C1B 6653  17.218   0.295   8.770  0.1904 -0.1448  0.2103
  416loPI   C2B 6654  17.288   0.214   8.402  0.2470 -0.1504 -0.0320
  416loPI   C3B 6655  17.097   0.303   8.190  0.0729  0.1677 -0.0548
  416loPI   C4B 6656  17.070   0.441   7.785  0.3191  0.0067  0.2347
  417loPI    C1 6657  12.872   3.165   9.316  0.1767 -0.0777 -0.4412
  417loPI    C2 6658  13.237   3.001   9.319  0.0176 -0.4470  0.0964
  417loPI    C3 6659  12.915   2.775   9.391 -0.2551  0.0084  0.3573
  417loPI   PO4 6660  12.855   3.337   9.003  0.4420 -0.0457 -0.0478
  417loPI   GL1 6661  12.889   2.947   8.686 -0.3821  0.2774  0.3324
  417loPI   GL2 6662  12.773   3.291   8.487 -0.0832  0.0468  0.1515
  417loPI   C1A 6663  13.020   2.655   8.407  0.1308  0.1966 -0.1456
  417loPI   C2A 6664  12.848   2.316   8.235  0.0629 -0.1695 -0.0696
  417loPI   C3A 6665  12.632   2.175   7.878 -0.1267 -0.0044 -0.1461
  417loPI   C4A 6666  12.579   2.016   7.499 -0.0601  0.2649 -0.0015
  417loPI   C5A 6667  12.382   2.150   7.175  0.0746 -0.4098 -0.0169
  417loPI   C6A 6668  12.555   2.470   6.992 -0.1168  0.0999 -0.2355
  417loPI   C1B 6669  12.980   3.216   8.124  0.0326  0.1266  0.0474
  417loPI   C2B 6670  13.031   3.353   7.731 -0.1223 -0.0434 -0.1807
  417loPI   C3B 6671  12.921   3.441   7.284  0.0338  0.1280 -0.1425
  417loPI   C4B 6672  12.737   3.635   6.968 -0.2435 -0.2594 -0.2838
  418loPI    C1 6673  15.034  17.858   9.557  0.0133 -0.2817 -0.0771
  418loPI    C2 6674  15.327  18.052   9.748  0.0062 -0.2974 -0.0503
  418loPI    C3 6675  15.047  17.857   9.957 -0.0413 -0.2560 -0.0753
  418loPI   PO4 6676  15.026  18.042   9.270  0.0030  0.2534  0.0295
  418loPI   GL1 6677  14.986  17.928   8.845  0.3256  0.1592  0.2140
  418loPI   GL2 6678  15.231  17.710   8.815 -0.0014  0.3547  0.0823
  418loPI   C1A 6679  14.846  17.786   8.508  0.1250 -0.1280 -0.0279
  418loPI   C2A 6680  14.610  17.847   8.057  0.0829 -0.2382 -0.3126
  418loPI   C3A 6681  14.767  17.975   7.668  0.3189 -0.3212 -0.0118
  418loPI   C4A 6682  14.957  18.003   7.239 -0.1991  0.0656  0.0007
  418loPI   C5A 6683  15.130  18.036   6.805  0.1561  0.1576 -0.1856
  418loPI   C6A 6684  15.084  18.282   6.361 -0.0160  0.1229  0.1067
  418loPI   C1B 6685  15.404  17.656   8.419  0.2430 -0.1531 -0.1827
  418loPI   C2B 6686  15.559  17.550   7.947  0.1131  0.1171  0.1321
  418loPI   C3B 6687  15.568  17.394   7.547 -0.0258 -0.1516  0.1278
  418loPI   C4B 6688  15.621  17.441   7.140  0.0960 -0.2340  0.2653
  419loPI    C1 6689   9.467  11.644   9.982 -0.1358  0.0874 -0.1014
  419loPI    C2 6690   9.296  11.477  10.302 -0.0940 -0.0169 -0.1330
  419loPI    C3 6691   9.537  11.792  10.347 -0.1930  0.0515 -0.0757
  419loPI   PO4 6692   9.337  11.743   9.747 -0.1868  0.0391 -0.3467
  419loPI   GL1 6693   9.487  11.858   9.306  0.1319  0.0517  0.1862
  419loPI   GL2 6694   9.276  11.581   9.249 -0.0183 -0.0163  0.0354
  419loPI   C1A 6695   9.496  12.061   8.930 -0.0913  0.0175 -0.2467
  419loPI   C2A 6696   9.508  12.162   8.482 -0.1082 -0.0038  0.2651
  419loPI   C3A 6697   9.483  12.403   8.028 -0.0392 -0.0181 -0.3753
  419loPI   C4A 6698   9.425  12.579   7.609 -0.0343 -0.4956 -0.0350
  419loPI   C5A 6699   9.742  12.441   7.311 -0.1205  0.2806 -0.0393
  419loPI   C6A 6700   9.824  11.990   7.206  0.1588  0.0285  0.0770
  419loPI   C1B 6701   9.276  11.442   8.842 -0.2027  0.2455 -0.1103
  419loPI   C2B 6702   9.468  11.592   8.551  0.3215  0.4580  0.2078
  419loPI   C3B 6703   9.506  11.652   8.106 -0.1913  0.0961 -0.2255
  419loPI   C4B 6704   9.583  11.942   7.801  0.2063  0.1044  0.2559
  420loPI    C1 6705   3.928   7.660   9.651  0.0395 -0.0129 -0.1703
  420loPI    C2 6706   3.735   7.801   9.971  0.1144 -0.1341 -0.0706
  420loPI    C3 6707   4.088   7.958   9.865  0.1165 -0.1322 -0.0606
  420loPI   PO4 6708   3.800   7.645   9.447  0.1884 -0.0957 -0.0016
  420loPI   GL1 6709   3.889   7.608   9.016  0.0705  0.3945  0.0871
  420loPI   GL2 6710   4.065   7.957   9.097 -0.0348 -0.0436  0.2734
  420loPI   C1A 6711   3.892   7.613   8.586 -0.2002 -0.0464 -0.4500
  420loPI   C2A 6712   3.974   7.668   8.148 -0.0581  0.2518 -0.2055
  420loPI   C3A 6713   3.960   7.866   7.798  0.3376 -0.1890 -0.2756
  420loPI   C4A 6714   4.015   8.236   7.440  0.0769 -0.2044 -0.2791
  420loPI   C5A 6715   4.283   8.584   7.240 -0.1209 -0.0296  0.0370
  420loPI   C6A 6716   4.534   8.886   7.211  0.3005 -0.0462  0.1339
  420loPI   C1B 6717   3.992   8.106   8.764 -0.2153  0.2176  0.0910
  420loPI   C2B 6718   4.068   8.117   8.404 -0.1360 -0.0070 -0.0890
  420loPI   C3B 6719   4.037   8.285   8.032 -0.0256 -0.2754  0.3891
  420loPI   C4B 6720   4.346   8.399   7.721  0.1171 -0.0467  0.1461
  421loPI    C1 6721  11.691   3.593   9.161 -0.1520 -0.0844  0.0298
  421loPI    C2 6722  11.904   3.468   9.476 -0.1929 -0.1831  0.0188
  421loPI    C3 6723  11.720   3.823   9.486 -0.1021 -0.1370  0.0628
  421loPI   PO4 6724  11.934   3.546   8.958 -0.0751  0.0850  0.0200
  421loPI   GL1 6725  12.015   3.774   8.670  0.0853  0.1385 -0.0939
  421loPI   GL2 6726  12.142   4.089   8.704  0.2524  0.0094  0.0869
  421loPI   C1A 6727  12.291   3.717   8.433  0.0465 -0.1365  0.0369
  421loPI   C2A 6728  12.331   3.796   7.991 -0.2421 -0.0120  0.0092
  421loPI   C3A 6729  12.225   3.993   7.550  0.0815 -0.0690 -0.2647
  421loPI   C4A 6730  12.433   4.098   7.071  0.2720 -0.1247 -0.2200
  421loPI   C5A 6731  12.680   4.432   6.809  0.1800 -0.0130 -0.0129
  421loPI   C6A 6732  12.696   4.810   6.646 -0.2560  0.1289  0.1961
  421loPI   C1B 6733  11.951   4.040   8.206  0.0837  0.0511  0.1591
  421loPI   C2B 6734  11.904   4.250   7.801 -0.1994  0.0945 -0.0954
  421loPI   C3B 6735  12.005   4.411   7.281 -0.1281 -0.0967  0.0950
  421loPI   C4B 6736  12.184   4.565   6.914 -0.0594 -0.1313  0.1312
  422loPI    C1 6737  18.808  12.317   9.257 -0.0540 -0.2166  0.0176
  422loPI    C2 6738  18.967  12.120   9.567  0.1586  0.0355  0.0718
  422loPI    C3 6739  19.198  12.227   9.258 -0.0219 -0.0820 -0.1060
  422loPI   PO4 6740  18.553  12.144   9.103 -0.0078 -0.0043 -0.3047
  422loPI   GL1 6741  18.199  12.081   8.889 -0.1787 -0.0270  0.1065
  422loPI   GL2 6742  18.067  11.800   8.818 -0.1384 -0.0511 -0.1033
  422loPI   C1A 6743  18.393  12.080   8.425 -0.2307  0.4747 -0.0795
  422loPI   C2A 6744  18.461  11.922   8.063 -0.0232 -0.0300  0.2303
  422loPI   C3A 6745  18.431  11.802   7.657  0.0606 -0.3430  0.0990
  422loPI   C4A 6746  18.273  11.671   7.343  0.2844  0.3515 -0.2296
  422loPI   C5A 6747  18.151  11.581   6.908 -0.0791 -0.1922  0.2370
  422loPI   C6A 6748  18.027  11.351   6.551  0.1504 -0.1316  0.1757
  422loPI   C1B 6749  17.913  11.972   8.394  0.0503  0.0495 -0.0722
  422loPI   C2B 6750  17.958  11.920   7.986 -0.4111  0.1937  0.0289
  422loPI   C3B 6751  17.930  11.908   7.617 -0.5323 -0.4894  0.0179
  422loPI   C4B 6752  17.810  11.925   7.216  0.2184  0.2076  0.0584
  423loPI    C1 6753   6.332   6.989   9.270 -0.0582  0.1651  0.1660
  423loPI    C2 6754   6.099   7.074   9.583 -0.2263 -0.0823  0.1117
  423loPI    C3 6755   6.384   6.796   9.616 -0.1649 -0.0237  0.0785
  423loPI   PO4 6756   6.131   6.895   9.034  0.2538  0.3875 -0.0776
  423loPI   GL1 6757   5.894   6.570   8.862 -0.2599 -0.2148  0.5011
  423loPI   GL2 6758   6.126   6.629   8.616 -0.1199 -0.1408 -0.1304
  423loPI   C1A 6759   5.643   6.611   8.555 -0.3175  0.1060 -0.0074
  423loPI   C2A 6760   5.760   6.588   8.147  0.0754 -0.3517  0.1486
  423loPI   C3A 6761   6.005   6.584   7.801 -0.0517 -0.0260 -0.1671
  423loPI   C4A 6762   6.244   6.797   7.523  0.0136  0.1131 -0.0807
  423loPI   C5A 6763   6.126   6.938   7.078  0.1225 -0.3079  0.2408
  423loPI   C6A 6764   5.836   7.027   6.712  0.3421  0.1487  0.0042
  423loPI   C1B 6765   6.160   6.869   8.293 -0.4992  0.2541 -0.2084
  423loPI   C2B 6766   6.349   7.065   7.938 -0.3453  0.1080  0.0896
  423loPI   C3B 6767   6.233   7.278   7.586  0.2042 -0.1352  0.1775
  423loPI   C4B 6768   6.309   7.522   7.211  0.0777  0.1947 -0.1429
  424loPI    C1 6769   2.542  10.847   9.562 -0.0427  0.3127 -0.2824
  424loPI    C2 6770   2.274  11.082   9.743  0.2466  0.2075  0.3084
  424loPI    C3 6771   2.257  10.685   9.792  0.1703  0.1526 -0.1264
  424loPI   PO4 6772   2.526  10.953   9.334  0.1975  0.0480  0.2059
  424loPI   GL1 6773   2.467  10.909   8.965 -0.0988  0.3152 -0.0662
  424loPI   GL2 6774   2.124  10.870   8.923 -0.2379 -0.0806  0.0317
  424loPI   C1A 6775   2.282  10.824   8.429  0.1358  0.3823  0.2004
  424loPI   C2A 6776   1.944  11.077   8.154 -0.0555 -0.1945  0.1858
  424loPI   C3A 6777   1.637  11.394   8.071 -0.0493  0.0665  0.3160
  424loPI   C4A 6778   1.604  11.510   7.672  0.0184 -0.1346  0.1009
  424loPI   C5A 6779   1.456  11.771   7.365  0.3190  0.0993 -0.2249
  424loPI   C6A 6780   1.468  12.088   7.008 -0.1653 -0.0850 -0.1296
  424loPI   C1B 6781   2.363  11.290   8.707  0.2971  0.0560  0.1822
  424loPI   C2B 6782   2.458  11.347   8.323  0.4878  0.2283  0.2204
  424loPI   C3B 6783   2.306  11.184   7.822 -0.2338 -0.2818  0.3117
  424loPI   C4B 6784   1.958  11.140   7.673  0.1436  0.1106 -0.1693
  425loPI    C1 6785   0.197  11.316   9.392 -0.1568  0.0119  0.1147
  425loPI    C2 6786  -0.017  11.380   9.723 -0.0981 -0.1721  0.1896
  425loPI    C3 6787   0.371  11.290   9.751 -0.0937 -0.1913  0.0705
  425loPI   PO4 6788   0.095  11.126   9.260  0.2191 -0.1177  0.1155
  425loPI   GL1 6789   0.449  10.829   8.905 -0.1752 -0.0880  0.0963
  425loPI   GL2 6790   0.311  11.071   8.705  0.1084 -0.0263 -0.7846
  425loPI   C1A 6791   0.379  10.601   8.543  0.0541 -0.5211 -0.0747
  425loPI   C2A 6792   0.304  10.622   8.165  0.3941  0.0775 -0.0673
  425loPI   C3A 6793   0.288  10.616   7.697 -0.0521 -0.0683  0.2356
  425loPI   C4A 6794   0.472  10.654   7.223 -0.1470  0.4414 -0.0244
  425loPI   C5A 6795   0.502  10.925   6.903 -0.1380 -0.1342  0.1493
  425loPI   C6A 6796   0.251  11.266   6.695 -0.2012  0.0241  0.3085
  425loPI   C1B 6797   0.235  11.302   8.374  0.2382 -0.0718  0.0241
  425loPI   C2B 6798   0.141  11.371   7.903 -0.1290 -0.1427 -0.1863
  425loPI   C3B 6799   0.293  11.556   7.606 -0.1051  0.2283  0.0556
  425loPI   C4B 6800   0.446  11.528   7.151 -0.1532  0.0337  0.0731
  426loPI    C1 6801  14.112   5.826   9.693 -0.1782  0.0193 -0.3675
  426loPI    C2 6802  13.753   5.677   9.599 -0.2019 -0.1452 -0.0284
  426loPI    C3 6803  14.021   5.449   9.790  0.0063  0.0428 -0.0920
  426loPI   PO4 6804  14.272   5.852   9.472  0.1364 -0.2195 -0.3716
  426loPI   GL1 6805  14.270   6.093   9.061 -0.2704 -0.1009  0.0751
  426loPI   GL2 6806  14.598   6.120   8.958  0.2030  0.1008  0.2220
  426loPI   C1A 6807  14.246   6.553   8.835  0.2629 -0.0544  0.0223
  426loPI   C2A 6808  14.302   6.626   8.398 -0.0419 -0.2324 -0.0659
  426loPI   C3A 6809  14.364   6.465   7.952  0.2395  0.1661 -0.2350
  426loPI   C4A 6810  14.388   6.371   7.535 -0.0700  0.0981  0.0388
  426loPI   C5A 6811  14.483   6.246   7.161 -0.1441 -0.1952  0.1146
  426loPI   C6A 6812  14.495   6.211   6.651  0.1138  0.2607  0.2435
  426loPI   C1B 6813  14.553   6.126   8.553  0.0438  0.1306 -0.1997
  426loPI   C2B 6814  14.513   6.006   8.148  0.0821 -0.2085  0.0416
  426loPI   C3B 6815  14.687   5.999   7.662  0.2395  0.2607 -0.0139
  426loPI   C4B 6816  15.025   6.073   7.496  0.0222 -0.0979  0.1731
  427loPI    C1 6817   2.333   6.716   9.634  0.0245 -0.2932 -0.0209
  427loPI    C2 6818   2.229   6.388   9.839 -0.1383 -0.0991  0.2125
  427loPI    C3 6819   2.510   6.634   9.983  0.0537 -0.1848 -0.0099
  427loPI   PO4 6820   2.337   6.647   9.361  0.0269  0.3634  0.0061
  427loPI   GL1 6821   2.420   6.676   8.865  0.4064  0.0104  0.1224
  427loPI   GL2 6822   2.445   6.363   8.936 -0.3561  0.2524  0.1399
  427loPI   C1A 6823   2.328   6.646   8.411 -0.1388  0.0801 -0.2556
  427loPI   C2A 6824   2.104   6.800   7.968 -0.3990  0.3609  0.0292
  427loPI   C3A 6825   2.102   6.977   7.602 -0.2393 -0.2949  0.1410
  427loPI   C4A 6826   2.066   7.275   7.324 -0.2062 -0.0572  0.0131
  427loPI   C5A 6827   2.256   7.233   7.000 -0.3022  0.0075 -0.2285
  427loPI   C6A 6828   2.091   7.110   6.674 -0.0203  0.0046  0.1664
  427loPI   C1B 6829   2.462   6.156   8.503  0.2307 -0.0499  0.0457
  427loPI   C2B 6830   2.427   6.223   8.031  0.2265  0.0383 -0.0609
  427loPI   C3B 6831   2.587   6.151   7.571 -0.1072 -0.0391  0.1626
  427loPI   C4B 6832   2.735   5.791   7.301 -0.0623  0.0683 -0.0706
  428loPI    C1 6833  17.835  19.546   9.829 -0.2162 -0.3474 -0.1725
  428loPI    C2 6834  17.504  19.541  10.054 -0.1688  0.3027 -0.0661
  428loPI    C3 6835  17.861  19.473  10.221 -0.1921  0.1659 -0.0706
  428loPI   PO4 6836  17.828  19.711   9.629  0.2252 -0.3342  0.0995
  428loPI   GL1 6837  17.710  19.671   9.121  0.2869 -0.0339  0.0042
  428loPI   GL2 6838  17.915  19.897   9.130  0.1949  0.4245 -0.2692
  428loPI   C1A 6839  17.397  19.364   9.003  0.3454 -0.1288 -0.1343
  428loPI   C2A 6840  17.104  19.104   8.769 -0.0673  0.0642 -0.0528
  428loPI   C3A 6841  17.062  19.050   8.358  0.0902 -0.0719  0.2076
  428loPI   C4A 6842  16.987  19.064   7.940 -0.0263 -0.0668 -0.1932
  428loPI   C5A 6843  17.001  19.123   7.456 -0.2704  0.0542 -0.2982
  428loPI   C6A 6844  17.015  18.828   7.184  0.2099  0.2192 -0.1761
  428loPI   C1B 6845  17.807  19.865   8.614  0.1818  0.2822  0.3289
  428loPI   C2B 6846  17.756  19.833   8.122  0.3670  0.2536  0.2945
  428loPI   C3B 6847  17.535  19.962   7.708 -0.2482 -0.2361  0.1432
  428loPI   C4B 6848  17.698  20.303   7.467  0.2901 -0.1032  0.1637
  429loPI    C1 6849   8.868   9.501   9.379  0.0501  0.1684  0.1084
  429loPI    C2 6850   8.941   9.475   9.771 -0.2232  0.0585  0.1541
  429loPI    C3 6851   8.591   9.350   9.624  0.0159 -0.2435 -0.1745
  429loPI   PO4 6852   9.109   9.426   9.290  0.1645 -0.1708 -0.0469
  429loPI   GL1 6853   9.212   9.320   8.866  0.1163 -0.0502 -0.3969
  429loPI   GL2 6854   9.316   9.142   8.635 -0.0532 -0.2805 -0.1197
  429loPI   C1A 6855   8.861   9.356   8.546  0.1567 -0.1375  0.2234
  429loPI   C2A 6856   8.792   9.293   8.078  0.1217 -0.0645  0.4954
  429loPI   C3A 6857   9.018   9.300   7.706  0.1853 -0.1133 -0.1479
  429loPI   C4A 6858   9.198   9.233   7.275 -0.0194  0.1817  0.1692
  429loPI   C5A 6859   9.042   9.016   6.864  0.1408  0.1556 -0.0236
  429loPI   C6A 6860   9.159   8.890   6.448  0.0816  0.0076  0.0051
  429loPI   C1B 6861   9.260   9.302   8.204 -0.0615 -0.4080 -0.0201
  429loPI   C2B 6862   9.462   9.504   7.742 -0.2678 -0.0973 -0.1592
  429loPI   C3B 6863   9.416   9.768   7.404 -0.0017 -0.0477  0.2101
  429loPI   C4B 6864   9.414  10.049   7.111 -0.1869  0.0272  0.0838
  430loPI    C1 6865   1.915  15.219   9.098  0.0483 -0.1656 -0.0548
  430loPI    C2 6866   1.788  15.044   8.762 -0.1847 -0.0902 -0.0080
  430loPI    C3 6867   1.970  14.826   9.045  0.1647 -0.1238 -0.2518
  430loPI   PO4 6868   1.644  15.476   9.058  0.4263  0.1168  0.0600
  430loPI   GL1 6869   1.439  15.600   8.673 -0.5039 -0.0914 -0.1956
  430loPI   GL2 6870   1.612  15.437   8.517 -0.0173 -0.3864 -0.0103
  430loPI   C1A 6871   1.436  15.628   8.161  0.2369 -0.4600 -0.0228
  430loPI   C2A 6872   1.365  15.709   7.689 -0.3624 -0.0397 -0.0889
  430loPI   C3A 6873   1.395  15.946   7.250  0.1387 -0.1021 -0.1578
  430loPI   C4A 6874   1.084  16.106   7.007 -0.3679  0.0480  0.0040
  430loPI   C5A 6875   0.620  16.008   6.930  0.0445 -0.1293  0.1047
  430loPI   C6A 6876   0.494  15.618   6.645 -0.2890  0.1760 -0.2134
  430loPI   C1B 6877   1.856  15.339   8.174 -0.1725  0.0937 -0.3177
  430loPI   C2B 6878   2.085  15.294   7.798  0.1603  0.2584  0.2518
  430loPI   C3B 6879   2.315  15.329   7.398  0.0743  0.6524  0.1292
  430loPI   C4B 6880   2.593  14.995   7.293  0.1068 -0.4939  0.2575
  431loPI    C1 6881   5.627   7.276   9.758 -0.0296  0.0373 -0.0862
  431loPI    C2 6882   5.316   7.404   9.975  0.0334  0.1065 -0.0361
  431loPI    C3 6883   5.631   7.236  10.156 -0.1070 -0.2471 -0.1116
  431loPI   PO4 6884   5.540   7.473   9.543  0.2964 -0.1637  0.0126
  431loPI   GL1 6885   5.501   7.624   9.115 -0.2534 -0.0430 -0.0767
  431loPI   GL2 6886   5.774   7.661   8.873  0.0660  0.0873 -0.0374
  431loPI   C1A 6887   5.371   7.404   8.728  0.0773 -0.2430 -0.2534
  431loPI   C2A 6888   5.274   7.447   8.332 -0.1786  0.0789  0.2120
  431loPI   C3A 6889   5.400   7.460   7.906 -0.1517  0.3513 -0.1271
  431loPI   C4A 6890   5.276   7.594   7.513 -0.2089  0.1024  0.0179
  431loPI   C5A 6891   5.364   7.650   7.136  0.1838  0.1345  0.1558
  431loPI   C6A 6892   5.623   7.567   6.774  0.0169 -0.0033  0.0401
  431loPI   C1B 6893   5.809   7.758   8.554  0.0593 -0.4490 -0.0414
  431loPI   C2B 6894   5.677   7.720   8.211  0.1319  0.1781  0.1045
  431loPI   C3B 6895   5.636   7.889   7.833  0.0132  0.0007 -0.0866
  431loPI   C4B 6896   5.606   8.000   7.410 -0.0898  0.1592 -0.2184
  432loPI    C1 6897   8.619   7.317   9.503 -0.1668  0.1662  0.0814
  432loPI    C2 6898   8.545   6.982   9.709 -0.1813  0.1430  0.0386
  432loPI    C3 6899   8.733   7.288   9.885  0.0793  0.0091 -0.0011
  432loPI   PO4 6900   8.570   7.303   9.182  0.0217 -0.4038  0.1810
  432loPI   GL1 6901   8.735   7.543   8.844  0.2296  0.1251  0.1110
  432loPI   GL2 6902   8.844   7.860   8.826 -0.2931 -0.0974  0.0434
  432loPI   C1A 6903   8.755   7.392   8.337 -0.5059 -0.3638 -0.2012
  432loPI   C2A 6904   8.742   7.338   7.923  0.0376  0.0630 -0.0425
  432loPI   C3A 6905   8.724   7.503   7.451 -0.2295 -0.0965 -0.0304
  432loPI   C4A 6906   8.652   7.774   7.171  0.1931  0.0669  0.1770
  432loPI   C5A 6907   8.565   8.036   6.731 -0.0412 -0.0475 -0.0427
  432loPI   C6A 6908   8.544   8.052   6.255 -0.2181 -0.0239 -0.1909
  432loPI   C1B 6909   8.991   7.900   8.415  0.1615 -0.3546 -0.0613
  432loPI   C2B 6910   9.094   7.868   8.104 -0.0155  0.1198  0.2957
  432loPI   C3B 6911   9.089   7.768   7.699 -0.2529  0.1279  0.0171
  432loPI   C4B 6912   9.191   7.782   7.280 -0.1619 -0.0075 -0.1280
  433loPI    C1 6913  13.896  12.232  10.460 -0.1440 -0.0773  0.2948
  433loPI    C2 6914  13.674  12.531  10.314  0.1300 -0.0215 -0.0208
  433loPI    C3 6915  13.810  12.547  10.690 -0.1567  0.0773  0.0813
  433loPI   PO4 6916  14.137  12.167  10.233  0.1616 -0.0085 -0.1599
  433loPI   GL1 6917  14.046  12.043   9.743  0.1852  0.0526  0.2054
  433loPI   GL2 6918  13.832  11.709   9.640 -0.3407 -0.0317  0.3458
  433loPI   C1A 6919  14.048  12.343   9.398  0.0181  0.0083  0.0933
  433loPI   C2A 6920  13.858  12.475   9.005 -0.1661  0.0033 -0.0477
  433loPI   C3A 6921  13.807  12.510   8.638  0.0854 -0.0989 -0.2468
  433loPI   C4A 6922  13.681  12.629   8.204 -0.3498  0.0133 -0.0397
  433loPI   C5A 6923  13.419  12.400   7.826  0.2067  0.1982  0.0956
  433loPI   C6A 6924  13.325  12.209   7.460 -0.0492  0.0381 -0.0367
  433loPI   C1B 6925  13.912  11.877   9.245 -0.2137 -0.4092 -0.3584
  433loPI   C2B 6926  13.845  11.985   8.882 -0.3657 -0.1054 -0.0464
  433loPI   C3B 6927  13.848  11.882   8.406 -0.0206 -0.1652  0.0666
  433loPI   C4B 6928  13.831  12.105   8.162  0.1399 -0.0167  0.2298
  434loPI    C1 6929   3.618   1.265   8.978  0.0777  0.1711 -0.2961
  434loPI    C2 6930   3.741   1.486   9.289 -0.1187  0.0420 -0.1244
  434loPI    C3 6931   4.003   1.368   9.011  0.1118 -0.0696  0.1358
  434loPI   PO4 6932   3.427   1.322   8.888  0.1308 -0.1844  0.4575
  434loPI   GL1 6933   3.357   1.641   8.515  0.0424  0.0136  0.2784
  434loPI   GL2 6934   3.168   1.505   8.376 -0.0792  0.0982 -0.0464
  434loPI   C1A 6935   3.596   1.642   8.178 -0.0789 -0.0507  0.2576
  434loPI   C2A 6936   3.617   1.533   7.717  0.2288 -0.2980  0.0656
  434loPI   C3A 6937   3.550   1.671   7.262 -0.0680  0.1147  0.2333
  434loPI   C4A 6938   3.358   1.437   6.863 -0.3441 -0.0357  0.1845
  434loPI   C5A 6939   3.132   1.036   6.584  0.0959 -0.2634 -0.0674
  434loPI   C6A 6940   3.024   0.543   6.474 -0.2345 -0.1334 -0.0403
  434loPI   C1B 6941   3.103   1.539   7.977 -0.0652 -0.0152  0.2032
  434loPI   C2B 6942   3.117   1.704   7.552  0.0119 -0.0924 -0.0905
  434loPI   C3B 6943   3.099   1.962   7.147  0.2063 -0.0059 -0.1143
  434loPI   C4B 6944   3.166   2.097   6.738  0.0501  0.0360  0.0000
  435loPI    C1 6945   4.613  10.169   9.335 -0.0949  0.0795  0.1449
  435loPI    C2 6946   4.898   9.986   9.547 -0.0615  0.1089  0.1253
  435loPI    C3 6947   4.516   9.965   9.665 -0.0810 -0.1216  0.0265
  435loPI   PO4 6948   4.666  10.250   9.136 -0.2496  0.1011  0.1706
  435loPI   GL1 6949   4.562  10.240   8.749  0.1443 -0.0685  0.0069
  435loPI   GL2 6950   4.321  10.078   8.584  0.3583  0.1555  0.1958
  435loPI   C1A 6951   4.925  10.138   8.370 -0.1865 -0.2823 -0.0637
  435loPI   C2A 6952   4.913  10.365   8.051 -0.1073 -0.0457  0.1227
  435loPI   C3A 6953   4.732  10.639   7.678  0.0129 -0.1294 -0.0540
  435loPI   C4A 6954   4.533  10.805   7.285  0.1171 -0.1632 -0.2417
  435loPI   C5A 6955   4.494  10.880   6.876 -0.0923 -0.1098 -0.1405
  435loPI   C6A 6956   4.397  10.914   6.510 -0.0397 -0.1707 -0.1565
  435loPI   C1B 6957   4.197   9.910   8.196  0.1795  0.1608 -0.0876
  435loPI   C2B 6958   4.030   9.917   7.709 -0.4510 -0.2765 -0.0737
  435loPI   C3B 6959   3.886   9.925   7.360  0.1804  0.1596 -0.1790
  435loPI   C4B 6960   3.796   9.663   6.970  0.1113  0.4307 -0.1038
  436loPI    C1 6961  11.102   3.372   9.418 -0.0558 -0.1191  0.0629
  436loPI    C2 6962  11.477   3.258   9.498 -0.0776 -0.0874  0.2135
  436loPI    C3 6963  11.318   3.573   9.687 -0.2707 -0.2636  0.3495
  436loPI   PO4 6964  11.180   3.357   9.040 -0.0736  0.2269  0.1636
  436loPI   GL1 6965  11.192   3.377   8.633  0.1135 -0.1424  0.2819
  436loPI   GL2 6966  11.311   3.033   8.624  0.0248  0.2323  0.0172
  436loPI   C1A 6967  11.238   3.600   8.171 -0.2804  0.4162 -0.1389
  436loPI   C2A 6968  11.085   3.687   7.735 -0.2279  0.1021 -0.2392
  436loPI   C3A 6969  11.115   3.901   7.387  0.2581  0.0695  0.0974
  436loPI   C4A 6970  10.937   4.104   7.056  0.4132 -0.1022 -0.1075
  436loPI   C5A 6971  10.921   4.465   6.865  0.2690 -0.1107  0.1401
  436loPI   C6A 6972  10.941   4.749   6.563 -0.0252  0.0289  0.1751
  436loPI   C1B 6973  11.134   3.023   8.273  0.1113 -0.0941  0.0768
  436loPI   C2B 6974  11.251   3.179   7.790 -0.1579 -0.0571 -0.0144
  436loPI   C3B 6975  11.337   3.437   7.390 -0.0876  0.0183  0.2872
  436loPI   C4B 6976  11.359   3.744   7.019 -0.0272  0.1917 -0.1496
  437loPI    C1 6977   9.474   8.870   9.212  0.0833  0.0112 -0.1690
  437loPI    C2 6978   9.384   8.678   9.551 -0.1828  0.0644 -0.2076
  437loPI    C3 6979   9.482   9.066   9.561 -0.1121  0.0462 -0.1833
  437loPI   PO4 6980   9.252   8.793   9.088 -0.0430 -0.0479  0.0555
  437loPI   GL1 6981   8.889   8.681   8.891  0.1108  0.0646  0.2461
  437loPI   GL2 6982   8.478   8.759   8.716 -0.0138 -0.0522  0.1582
  437loPI   C1A 6983   9.025   8.766   8.440  0.0170  0.1197  0.1384
  437loPI   C2A 6984   9.156   8.802   8.079 -0.0616  0.3299  0.2166
  437loPI   C3A 6985   9.083   8.853   7.742 -0.1404  0.0883 -0.0965
  437loPI   C4A 6986   9.208   8.628   7.532  0.1126 -0.2071 -0.2465
  437loPI   C5A 6987   9.195   8.685   7.200 -0.0143  0.0322  0.1930
  437loPI   C6A 6988   9.370   8.459   6.851  0.1083 -0.0628  0.0527
  437loPI   C1B 6989   8.594   8.900   8.305 -0.1341  0.1732  0.2204
  437loPI   C2B 6990   8.507   8.881   7.855 -0.1117 -0.2511 -0.0997
  437loPI   C3B 6991   8.653   8.734   7.436 -0.4371  0.1843  0.0065
  437loPI   C4B 6992   8.701   8.567   7.045  0.0067 -0.0690  0.2806
  438loPI    C1 6993  19.050   7.232   9.632 -0.1609  0.0124 -0.2025
  438loPI    C2 6994  19.108   7.243  10.027 -0.1774  0.1890 -0.2043
  438loPI    C3 6995  18.745   7.163   9.880 -0.1447  0.0014 -0.1854
  438loPI   PO4 6996  19.341   7.252   9.587  0.0230  0.1329 -0.0042
  438loPI   GL1 6997  19.345   7.080   9.146 -0.4259  0.0291  0.0098
  438loPI   GL2 6998  19.381   6.798   9.011  0.2608  0.0629  0.2261
  438loPI   C1A 6999  18.928   7.144   9.063  0.1859  0.3038 -0.2191
  438loPI   C2A 7000  18.725   7.165   8.722 -0.4789  0.1702 -0.3778
  438loPI   C3A 7001  18.830   7.195   8.283  0.1163  0.4613  0.2893
  438loPI   C4A 7002  19.097   7.369   8.093 -0.2028  0.0088 -0.4386
  438loPI   C5A 7003  19.224   7.491   7.717  0.0806 -0.0926 -0.1295
  438loPI   C6A 7004  19.285   7.434   7.253  0.3052  0.0348  0.1870
  438loPI   C1B 7005  19.235   6.972   8.615  0.3084 -0.0350 -0.0216
  438loPI   C2B 7006  19.211   6.844   8.306  0.1479  0.1520  0.0762
  438loPI   C3B 7007  19.241   6.941   7.798 -0.0700 -0.1583  0.0558
  438loPI   C4B 7008  19.293   6.888   7.290  0.0563  0.0529  0.1157
  439loPI    C1 7009   9.665   3.127   9.345  0.2395  0.1740 -0.2459
  439loPI    C2 7010   9.955   3.120   9.621 -0.0844  0.1487  0.1030
  439loPI    C3 7011   9.591   3.257   9.717 -0.2518 -0.0216 -0.2666
  439loPI   PO4 7012   9.807   3.099   9.096 -0.2554  0.0224  0.3850
  439loPI   GL1 7013  10.186   3.066   8.727 -0.4326 -0.1164  0.2734
  439loPI   GL2 7014  10.123   2.769   8.784 -0.1352  0.0259 -0.0252
  439loPI   C1A 7015  10.264   3.177   8.315 -0.5534 -0.0409  0.1026
  439loPI   C2A 7016  10.295   3.241   7.848  0.1422  0.2631 -0.1226
  439loPI   C3A 7017  10.609   2.964   7.474 -0.0040  0.2390  0.6259
  439loPI   C4A 7018  11.029   2.987   7.381 -0.1795 -0.1535  0.1643
  439loPI   C5A 7019  11.402   2.935   7.351 -0.2683  0.1212 -0.1119
  439loPI   C6A 7020  11.790   3.190   7.445 -0.2893  0.0480 -0.0344
  439loPI   C1B 7021   9.957   2.475   8.524 -0.0863 -0.4597  0.3704
  439loPI   C2B 7022   9.547   2.432   8.342  0.0850  0.2278  0.1602
  439loPI   C3B 7023   9.436   2.122   8.043 -0.2299  0.0982  0.1156
  439loPI   C4B 7024   9.241   1.942   7.704 -0.3371  0.4325  0.0486
  440loPI    C1 7025  14.487  15.348   9.658 -0.3466  0.0467 -0.0839
  440loPI    C2 7026  14.735  15.229   9.948 -0.2124  0.0857 -0.1814
  440loPI    C3 7027  14.339  15.207  10.001 -0.1887  0.0630 -0.0081
  440loPI   PO4 7028  14.550  15.566   9.595  0.2069  0.1356  0.0103
  440loPI   GL1 7029  14.537  15.804   9.244  0.3269  0.0363 -0.0093
  440loPI   GL2 7030  14.210  15.847   9.239 -0.2976 -0.0265  0.2667
  440loPI   C1A 7031  14.440  15.779   8.813  0.0825  0.2586  0.0125
  440loPI   C2A 7032  14.452  15.606   8.449 -0.0268  0.0287 -0.0673
  440loPI   C3A 7033  14.521  15.580   7.933 -0.3024 -0.2219 -0.1752
  440loPI   C4A 7034  14.768  15.635   7.509 -0.0468 -0.2240 -0.1103
  440loPI   C5A 7035  14.714  15.790   7.085  0.0489 -0.2938 -0.1067
  440loPI   C6A 7036  14.480  15.997   6.847 -0.1679  0.0623  0.3000
  440loPI   C1B 7037  13.953  15.876   8.833  0.1532  0.1848 -0.1501
  440loPI   C2B 7038  14.075  15.922   8.424  0.1721 -0.1399 -0.2390
  440loPI   C3B 7039  14.037  15.663   8.159 -0.0630  0.1152 -0.0255
  440loPI   C4B 7040  13.978  15.401   7.841 -0.4457 -0.2986 -0.2324
  441loPI    C1 7041   4.310  11.178  10.104  0.1261  0.0108 -0.1223
  441loPI    C2 7042   4.295  10.830   9.907 -0.0758 -0.0972  0.0799
  441loPI    C3 7043   4.459  10.848  10.272 -0.2300 -0.0194  0.1467
  441loPI   PO4 7044   4.434  11.388   9.859  0.2760  0.2461 -0.0728
  441loPI   GL1 7045   4.500  11.565   9.474  0.0595  0.0598 -0.1283
  441loPI   GL2 7046   4.525  11.909   9.303  0.1164  0.2203  0.2169
  441loPI   C1A 7047   4.386  11.421   9.036 -0.5125  0.1291 -0.0386
  441loPI   C2A 7048   4.104  11.586   8.726  0.3123 -0.3041 -0.0395
  441loPI   C3A 7049   3.915  11.438   8.279 -0.1435  0.1270 -0.1001
  441loPI   C4A 7050   3.822  11.413   7.898 -0.0155  0.1263  0.0452
  441loPI   C5A 7051   3.381  11.417   7.773 -0.0397  0.2517  0.0658
  441loPI   C6A 7052   3.109  11.158   7.949 -0.1372 -0.2638  0.0647
  441loPI   C1B 7053   4.771  11.957   8.956  0.4390  0.2503 -0.1122
  441loPI   C2B 7054   4.906  11.954   8.551  0.2097  0.1146  0.0182
  441loPI   C3B 7055   4.833  12.202   8.172  0.1040 -0.2936  0.1577
  441loPI   C4B 7056   4.874  12.598   7.988  0.0788  0.1128  0.2160
  442loPI    C1 7057   0.014   0.394   9.487 -0.1799 -0.2635  0.2385
  442loPI    C2 7058   0.383   0.302   9.365 -0.2362  0.0443 -0.1854
  442loPI    C3 7059   0.298   0.311   9.755  0.2896  0.2861 -0.0674
  442loPI   PO4 7060  -0.229   0.265   9.342 -0.2702 -0.3055 -0.0012
  442loPI   GL1 7061  -0.452   0.244   9.045 -0.1816 -0.0247 -0.1856
  442loPI   GL2 7062  -0.586   0.487   9.066  0.0024 -0.3582  0.2040
  442loPI   C1A 7063  -0.325   0.129   8.552  0.2139  0.0558  0.1468
  442loPI   C2A 7064  -0.497  -0.158   8.201 -0.0903  0.0193  0.1544
  442loPI   C3A 7065  -0.464  -0.223   7.781  0.0342 -0.0293  0.4282
  442loPI   C4A 7066  -0.557  -0.289   7.405 -0.0437 -0.2256  0.0929
  442loPI   C5A 7067  -0.912  -0.373   7.379 -0.3238  0.2130 -0.6069
  442loPI   C6A 7068  -1.158  -0.166   7.074 -0.3240  0.1587  0.0814
  442loPI   C1B 7069  -0.530   0.709   8.661  0.2532  0.2675 -0.0426
  442loPI   C2B 7070  -0.295   0.540   8.267  0.2423 -0.1524  0.1931
  442loPI   C3B 7071  -0.095   0.196   8.143  0.0542  0.0115 -0.0267
  442loPI   C4B 7072   0.062  -0.170   8.333 -0.0551 -0.0055  0.3929
  443loPI    C1 7073   2.740  15.474   9.817  0.0001  0.0978 -0.1091
  443loPI    C2 7074   2.875  15.829   9.940 -0.0836  0.0807  0.0343
  443loPI    C3 7075   2.843  15.526  10.200 -0.0132 -0.0321 -0.0871
  443loPI   PO4 7076   2.731  15.552   9.523  0.0744 -0.3982  0.0748
  443loPI   GL1 7077   2.831  15.462   9.154 -0.2366  0.2260 -0.2124
  443loPI   GL2 7078   2.766  15.699   8.992 -0.0583 -0.1644 -0.1589
  443loPI   C1A 7079   3.201  15.528   8.843 -0.1208  0.4403 -0.3792
  443loPI   C2A 7080   3.304  15.435   8.468 -0.1911  0.0495 -0.2028
  443loPI   C3A 7081   3.334  15.421   7.970  0.3064  0.0563  0.1453
  443loPI   C4A 7082   3.345  15.588   7.563  0.0358 -0.0100  0.2011
  443loPI   C5A 7083   3.153  15.864   7.414  0.0187  0.3320 -0.0541
  443loPI   C6A 7084   3.223  16.208   7.170  0.1244 -0.1208  0.2075
  443loPI   C1B 7085   2.854  15.652   8.559  0.0127  0.3033 -0.2273
  443loPI   C2B 7086   2.902  15.525   8.166  0.0375 -0.1342  0.2505
  443loPI   C3B 7087   2.987  15.856   7.941 -0.3516  0.0825  0.1522
  443loPI   C4B 7088   2.847  16.139   7.780 -0.1609 -0.1238  0.0356
  444loPI    C1 7089   3.762   5.314   9.815  0.0888  0.0387 -0.0285
  444loPI    C2 7090   4.117   5.330   9.999  0.0107 -0.2365  0.1526
  444loPI    C3 7091   3.781   5.311  10.214 -0.0910 -0.4051 -0.0177
  444loPI   PO4 7092   3.784   5.449   9.638  0.0683 -0.1549  0.2410
  444loPI   GL1 7093   3.658   5.380   9.157 -0.0203  0.1410 -0.0273
  444loPI   GL2 7094   3.449   5.623   9.033 -0.2202 -0.2645  0.1075
  444loPI   C1A 7095   3.513   5.135   8.745  0.1210 -0.2345  0.0576
  444loPI   C2A 7096   3.453   5.247   8.313  0.0755  0.2152  0.0479
  444loPI   C3A 7097   3.492   5.319   7.949  0.2979 -0.1945  0.1846
  444loPI   C4A 7098   3.617   5.623   7.642 -0.3014 -0.3199 -0.0816
  444loPI   C5A 7099   3.670   5.542   7.159  0.1232  0.1490 -0.0108
  444loPI   C6A 7100   3.662   5.161   6.899 -0.0601  0.1242 -0.2677
  444loPI   C1B 7101   3.606   5.578   8.569  0.0070 -0.2977 -0.0692
  444loPI   C2B 7102   3.714   5.706   8.113  0.3052  0.0317 -0.0415
  444loPI   C3B 7103   4.039   5.852   7.876  0.0393 -0.0596  0.0934
  444loPI   C4B 7104   4.001   5.965   7.346 -0.0121  0.2352 -0.0542
  445loPI    C1 7105   0.619  16.866   9.851 -0.1781  0.2495 -0.3926
  445loPI    C2 7106   0.916  17.131   9.813 -0.0246  0.1084 -0.2014
  445loPI    C3 7107   0.987  16.775   9.981 -0.3175  0.0981 -0.0942
  445loPI   PO4 7108   0.528  16.821   9.659 -0.3450  0.0959  0.1248
  445loPI   GL1 7109   0.159  16.904   9.510  0.0059 -0.2873 -0.2163
  445loPI   GL2 7110  -0.096  16.761   9.484  0.2573 -0.2719 -0.3226
  445loPI   C1A 7111   0.089  16.938   9.058  0.1113  0.3046 -0.1987
  445loPI   C2A 7112  -0.153  16.936   8.680  0.1797  0.0622 -0.0886
  445loPI   C3A 7113   0.054  16.983   8.340 -0.0653  0.0738 -0.1160
  445loPI   C4A 7114   0.048  17.082   7.963  0.0548  0.5806  0.1401
  445loPI   C5A 7115  -0.019  17.035   7.499  0.0483  0.5492  0.2755
  445loPI   C6A 7116  -0.152  17.113   7.125  0.0488 -0.1900 -0.1863
  445loPI   C1B 7117  -0.220  16.564   9.195  0.0176  0.0967 -0.3781
  445loPI   C2B 7118  -0.218  16.381   8.787 -0.0466 -0.2071 -0.1083
  445loPI   C3B 7119  -0.329  16.460   8.330 -0.0241 -0.2153 -0.0104
  445loPI   C4B 7120  -0.281  16.688   7.940 -0.1462  0.1333  0.2604
  446loPI    C1 7121  13.289   7.728   9.734  0.1209  0.1216  0.0300
  446loPI    C2 7122  13.256   7.825  10.121 -0.2087  0.1962 -0.0140
  446loPI    C3 7123  13.261   7.440  10.011  0.2069  0.1677  0.0871
  446loPI   PO4 7124  13.191   7.867   9.636  0.1413 -0.0103 -0.0440
  446loPI   GL1 7125  13.059   7.766   9.206  0.1498  0.0616 -0.0845
  446loPI   GL2 7126  13.366   7.682   9.099 -0.1905 -0.1645 -0.3071
  446loPI   C1A 7127  13.100   8.002   8.817 -0.1368 -0.1145  0.1247
  446loPI   C2A 7128  13.184   8.168   8.370 -0.1261  0.0103 -0.2699
  446loPI   C3A 7129  13.091   8.133   7.910  0.0128 -0.0356 -0.2616
  446loPI   C4A 7130  12.946   7.929   7.581 -0.1035 -0.1978 -0.0579
  446loPI   C5A 7131  12.764   7.861   7.148  0.1050  0.1216  0.1138
  446loPI   C6A 7132  13.028   7.963   6.707 -0.1073  0.1017  0.1313
  446loPI   C1B 7133  13.525   7.647   8.793  0.0878 -0.1978  0.3116
  446loPI   C2B 7134  13.906   7.759   8.622  0.1647  0.3588 -0.1289
  446loPI   C3B 7135  13.959   7.761   8.252  0.0860  0.1677 -0.0002
  446loPI   C4B 7136  14.001   7.870   7.815 -0.1243 -0.3620  0.1798
  447loPI    C1 7137  16.406   3.588   9.309  0.0615  0.1145  0.1324
  447loPI    C2 7138  16.016   3.672   9.328 -0.0415 -0.3114  0.0142
  447loPI    C3 7139  16.214   3.565   9.659  0.0368  0.1413  0.1206
  447loPI   PO4 7140  16.412   3.386   9.159  0.0574  0.0540  0.1636
  447loPI   GL1 7141  16.542   3.416   8.681 -0.0286  0.1599  0.0989
  447loPI   GL2 7142  16.850   3.418   8.945  0.1894  0.0142  0.2258
  447loPI   C1A 7143  16.459   3.273   8.260  0.0837 -0.1574 -0.3046
  447loPI   C2A 7144  16.199   2.953   8.194 -0.0639  0.2224  0.0345
  447loPI   C3A 7145  15.881   2.741   7.840 -0.0957  0.2052  0.5714
  447loPI   C4A 7146  15.913   2.672   7.369  0.4370  0.2202  0.3098
  447loPI   C5A 7147  15.806   2.957   6.977 -0.0134 -0.0200 -0.0341
  447loPI   C6A 7148  15.822   3.086   6.559 -0.2582 -0.3177 -0.0267
  447loPI   C1B 7149  16.903   3.777   8.613 -0.1089  0.2494  0.2475
  447loPI   C2B 7150  17.235   3.955   8.253  0.1700 -0.0780  0.3519
  447loPI   C3B 7151  17.089   3.963   7.892 -0.0626 -0.1095 -0.0023
  447loPI   C4B 7152  16.804   3.839   7.612 -0.0237 -0.2435  0.1849
  448loPI    C1 7153  16.522   0.961   9.472 -0.1178  0.1128  0.1017
  448loPI    C2 7154  16.151   1.015   9.611 -0.1851 -0.3308  0.1081
  448loPI    C3 7155  16.465   1.108   9.840 -0.2894  0.0187  0.1138
  448loPI   PO4 7156  16.569   0.782   9.364 -0.0496  0.2507  0.2532
  448loPI   GL1 7157  16.322   0.483   9.052  0.2564 -0.0581 -0.4267
  448loPI   GL2 7158  16.142   0.769   9.100  0.0330  0.1784  0.2717
  448loPI   C1A 7159  16.249   0.586   8.576 -0.1405  0.2360 -0.2516
  448loPI   C2A 7160  16.236   0.666   8.079 -0.0828 -0.2282  0.0420
  448loPI   C3A 7161  16.202   0.686   7.620 -0.0699 -0.0473 -0.1054
  448loPI   C4A 7162  16.325   1.105   7.434  0.2386  0.1010  0.2499
  448loPI   C5A 7163  16.184   1.456   7.352 -0.0995 -0.2082  0.4479
  448loPI   C6A 7164  16.403   1.815   7.172 -0.1258  0.1505  0.4255
  448loPI   C1B 7165  15.914   0.988   8.736 -0.1894 -0.3192 -0.2476
  448loPI   C2B 7166  15.800   1.025   8.303  0.1235  0.1282 -0.4118
  448loPI   C3B 7167  15.396   0.946   8.049 -0.0770 -0.1105 -0.5544
  448loPI   C4B 7168  15.095   0.850   7.820  0.0152 -0.0029 -0.1447
  449loPI    C1 7169   3.854  16.709   9.466 -0.0392  0.0116 -0.0697
  449loPI    C2 7170   3.645  17.049   9.479  0.0547  0.0632  0.1369
  449loPI    C3 7171   3.776  16.883   9.818 -0.0931 -0.2437  0.0472
  449loPI   PO4 7172   3.843  16.566   9.316 -0.1747  0.1790 -0.1616
  449loPI   GL1 7173   3.884  16.615   8.881 -0.3402  0.1948  0.0794
  449loPI   GL2 7174   4.160  16.352   8.892 -0.0015 -0.1726 -0.0236
  449loPI   C1A 7175   3.848  16.514   8.565 -0.1792 -0.0575 -0.0140
  449loPI   C2A 7176   3.705  16.632   8.159  0.0475 -0.0937  0.2090
  449loPI   C3A 7177   3.756  16.852   7.805 -0.0074 -0.0098 -0.2890
  449loPI   C4A 7178   3.879  16.825   7.377 -0.1619  0.2089  0.0537
  449loPI   C5A 7179   3.985  16.820   6.977  0.1441  0.1040  0.0967
  449loPI   C6A 7180   4.065  16.807   6.565  0.3225 -0.1150 -0.4504
  449loPI   C1B 7181   4.207  16.160   8.492 -0.0163  0.0407 -0.1837
  449loPI   C2B 7182   4.187  15.771   8.148  0.1361 -0.2757 -0.0237
  449loPI   C3B 7183   4.305  15.429   7.908 -0.0632 -0.1354  0.0561
  449loPI   C4B 7184   4.583  15.384   7.589  0.0476  0.1859  0.1070
  450loPI    C1 7185  11.738  12.249   9.995 -0.0062  0.1585  0.2676
  450loPI    C2 7186  12.127  12.343   9.979 -0.0324  0.2442  0.1117
  450loPI    C3 7187  11.908  12.450  10.296  0.0731  0.1866  0.2047
  450loPI   PO4 7188  11.690  12.141   9.808 -0.1295 -0.0125 -0.5082
  450loPI   GL1 7189  11.447  12.324   9.459  0.2464  0.0624  0.1200
  450loPI   GL2 7190  11.179  12.311   9.355 -0.1778 -0.0185 -0.1246
  450loPI   C1A 7191  11.585  12.205   8.971 -0.2222  0.2104  0.0262
  450loPI   C2A 7192  11.580  12.065   8.570 -0.0293 -0.2837  0.1945
  450loPI   C3A 7193  11.485  11.961   8.217 -0.0427  0.0155  0.0695
  450loPI   C4A 7194  11.374  12.018   7.697 -0.1115  0.0551  0.0181
  450loPI   C5A 7195  11.218  12.415   7.480 -0.2241 -0.0208  0.2475
  450loPI   C6A 7196  10.976  12.697   7.312 -0.2765 -0.0699 -0.0547
  450loPI   C1B 7197  11.188  12.490   8.957 -0.2397 -0.0014  0.0765
  450loPI   C2B 7198  11.226  12.375   8.562 -0.0277  0.2966  0.0752
  450loPI   C3B 7199  11.211  12.446   8.289  0.0501  0.0629 -0.0452
  450loPI   C4B 7200  11.316  12.714   7.910 -0.4117 -0.0128 -0.1058
  451loPI    C1 7201   9.903   1.517   9.803 -0.1217 -0.0973  0.1073
  451loPI    C2 7202  10.018   1.218  10.042 -0.0262 -0.0634  0.1039
  451loPI    C3 7203  10.216   1.566  10.047  0.0660 -0.1109 -0.1277
  451loPI   PO4 7204   9.858   1.426   9.555  0.0615  0.1971 -0.0269
  451loPI   GL1 7205  10.053   1.558   9.038  0.1434 -0.0076 -0.2491
  451loPI   GL2 7206  10.198   1.253   9.148 -0.2107  0.3744 -0.0034
  451loPI   C1A 7207  10.143   1.771   8.673  0.1369 -0.1142  0.1480
  451loPI   C2A 7208  10.163   1.626   8.305  0.0969  0.3557  0.0211
  451loPI   C3A 7209  10.193   1.328   8.031 -0.2673 -0.0197  0.1408
  451loPI   C4A 7210  10.016   1.069   7.827  0.1566 -0.1153  0.0296
  451loPI   C5A 7211  10.064   0.750   7.504 -0.2403  0.2803  0.1947
  451loPI   C6A 7212  10.192   0.295   7.332 -0.3171  0.0191  0.3856
  451loPI   C1B 7213  10.117   1.181   8.714  0.2751 -0.3025  0.2656
  451loPI   C2B 7214  10.163   0.894   8.268  0.0146 -0.0765 -0.0669
  451loPI   C3B 7215  10.198   0.579   7.937 -0.0963  0.1319 -0.1201
  451loPI   C4B 7216   9.914   0.200   7.745  0.2109 -0.0490 -0.1854
  452loPI    C1 7217   4.925  12.814  10.025 -0.0087  0.0299  0.1785
  452loPI    C2 7218   5.117  12.760  10.372 -0.1173 -0.3170  0.1883
  452loPI    C3 7219   4.996  12.444  10.159 -0.0434 -0.1075 -0.1731
  452loPI   PO4 7220   5.028  12.928   9.882  0.2882 -0.1718  0.0509
  452loPI   GL1 7221   5.165  13.189   9.515  0.1688 -0.2231  0.0561
  452loPI   GL2 7222   5.127  12.805   9.402  0.1871 -0.2673  0.0724
  452loPI   C1A 7223   5.137  13.196   9.064  0.1323 -0.0756  0.1198
  452loPI   C2A 7224   5.274  13.203   8.533  0.0523  0.1766 -0.0043
  452loPI   C3A 7225   5.212  13.388   8.152  0.2493 -0.0861 -0.2467
  452loPI   C4A 7226   5.106  13.594   7.779 -0.2747  0.1612 -0.0203
  452loPI   C5A 7227   5.108  13.354   7.393 -0.0022 -0.1962  0.0697
  452loPI   C6A 7228   4.877  13.485   7.021  0.1838  0.3844 -0.3515
  452loPI   C1B 7229   4.651  12.944   9.273 -0.1255  0.3523  0.1171
  452loPI   C2B 7230   4.699  12.844   8.851 -0.2279 -0.1359 -0.1592
  452loPI   C3B 7231   4.953  12.648   8.490 -0.0488  0.0567 -0.2122
  452loPI   C4B 7232   5.316  12.385   8.237  0.3783  0.1685  0.0027
  453loPI    C1 7233  13.200  18.500   9.753 -0.2575 -0.1703 -0.1130
  453loPI    C2 7234  13.521  18.388   9.962  0.0550  0.3844 -0.2754
  453loPI    C3 7235  13.234  18.603  10.138 -0.0901  0.1384 -0.2070
  453loPI   PO4 7236  13.352  18.539   9.513 -0.3381  0.1359 -0.3544
  453loPI   GL1 7237  13.354  18.166   9.260 -0.1793  0.0565  0.1058
  453loPI   GL2 7238  13.075  18.213   9.089 -0.1302  0.1705  0.2130
  453loPI   C1A 7239  13.466  18.052   8.886  0.1023  0.0072  0.1432
  453loPI   C2A 7240  13.242  18.331   8.580 -0.0384 -0.1449 -0.0146
  453loPI   C3A 7241  12.914  18.282   8.211  0.2017 -0.1367 -0.2418
  453loPI   C4A 7242  12.990  18.339   7.754  0.1056  0.2770 -0.1100
  453loPI   C5A 7243  13.262  18.237   7.455  0.0176  0.1958 -0.1168
  453loPI   C6A 7244  13.604  18.173   7.160  0.0100  0.1319  0.0511
  453loPI   C1B 7245  12.773  18.342   8.697  0.0574 -0.1179  0.1676
  453loPI   C2B 7246  12.553  18.668   8.535  0.0803 -0.1402 -0.3676
  453loPI   C3B 7247  12.214  18.962   8.504 -0.0397 -0.4404 -0.2013
  453loPI   C4B 7248  12.113  19.344   8.488 -0.0730  0.0555 -0.4281
  454loPI    C1 7249  17.869   9.733  10.032  0.1352  0.0053  0.0700
  454loPI    C2 7250  18.104  10.057  10.031 -0.0605  0.1518 -0.2431
  454loPI    C3 7251  17.821  10.017  10.310  0.0285  0.2021 -0.1450
  454loPI   PO4 7252  17.796   9.716   9.806 -0.0236  0.0330  0.2838
  454loPI   GL1 7253  17.646   9.433   9.480 -0.1126 -0.0857  0.0369
  454loPI   GL2 7254  17.647   9.815   9.286 -0.1268 -0.1478  0.1941
  454loPI   C1A 7255  17.540   9.267   9.040 -0.1124  0.0450 -0.0310
  454loPI   C2A 7256  17.475   9.113   8.622  0.2240  0.1053 -0.2482
  454loPI   C3A 7257  17.614   8.856   8.272  0.2308  0.1447 -0.1888
  454loPI   C4A 7258  17.643   8.683   7.840  0.0882 -0.0182 -0.0053
  454loPI   C5A 7259  17.410   8.781   7.399 -0.1974  0.2177 -0.0927
  454loPI   C6A 7260  17.241   8.819   7.020 -0.2042  0.1566  0.2959
  454loPI   C1B 7261  17.773   9.654   8.920  0.1780  0.0359  0.0016
  454loPI   C2B 7262  17.697   9.696   8.522  0.1006 -0.3422 -0.1558
  454loPI   C3B 7263  17.633   9.386   8.266  0.1309  0.2022 -0.2174
  454loPI   C4B 7264  17.559   9.205   7.732 -0.2484 -0.4360 -0.1074
  455loPI    C1 7265   0.346   8.066   9.684  0.1211  0.2437 -0.0015
  455loPI    C2 7266   0.031   8.001   9.921  0.0770  0.1291 -0.0904
  455loPI    C3 7267   0.392   8.063  10.081  0.0395  0.0965  0.0076
  455loPI   PO4 7268   0.158   8.219   9.490  0.2348 -0.2020  0.2079
  455loPI   GL1 7269   0.110   8.156   9.054 -0.1067 -0.2690  0.1108
  455loPI   GL2 7270   0.118   7.740   8.993 -0.2661 -0.1622  0.0231
  455loPI   C1A 7271   0.502   8.174   8.899  0.1507  0.1003  0.3360
  455loPI   C2A 7272   0.828   8.387   8.655  0.0656 -0.0002 -0.1766
  455loPI   C3A 7273   0.990   8.351   8.343  0.1938 -0.0734  0.0299
  455loPI   C4A 7274   0.908   8.309   7.936 -0.0585  0.3116  0.0244
  455loPI   C5A 7275   0.991   8.430   7.558 -0.1391 -0.4337 -0.2297
  455loPI   C6A 7276   0.928   8.568   7.152 -0.1831 -0.2141  0.0077
  455loPI   C1B 7277   0.152   7.855   8.571 -0.3054  0.3828 -0.0503
  455loPI   C2B 7278   0.233   7.773   8.123 -0.0115 -0.3656 -0.0759
  455loPI   C3B 7279   0.025   7.768   7.742 -0.3094  0.0750 -0.1265
  455loPI   C4B 7280  -0.046   7.808   7.377 -0.1754 -0.1787  0.0267
  456loPI    C1 7281  13.335  19.453   9.961 -0.2243 -0.2064  0.0578
  456loPI    C2 7282  13.170  19.659  10.262  0.0083 -0.1095  0.1213
  456loPI    C3 7283  13.524  19.480  10.313  0.1514  0.0876 -0.1594
  456loPI   PO4 7284  13.171  19.412   9.848 -0.0614  0.0186 -0.0410
  456loPI   GL1 7285  13.256  19.400   9.418 -0.0321  0.0325 -0.2015
  456loPI   GL2 7286  12.982  19.351   9.367 -0.1232  0.1338  0.0088
  456loPI   C1A 7287  13.224  19.191   8.991  0.2470 -0.0700 -0.3691
  456loPI   C2A 7288  13.203  19.153   8.596 -0.1577 -0.0564  0.3423
  456loPI   C3A 7289  13.116  19.211   8.179  0.4655  0.0170  0.1059
  456loPI   C4A 7290  13.127  19.339   7.729 -0.0791  0.3152  0.0061
  456loPI   C5A 7291  12.836  19.623   7.499 -0.0744 -0.0008  0.0905
  456loPI   C6A 7292  12.498  19.710   7.365  0.1155  0.0514 -0.2145
  456loPI   C1B 7293  12.969  19.601   8.986  0.1629 -0.2148  0.2746
  456loPI   C2B 7294  12.910  19.550   8.490 -0.0504 -0.0173  0.0426
  456loPI   C3B 7295  12.728  19.541   8.001  0.2538  0.3483 -0.1445
  456loPI   C4B 7296  12.447  19.396   7.713 -0.1200  0.2526  0.0974
  457loPI    C1 7297  10.716   1.660   9.678  0.0910 -0.0224 -0.2371
  457loPI    C2 7298  10.687   1.977   9.921 -0.0074 -0.0344 -0.2329
  457loPI    C3 7299  10.896   1.655  10.036  0.0843  0.0248 -0.2331
  457loPI   PO4 7300  10.762   1.783   9.498  0.1395 -0.4427  0.0187
  457loPI   GL1 7301  10.618   2.031   9.105 -0.0508  0.2203 -0.0263
  457loPI   GL2 7302  10.718   1.772   8.986 -0.0994  0.2617  0.0015
  457loPI   C1A 7303  10.412   2.262   8.703 -0.1698 -0.1421  0.2017
  457loPI   C2A 7304  10.379   2.409   8.308 -0.1241 -0.2465 -0.4383
  457loPI   C3A 7305  10.343   2.581   7.869 -0.1752  0.1260 -0.2553
  457loPI   C4A 7306  10.249   2.493   7.447  0.0498  0.0810  0.1910
  457loPI   C5A 7307  10.094   2.454   6.922  0.2160  0.0187  0.0599
  457loPI   C6A 7308   9.866   2.261   6.551 -0.0663 -0.1049 -0.0436
  457loPI   C1B 7309  10.547   1.464   8.760 -0.1029 -0.1499 -0.0115
  457loPI   C2B 7310  10.618   1.166   8.476  0.1509  0.3778 -0.1630
  457loPI   C3B 7311  10.779   1.111   8.129  0.2369 -0.1442 -0.2250
  457loPI   C4B 7312  10.478   1.051   7.722  0.1233  0.2554  0.1342
  458loPI    C1 7313   4.134   9.616   9.624 -0.0881 -0.3349 -0.1398
  458loPI    C2 7314   3.984   9.825   9.930  0.2142 -0.1287 -0.1281
  458loPI    C3 7315   4.055   9.434   9.971 -0.0544 -0.1706 -0.0448
  458loPI   PO4 7316   4.074   9.803   9.365  0.2541  0.3478 -0.2101
  458loPI   GL1 7317   4.369   9.839   9.032  0.0697 -0.3886 -0.0055
  458loPI   GL2 7318   4.659   9.771   8.961 -0.0334  0.0748 -0.2148
  458loPI   C1A 7319   4.272   9.594   8.607 -0.2905  0.2294 -0.0978
  458loPI   C2A 7320   4.046   9.327   8.302 -0.2095 -0.0449 -0.1159
  458loPI   C3A 7321   4.014   9.129   8.102 -0.0268  0.0680  0.1614
  458loPI   C4A 7322   3.960   9.322   7.777 -0.0594 -0.1872 -0.0363
  458loPI   C5A 7323   4.125   9.343   7.432  0.2569 -0.1875  0.0164
  458loPI   C6A 7324   4.088   9.198   7.086  0.0219  0.0539  0.1382
  458loPI   C1B 7325   4.784   9.682   8.517  0.2326  0.5252  0.0137
  458loPI   C2B 7326   4.718   9.813   8.102 -0.1831 -0.0854 -0.0472
  458loPI   C3B 7327   4.684   9.888   7.603 -0.0233 -0.2379 -0.3027
  458loPI   C4B 7328   4.441   9.796   7.228  0.2167  0.0899 -0.2098
  459loPI    C1 7329   5.386  18.604   9.135 -0.4697 -0.0938 -0.0372
  459loPI    C2 7330   5.205  18.960   9.161  0.0122  0.1385  0.2959
  459loPI    C3 7331   5.219  18.720   9.480 -0.5661 -0.3230 -0.0053
  459loPI   PO4 7332   5.270  18.481   8.907 -0.0271  0.2637  0.1729
  459loPI   GL1 7333   5.257  18.640   8.452 -0.0563 -0.0620  0.1675
  459loPI   GL2 7334   4.986  18.785   8.248 -0.1195  0.0503  0.1663
  459loPI   C1A 7335   5.345  18.720   7.860  0.1420  0.0036  0.1039
  459loPI   C2A 7336   5.155  18.623   7.457 -0.1439  0.0981  0.2525
  459loPI   C3A 7337   5.306  18.691   7.008 -0.1210  0.0118 -0.1884
  459loPI   C4A 7338   5.689  18.564   6.746 -0.0604  0.1009  0.0980
  459loPI   C5A 7339   5.881  18.758   6.388  0.2403 -0.1805  0.3659
  459loPI   C6A 7340   6.068  18.996   6.033  0.2650 -0.0253 -0.4962
  459loPI   C1B 7341   4.969  18.957   7.848  0.0352 -0.2579 -0.0619
  459loPI   C2B 7342   4.996  19.112   7.430 -0.1295 -0.3114  0.0380
  459loPI   C3B 7343   5.104  19.240   6.931  0.2342  0.1646 -0.1415
  459loPI   C4B 7344   5.072  19.637   6.935  0.0826  0.1322 -0.1244
  460loPI    C1 7345  12.169  16.244   9.921  0.1357 -0.1031 -0.0237
  460loPI    C2 7346  11.961  16.501   9.695 -0.0993 -0.4235 -0.1808
  460loPI    C3 7347  12.360  16.525   9.711 -0.1373  0.1929  0.1154
  460loPI   PO4 7348  12.036  15.970   9.817 -0.0698 -0.1289 -0.0719
  460loPI   GL1 7349  11.890  15.738   9.532  0.1814  0.2908 -0.1332
  460loPI   GL2 7350  11.977  15.972   9.273 -0.1993  0.2856 -0.1709
  460loPI   C1A 7351  11.821  15.381   9.282  0.1994 -0.0666 -0.0216
  460loPI   C2A 7352  11.856  15.223   8.879  0.0516 -0.1248  0.1397
  460loPI   C3A 7353  11.853  15.245   8.484 -0.3445  0.0839 -0.3984
  460loPI   C4A 7354  11.924  15.129   8.078  0.0144  0.1325 -0.2172
  460loPI   C5A 7355  12.017  15.013   7.674  0.0273 -0.1409  0.0845
  460loPI   C6A 7356  11.990  14.576   7.560 -0.2045 -0.1424  0.1441
  460loPI   C1B 7357  12.074  16.082   8.926  0.1782 -0.1248 -0.0622
  460loPI   C2B 7358  12.075  16.215   8.447  0.0745  0.0788  0.0495
  460loPI   C3B 7359  12.045  16.170   8.043 -0.2808 -0.2298  0.1363
  460loPI   C4B 7360  12.283  16.399   7.754 -0.0715 -0.1957  0.2476
  461loPI    C1 7361   5.718  15.586   9.653  0.0138  0.2973 -0.0536
  461loPI    C2 7362   5.934  15.473   9.969 -0.1562 -0.1801 -0.1006
  461loPI    C3 7363   5.723  15.812   9.982  0.0659 -0.0491  0.1885
  461loPI   PO4 7364   5.849  15.500   9.451 -0.1069  0.1206  0.1481
  461loPI   GL1 7365   6.008  15.330   9.105  0.2226  0.0813  0.0753
  461loPI   GL2 7366   5.717  15.397   8.955 -0.1173 -0.2092  0.0273
  461loPI   C1A 7367   6.040  15.125   8.598  0.1026  0.1698  0.1522
  461loPI   C2A 7368   6.129  15.075   8.137  0.1265 -0.2450 -0.1183
  461loPI   C3A 7369   6.291  15.181   7.707 -0.2191  0.4838  0.0025
  461loPI   C4A 7370   6.409  15.038   7.378  0.1567 -0.2386  0.1880
  461loPI   C5A 7371   6.817  15.069   7.160 -0.1480  0.0236 -0.3625
  461loPI   C6A 7372   7.229  15.173   7.186 -0.0870  0.2138  0.1637
  461loPI   C1B 7373   5.696  15.669   8.517 -0.0620  0.1712 -0.2336
  461loPI   C2B 7374   5.786  15.686   7.991 -0.0399 -0.4102 -0.0023
  461loPI   C3B 7375   5.619  15.654   7.564 -0.0738 -0.0657 -0.1696
  461loPI   C4B 7376   5.521  15.415   7.254 -0.1257  0.1659 -0.1308
  462loPI    C1 7377  12.428   5.627  10.073  0.0463  0.2298  0.0601
  462loPI    C2 7378  12.244   5.342  10.283  0.0765 -0.0392 -0.2689
  462loPI    C3 7379  12.590   5.493  10.413 -0.0875  0.0644  0.0600
  462loPI   PO4 7380  12.310   5.648   9.765 -0.0358  0.1439 -0.3709
  462loPI   GL1 7381  12.274   5.678   9.320 -0.3093  0.0467  0.0866
  462loPI   GL2 7382  12.515   5.447   9.240  0.1017  0.6235 -0.1657
  462loPI   C1A 7383  12.415   5.704   8.831 -0.1390  0.1058 -0.0401
  462loPI   C2A 7384  12.525   6.023   8.358  0.0310  0.1456 -0.5061
  462loPI   C3A 7385  12.527   6.340   8.043 -0.2736 -0.0972  0.1815
  462loPI   C4A 7386  12.331   6.770   7.797  0.3102  0.3543  0.1422
  462loPI   C5A 7387  12.453   7.069   7.432 -0.1401  0.0152  0.1151
  462loPI   C6A 7388  12.515   7.418   7.087 -0.2576  0.0553  0.0209
  462loPI   C1B 7389  12.731   5.284   8.816  0.0504  0.0276 -0.0882
  462loPI   C2B 7390  12.843   5.161   8.417  0.0396 -0.0382 -0.0291
  462loPI   C3B 7391  12.815   5.245   8.024 -0.3767 -0.2092 -0.3380
  462loPI   C4B 7392  12.914   5.433   7.628  0.0672  0.1981 -0.0060
  463loPI    C1 7393  11.579   1.890   9.681  0.0334  0.0758 -0.0345
  463loPI    C2 7394  11.193   1.984   9.731  0.0228 -0.0411  0.1131
  463loPI    C3 7395  11.475   2.174   9.943  0.0538  0.0969 -0.0491
  463loPI   PO4 7396  11.631   1.843   9.395  0.2972 -0.0973 -0.1524
  463loPI   GL1 7397  11.702   1.797   8.840  0.0966  0.2033  0.4049
  463loPI   GL2 7398  11.450   1.935   8.875  0.0183 -0.0657  0.0816
  463loPI   C1A 7399  11.896   1.706   8.425  0.0638  0.1978  0.3228
  463loPI   C2A 7400  11.890   1.529   7.996  0.4291  0.0182 -0.0210
  463loPI   C3A 7401  11.643   1.370   7.638 -0.0752  0.0017  0.1216
  463loPI   C4A 7402  11.386   1.308   7.417 -0.0189  0.2967  0.0388
  463loPI   C5A 7403  11.262   1.026   7.190  0.0364  0.6603  0.0589
  463loPI   C6A 7404  11.357   1.040   6.792 -0.1844  0.0380 -0.0314
  463loPI   C1B 7405  11.355   1.900   8.368 -0.1330 -0.2583  0.1124
  463loPI   C2B 7406  11.139   2.022   8.065  0.3260  0.0431 -0.0842
  463loPI   C3B 7407  10.919   1.936   7.719 -0.2575 -0.2660 -0.2657
  463loPI   C4B 7408  10.907   1.527   7.478  0.3820  0.0789  0.1252
  464loPI    C1 7409  11.819  13.761  10.138 -0.0960 -0.0038 -0.1222
  464loPI    C2 7410  11.668  13.605  10.474  0.4284 -0.0046  0.1241
  464loPI    C3 7411  11.655  14.000  10.413  0.4083  0.0044  0.1859
  464loPI   PO4 7412  11.663  13.635   9.902  0.0613 -0.1801 -0.1954
  464loPI   GL1 7413  11.693  13.690   9.459  0.2488 -0.2286  0.1185
  464loPI   GL2 7414  11.510  13.977   9.560  0.1692  0.1510  0.1037
  464loPI   C1A 7415  11.617  13.658   8.967 -0.0834 -0.0263 -0.2451
  464loPI   C2A 7416  11.602  13.608   8.614 -0.1535 -0.1070 -0.1025
  464loPI   C3A 7417  11.464  13.542   8.112 -0.1999  0.1362  0.2721
  464loPI   C4A 7418  11.441  13.708   7.712 -0.1362  0.0040 -0.0331
  464loPI   C5A 7419  11.083  13.821   7.523  0.3106 -0.0052 -0.0167
  464loPI   C6A 7420  10.628  13.856   7.494  0.0320  0.1303 -0.0808
  464loPI   C1B 7421  11.606  14.231   9.253  0.0247  0.0243  0.1916
  464loPI   C2B 7422  11.602  14.147   8.850 -0.0043  0.2072  0.2475
  464loPI   C3B 7423  11.715  14.329   8.452  0.3709 -0.0702  0.3774
  464loPI   C4B 7424  11.692  14.033   8.052 -0.0071  0.1582 -0.1888
  465loPI    C1 7425   3.464  18.139   9.425  0.1247 -0.1533  0.1018
  465loPI    C2 7426   3.109  18.072   9.595 -0.0131 -0.0416 -0.1359
  465loPI    C3 7427   3.386  18.287   9.788 -0.1288 -0.0024 -0.0118
  465loPI   PO4 7428   3.423  18.005   9.187  0.0933 -0.1789  0.0918
  465loPI   GL1 7429   3.441  17.940   8.799  0.2826 -0.0540  0.0441
  465loPI   GL2 7430   3.253  17.704   8.747 -0.1039 -0.1671  0.1067
  465loPI   C1A 7431   3.588  17.866   8.435  0.2001 -0.0559 -0.0352
  465loPI   C2A 7432   3.566  17.922   7.982  0.0295 -0.2965  0.1012
  465loPI   C3A 7433   3.599  18.011   7.490  0.0889  0.1620 -0.2000
  465loPI   C4A 7434   3.456  18.267   7.133  0.0920 -0.0258  0.0968
  465loPI   C5A 7435   3.231  18.383   6.786  0.2496 -0.0301 -0.1603
  465loPI   C6A 7436   2.869  18.404   6.611 -0.0586  0.0426 -0.1946
  465loPI   C1B 7437   3.044  17.975   8.468 -0.1456 -0.1179  0.4194
  465loPI   C2B 7438   3.041  18.136   7.997 -0.1629  0.1326  0.0004
  465loPI   C3B 7439   3.090  18.089   7.533 -0.0960 -0.4082  0.1671
  465loPI   C4B 7440   3.215  17.741   7.217 -0.2456 -0.0254  0.0443
  466loPI    C1 7441   6.264   8.320   9.379  0.2040  0.0344  0.2016
  466loPI    C2 7442   6.181   8.133   9.723  0.3155  0.1523  0.2935
  466loPI    C3 7443   6.557   8.141   9.586  0.2576  0.0332  0.1251
  466loPI   PO4 7444   6.128   8.210   9.154  0.0643 -0.1793  0.2940
  466loPI   GL1 7445   6.283   8.025   8.814  0.1410  0.0164 -0.1447
  466loPI   GL2 7446   6.577   8.033   8.946  0.3233  0.1311 -0.2900
  466loPI   C1A 7447   6.232   8.036   8.407  0.2660 -0.0799  0.1393
  466loPI   C2A 7448   6.222   8.166   8.039  0.2056  0.2343  0.0068
  466loPI   C3A 7449   6.299   8.407   7.692 -0.1719  0.0087  0.1163
  466loPI   C4A 7450   6.258   8.767   7.429  0.2118 -0.0900 -0.2193
  466loPI   C5A 7451   5.997   9.039   7.128  0.0396 -0.0682 -0.2301
  466loPI   C6A 7452   5.676   9.252   7.038  0.0818 -0.1288  0.0893
  466loPI   C1B 7453   6.626   8.354   8.565 -0.4375 -0.0733  0.0399
  466loPI   C2B 7454   6.705   8.521   8.191 -0.3124  0.0543  0.0570
  466loPI   C3B 7455   6.727   8.873   7.841 -0.2692  0.1422  0.0315
  466loPI   C4B 7456   6.470   9.188   7.622  0.1334 -0.1939  0.0031
  467loPI    C1 7457  10.361   9.228   9.735 -0.0475  0.0533 -0.0940
  467loPI    C2 7458  10.269   8.873   9.896 -0.4243  0.2145  0.0561
  467loPI    C3 7459  10.288   9.199  10.128 -0.2722  0.3275 -0.1128
  467loPI   PO4 7460  10.605   9.246   9.443  0.2096  0.0885 -0.0577
  467loPI   GL1 7461  10.559   9.411   9.070  0.1093 -0.0589  0.1624
  467loPI   GL2 7462  10.528   9.716   9.025 -0.1318  0.0776 -0.1784
  467loPI   C1A 7463  10.405   9.430   8.657 -0.1772 -0.0354 -0.1218
  467loPI   C2A 7464  10.309   9.319   8.295 -0.1395 -0.0335  0.1125
  467loPI   C3A 7465  10.427   9.341   7.823  0.4371 -0.1743 -0.0979
  467loPI   C4A 7466  10.517   9.283   7.513  0.2356  0.3008 -0.2043
  467loPI   C5A 7467  10.559   9.466   7.145  0.1240 -0.1094  0.4208
  467loPI   C6A 7468  10.286   9.436   6.870  0.1012  0.1006 -0.1340
  467loPI   C1B 7469  10.543   9.877   8.719 -0.2250 -0.1167 -0.1567
  467loPI   C2B 7470  10.471   9.857   8.339  0.1049 -0.2145 -0.0829
  467loPI   C3B 7471  10.432   9.874   7.976  0.0111 -0.2225  0.2575
  467loPI   C4B 7472  10.301   9.981   7.622 -0.2465 -0.3319  0.4076
  468loPI    C1 7473  13.446   5.144   9.595  0.2908  0.1796  0.1163
  468loPI    C2 7474  13.489   5.399   9.900  0.2973 -0.0101  0.2753
  468loPI    C3 7475  13.637   5.028   9.926 -0.0508 -0.1584  0.2023
  468loPI   PO4 7476  13.566   5.229   9.410  0.0639 -0.3446 -0.1186
  468loPI   GL1 7477  13.750   5.045   9.048  0.0238  0.1458  0.2328
  468loPI   GL2 7478  13.856   5.237   8.854 -0.6760  0.0233  0.1701
  468loPI   C1A 7479  13.682   4.737   8.717 -0.1405  0.2446  0.2325
  468loPI   C2A 7480  13.836   4.779   8.367  0.0199  0.1780  0.1790
  468loPI   C3A 7481  14.041   4.639   8.001  0.1308  0.1173  0.0414
  468loPI   C4A 7482  14.043   4.591   7.580  0.0974  0.1434  0.0751
  468loPI   C5A 7483  13.942   4.788   7.188  0.0517  0.2797  0.1949
  468loPI   C6A 7484  13.979   4.797   6.699  0.0573 -0.0478  0.2006
  468loPI   C1B 7485  13.842   5.434   8.456  0.3941 -0.1798 -0.0787
  468loPI   C2B 7486  13.839   5.508   8.023 -0.0976 -0.2149  0.0023
  468loPI   C3B 7487  13.906   5.503   7.559 -0.2068 -0.1387 -0.1249
  468loPI   C4B 7488  13.819   5.719   7.114 -0.2599  0.1146 -0.4186
  469loPI    C1 7489  15.181   8.410   9.752  0.1760 -0.0500 -0.2528
  469loPI    C2 7490  15.558   8.293   9.815  0.1296  0.0349  0.2194
  469loPI    C3 7491  15.326   8.395  10.125 -0.3653 -0.2660 -0.0399
  469loPI   PO4 7492  15.163   8.234   9.481  0.0417 -0.1129  0.2488
  469loPI   GL1 7493  15.233   8.107   9.082 -0.2594 -0.0808 -0.1195
  469loPI   GL2 7494  15.483   7.954   8.940 -0.3877  0.2137  0.1215
  469loPI   C1A 7495  14.849   8.212   8.897  0.1753 -0.1825 -0.1843
  469loPI   C2A 7496  14.658   8.181   8.523  0.0819  0.0935 -0.3974
  469loPI   C3A 7497  14.709   8.201   8.165  0.0991  0.2167  0.3407
  469loPI   C4A 7498  14.372   8.203   7.769 -0.3588  0.2137  0.4698
  469loPI   C5A 7499  14.169   8.112   7.383 -0.0077 -0.3457 -0.0195
  469loPI   C6A 7500  14.061   8.485   6.989 -0.0613 -0.2153 -0.0199
  469loPI   C1B 7501  15.509   8.016   8.572 -0.1783  0.3310  0.3165
  469loPI   C2B 7502  15.533   8.118   8.145 -0.1933  0.0210 -0.2759
  469loPI   C3B 7503  15.800   8.306   7.877  0.3240  0.0816  0.0629
  469loPI   C4B 7504  15.906   8.687   7.608 -0.2010  0.3553  0.0066
  470loPI    C1 7505  16.889  10.639   9.767 -0.1554  0.1394 -0.0573
  470loPI    C2 7506  16.824  10.523  10.145 -0.0570  0.2191 -0.0155
  470loPI    C3 7507  17.162  10.714  10.049  0.0023  0.0347 -0.1803
  470loPI   PO4 7508  16.904  10.547   9.611 -0.1348  0.1413 -0.1186
  470loPI   GL1 7509  17.102  10.407   9.277 -0.3071 -0.2161 -0.0466
  470loPI   GL2 7510  16.915  10.295   9.062  0.2624 -0.1427  0.0537
  470loPI   C1A 7511  17.242  10.633   8.941  0.1411  0.2380  0.3035
  470loPI   C2A 7512  17.098  10.504   8.504  0.1360 -0.0479 -0.0365
  470loPI   C3A 7513  17.070  10.369   8.037  0.1229  0.0858  0.1185
  470loPI   C4A 7514  17.172  10.257   7.700  0.0253 -0.0772  0.1466
  470loPI   C5A 7515  17.306  10.142   7.326 -0.1411  0.0325 -0.1327
  470loPI   C6A 7516  17.589   9.938   7.078  0.0691 -0.0419 -0.0705
  470loPI   C1B 7517  16.929  10.112   8.783  0.2706 -0.3314 -0.4169
  470loPI   C2B 7518  16.823  10.071   8.350  0.0602 -0.1128 -0.0898
  470loPI   C3B 7519  16.760   9.878   7.944  0.1398 -0.0173 -0.4387
  470loPI   C4B 7520  16.822   9.917   7.487  0.0176  0.0563 -0.1071
  471loPI    C1 7521   5.790   9.043   9.745 -0.0036 -0.3007 -0.2532
  471loPI    C2 7522   6.172   9.098   9.854 -0.0713  0.3458 -0.3008
  471loPI    C3 7523   5.905   9.392   9.903 -0.5550 -0.0717 -0.3344
  471loPI   PO4 7524   5.791   9.040   9.452 -0.1274  0.1947 -0.0499
  471loPI   GL1 7525   5.936   9.057   8.963  0.0483 -0.0420 -0.1549
  471loPI   GL2 7526   6.002   9.431   8.930  0.0739 -0.5103 -0.0415
  471loPI   C1A 7527   5.858   9.006   8.506 -0.0571  0.0130  0.0578
  471loPI   C2A 7528   5.686   8.776   8.251  0.0768 -0.0181 -0.0056
  471loPI   C3A 7529   5.514   8.920   7.956 -0.1180  0.0793 -0.0899
  471loPI   C4A 7530   5.365   9.157   7.749 -0.1233 -0.0351 -0.0898
  471loPI   C5A 7531   5.261   9.301   7.215 -0.0916 -0.0947  0.1620
  471loPI   C6A 7532   5.442   9.706   6.989  0.1099  0.2627  0.0744
  471loPI   C1B 7533   5.683   9.428   8.588  0.3225 -0.2839  0.0317
  471loPI   C2B 7534   5.629   9.390   8.153  0.0262 -0.0656 -0.2215
  471loPI   C3B 7535   5.609   9.566   7.794 -0.0846 -0.1654 -0.2337
  471loPI   C4B 7536   5.719   9.518   7.405 -0.1670 -0.2497  0.3116
  472loPI    C1 7537   7.791   1.071   9.788 -0.2117 -0.1867  0.1168
  472loPI    C2 7538   7.875   1.326  10.085  0.0581 -0.1034 -0.0274
  472loPI    C3 7539   8.034   0.959  10.085 -0.0374 -0.1452 -0.0084
  472loPI   PO4 7540   7.839   1.137   9.490  0.1099 -0.4097 -0.0723
  472loPI   GL1 7541   7.975   0.897   9.199 -0.0081 -0.1266 -0.0964
  472loPI   GL2 7542   7.917   0.552   9.293  0.4256 -0.2016 -0.1422
  472loPI   C1A 7543   7.697   1.076   8.763 -0.0580 -0.1437  0.0906
  472loPI   C2A 7544   7.598   1.322   8.511 -0.3076  0.1912  0.0186
  472loPI   C3A 7545   7.603   1.408   8.128  0.0894  0.1658 -0.1040
  472loPI   C4A 7546   7.524   1.652   7.751 -0.1373  0.4716  0.1767
  472loPI   C5A 7547   7.445   1.745   7.322 -0.3463 -0.0013  0.0231
  472loPI   C6A 7548   7.760   1.664   6.981  0.3236 -0.3060  0.0968
  472loPI   C1B 7549   7.794   0.507   8.906 -0.2834  0.3094  0.1814
  472loPI   C2B 7550   7.547   0.626   8.543 -0.1362  0.2595  0.0349
  472loPI   C3B 7551   7.449   0.908   8.250  0.1546  0.0075  0.1113
  472loPI   C4B 7552   7.440   0.962   7.856 -0.2879  0.2968 -0.0412
  473loPI    C1 7553  18.508  17.011  10.137  0.4026  0.4942  0.2803
  473loPI    C2 7554  18.533  16.763  10.450 -0.0660  0.1539  0.0607
  473loPI    C3 7555  18.739  16.685  10.116  0.1042  0.2877  0.1325
  473loPI   PO4 7556  18.230  17.064   9.907 -0.3758  0.0418 -0.0249
  473loPI   GL1 7557  17.932  16.820   9.641  0.0377 -0.0610 -0.2607
  473loPI   GL2 7558  17.727  17.058   9.494 -0.3585  0.1805 -0.1650
  473loPI   C1A 7559  18.238  16.701   9.286  0.1829 -0.4009  0.1989
  473loPI   C2A 7560  18.285  16.477   8.817  0.1419  0.0014  0.1596
  473loPI   C3A 7561  18.447  16.618   8.448  0.0659  0.2801 -0.0976
  473loPI   C4A 7562  18.490  16.777   8.005 -0.0610  0.1828 -0.2253
  473loPI   C5A 7563  18.450  16.411   7.810  0.0866  0.0045  0.1023
  473loPI   C6A 7564  18.073  16.424   7.547 -0.0619 -0.1588 -0.2177
  473loPI   C1B 7565  17.635  16.720   9.161 -0.1204  0.0869 -0.2241
  473loPI   C2B 7566  17.551  16.645   8.871 -0.4172 -0.0932  0.1801
  473loPI   C3B 7567  17.159  16.644   8.615  0.1029  0.1516 -0.1301
  473loPI   C4B 7568  17.074  16.601   8.168  0.0894 -0.0196  0.1235
  474loPI    C1 7569  10.966   8.555   9.551 -0.1110 -0.3299  0.1138
  474loPI    C2 7570  10.807   8.841   9.782  0.0013 -0.1283 -0.0546
  474loPI    C3 7571  10.983   8.523   9.950 -0.2958 -0.1973  0.1339
  474loPI   PO4 7572  10.745   8.337   9.368  0.1822  0.2679  0.5364
  474loPI   GL1 7573  10.675   8.134   9.063  0.2029 -0.1138  0.0372
  474loPI   GL2 7574  10.445   7.879   9.040 -0.1076 -0.1103  0.1423
  474loPI   C1A 7575  10.859   8.342   8.714 -0.2123 -0.1972  0.0881
  474loPI   C2A 7576  10.940   8.416   8.315 -0.0244 -0.1209  0.1154
  474loPI   C3A 7577  10.842   8.331   7.933  0.2177 -0.2033  0.2268
  474loPI   C4A 7578  10.983   8.194   7.505 -0.1245 -0.0251 -0.1193
  474loPI   C5A 7579  10.893   8.109   7.090  0.0432  0.0924  0.6254
  474loPI   C6A 7580  10.879   8.215   6.641 -0.1753 -0.0908  0.0623
  474loPI   C1B 7581  10.577   7.991   8.583 -0.1500  0.0922  0.2521
  474loPI   C2B 7582  10.545   7.973   8.118 -0.1108 -0.0124  0.0199
  474loPI   C3B 7583  10.596   7.827   7.725 -0.0033  0.0547  0.1149
  474loPI   C4B 7584  10.409   8.103   7.450 -0.1471 -0.0827 -0.1081
  475loPI    C1 7585   5.585   3.716   9.619  0.0728  0.0896 -0.0190
  475loPI    C2 7586   5.276   3.519   9.458  0.2014 -0.1368  0.0070
  475loPI    C3 7587   5.463   3.370   9.779  0.2944  0.0344  0.0335
  475loPI   PO4 7588   5.725   3.828   9.353 -0.0038  0.0016 -0.0306
  475loPI   GL1 7589   5.834   3.722   8.863  0.0943  0.0652 -0.0812
  475loPI   GL2 7590   5.485   3.755   8.745 -0.2805  0.3168 -0.0036
  475loPI   C1A 7591   5.741   4.153   8.625  0.0960  0.1181  0.1872
  475loPI   C2A 7592   5.858   4.296   8.250 -0.0741  0.2247  0.2406
  475loPI   C3A 7593   5.516   4.182   7.833  0.1126  0.0246 -0.1997
  475loPI   C4A 7594   5.443   4.175   7.476  0.0682 -0.0887  0.3941
  475loPI   C5A 7595   5.753   4.199   7.163  0.0668 -0.0113 -0.0245
  475loPI   C6A 7596   5.940   4.068   6.806  0.0605  0.2111 -0.2493
  475loPI   C1B 7597   5.229   3.594   8.532 -0.1554  0.1139 -0.2517
  475loPI   C2B 7598   5.053   3.485   8.167 -0.1689 -0.4164 -0.0123
  475loPI   C3B 7599   5.128   3.490   7.760  0.1284 -0.1978 -0.5263
  475loPI   C4B 7600   5.041   3.276   7.448 -0.1011  0.2092  0.1238
  476loPI    C1 7601  14.549   3.659   9.687  0.0341  0.1817 -0.0295
  476loPI    C2 7602  14.284   3.801   9.950 -0.1741  0.0517 -0.1664
  476loPI    C3 7603  14.669   3.770  10.053 -0.2828 -0.1778  0.1904
  476loPI   PO4 7604  14.530   3.801   9.493  0.0354  0.0071 -0.2757
  476loPI   GL1 7605  14.465   3.759   9.058  0.2165  0.0641 -0.0629
  476loPI   GL2 7606  14.414   4.003   8.966 -0.1556  0.1281 -0.0595
  476loPI   C1A 7607  14.613   3.805   8.563  0.0420 -0.0170 -0.2367
  476loPI   C2A 7608  14.488   3.968   8.188 -0.2125 -0.0729 -0.0970
  476loPI   C3A 7609  14.317   4.204   7.848 -0.2640 -0.0575 -0.2192
  476loPI   C4A 7610  14.133   4.125   7.419  0.0464  0.1715 -0.0190
  476loPI   C5A 7611  13.750   4.316   7.301  0.3281 -0.0598 -0.0381
  476loPI   C6A 7612  13.460   4.205   7.078 -0.0808  0.0275 -0.0769
  476loPI   C1B 7613  14.578   4.267   8.734 -0.0601 -0.2825  0.1188
  476loPI   C2B 7614  14.481   4.514   8.352 -0.1304 -0.1046  0.0496
  476loPI   C3B 7615  14.531   4.639   8.020 -0.0495  0.0251  0.0996
  476loPI   C4B 7616  14.779   4.931   7.818  0.0398 -0.0248  0.0040
  477loPI    C1 7617   7.934  14.066  10.511  0.2380 -0.2575  0.0378
  477loPI    C2 7618   7.535  14.064  10.483  0.2356  0.0712  0.0084
  477loPI    C3 7619   7.709  14.040  10.842  0.1915 -0.1206  0.0179
  477loPI   PO4 7620   8.024  14.232  10.216 -0.0405  0.0893  0.1804
  477loPI   GL1 7621   8.030  14.210   9.725 -0.3040 -0.2237  0.0984
  477loPI   GL2 7622   8.205  14.582   9.789 -0.0505 -0.1309 -0.1565
  477loPI   C1A 7623   8.098  14.112   9.221 -0.3638  0.0229 -0.2521
  477loPI   C2A 7624   8.343  14.232   8.869  0.0226  0.3201  0.1365
  477loPI   C3A 7625   8.337  14.275   8.456 -0.0907  0.1167 -0.0614
  477loPI   C4A 7626   8.230  14.242   8.026 -0.2312  0.2146 -0.1116
  477loPI   C5A 7627   7.856  14.437   7.854  0.2199 -0.1009  0.1704
  477loPI   C6A 7628   7.568  14.551   7.687 -0.2213 -0.1201 -0.2037
  477loPI   C1B 7629   8.070  14.819   9.460  0.2903 -0.1415 -0.2173
  477loPI   C2B 7630   8.036  14.704   9.038  0.2770 -0.1387  0.2330
  477loPI   C3B 7631   8.047  14.753   8.631 -0.0646  0.5022  0.1227
  477loPI   C4B 7632   8.183  14.740   8.228 -0.3863 -0.0677 -0.1491
  478loPI    C1 7633  15.440   6.384  10.134 -0.5137 -0.1058  0.0956
  478loPI    C2 7634  15.358   6.710  10.351 -0.2257  0.0768 -0.0635
  478loPI    C3 7635  15.381   6.352  10.528 -0.1153  0.2052  0.1872
  478loPI   PO4 7636  15.347   6.523   9.841  0.0528  0.1598  0.0630
  478loPI   GL1 7637  15.423   6.566   9.386  0.1331 -0.2952  0.0290
  478loPI   GL2 7638  15.576   6.245   9.317 -0.0254  0.0711  0.1747
  478loPI   C1A 7639  15.762   6.828   9.133  0.0915 -0.0301  0.2149
  478loPI   C2A 7640  15.759   7.016   8.743  0.1154  0.0753 -0.0362
  478loPI   C3A 7641  15.559   7.004   8.395  0.1232  0.2637 -0.0518
  478loPI   C4A 7642  15.443   7.239   8.029 -0.4947  0.2607  0.1944
  478loPI   C5A 7643  15.587   7.286   7.649  0.1395  0.2569 -0.0442
  478loPI   C6A 7644  15.571   6.985   7.344  0.0594  0.1620  0.1899
  478loPI   C1B 7645  15.641   6.324   8.929  0.0952  0.0839  0.0872
  478loPI   C2B 7646  15.576   6.554   8.592 -0.0039 -0.0979  0.0468
  478loPI   C3B 7647  15.619   6.541   8.130  0.0043 -0.0524  0.1742
  478loPI   C4B 7648  15.685   6.799   7.834  0.3071 -0.3412 -0.2048
  479loPI    C1 7649  15.882  14.048   9.784 -0.0861 -0.0511  0.0376
  479loPI    C2 7650  15.907  14.176  10.162 -0.0981  0.0391  0.0079
  479loPI    C3 7651  15.621  14.318   9.921 -0.0765 -0.0015 -0.0418
  479loPI   PO4 7652  16.103  14.029   9.741  0.3073 -0.1706 -0.0484
  479loPI   GL1 7653  16.262  14.095   9.370  0.1544 -0.0285  0.0788
  479loPI   GL2 7654  15.946  13.945   9.243  0.3264  0.2263 -0.1023
  479loPI   C1A 7655  16.277  14.308   8.993  0.0359 -0.1450  0.1970
  479loPI   C2A 7656  16.034  14.365   8.568  0.0135 -0.2674  0.0509
  479loPI   C3A 7657  15.990  14.422   8.102 -0.1262  0.0576 -0.1113
  479loPI   C4A 7658  15.894  14.486   7.724 -0.3292  0.0287  0.2403
  479loPI   C5A 7659  15.834  14.326   7.405  0.0120 -0.0185 -0.1143
  479loPI   C6A 7660  15.727  14.494   7.046 -0.0497 -0.0768 -0.2378
  479loPI   C1B 7661  15.762  14.195   8.951 -0.1086 -0.0209 -0.0351
  479loPI   C2B 7662  15.515  14.358   8.502 -0.3154  0.1614  0.1145
  479loPI   C3B 7663  15.479  14.442   8.077  0.0413  0.1163 -0.0015
  479loPI   C4B 7664  15.423  14.396   7.666  0.1643  0.1828 -0.2810
  480loPI    C1 7665   1.373  16.748   9.663  0.2812 -0.2831  0.0082
  480loPI    C2 7666   1.261  16.381   9.777 -0.0721 -0.1503  0.0991
  480loPI    C3 7667   1.464  16.615  10.030 -0.0458 -0.1990  0.1229
  480loPI   PO4 7668   1.123  16.781   9.436  0.0927 -0.1684 -0.1439
  480loPI   GL1 7669   0.716  16.708   9.221  0.2402  0.1012  0.0620
  480loPI   GL2 7670   0.433  16.633   9.235 -0.0616 -0.2159  0.5382
  480loPI   C1A 7671   0.661  16.921   8.862  0.1415 -0.1573 -0.3797
  480loPI   C2A 7672   0.491  16.975   8.448  0.1145 -0.3112 -0.1734
  480loPI   C3A 7673   0.538  17.121   8.052  0.1519 -0.0823 -0.0491
  480loPI   C4A 7674   0.629  17.112   7.631  0.0940  0.3527  0.2022
  480loPI   C5A 7675   0.441  16.914   7.342 -0.0920  0.2267 -0.2180
  480loPI   C6A 7676   0.103  16.650   7.094 -0.0882 -0.1582  0.2688
  480loPI   C1B 7677   0.274  16.544   8.809 -0.3970 -0.2194 -0.3532
  480loPI   C2B 7678   0.180  16.498   8.426 -0.3490 -0.1089 -0.1113
  480loPI   C3B 7679   0.207  16.589   8.023 -0.1800 -0.2755  0.0190
  480loPI   C4B 7680   0.136  16.612   7.608  0.0952 -0.0852  0.0359
  481loPI    C1 7681   5.532   5.009   9.680 -0.2279  0.1382 -0.1643
  481loPI    C2 7682   5.643   5.321   9.456 -0.2056  0.3672  0.1590
  481loPI    C3 7683   5.486   5.381   9.819 -0.1567 -0.0006  0.2448
  481loPI   PO4 7684   5.369   4.721   9.595 -0.1270 -0.0910  0.2118
  481loPI   GL1 7685   4.965   4.760   9.352 -0.2469 -0.2567 -0.2401
  481loPI   GL2 7686   5.141   4.483   9.238  0.2176  0.0579  0.1616
  481loPI   C1A 7687   5.049   4.982   8.898 -0.2377  0.2094 -0.1200
  481loPI   C2A 7688   5.422   4.850   8.685  0.1163 -0.0610 -0.0870
  481loPI   C3A 7689   5.656   4.754   8.185  0.3336  0.1901 -0.1706
  481loPI   C4A 7690   5.560   4.877   7.824  0.0277  0.1003 -0.1936
  481loPI   C5A 7691   5.386   5.179   7.512 -0.3935 -0.1284 -0.0980
  481loPI   C6A 7692   5.485   5.466   7.226  0.0545  0.2801 -0.0140
  481loPI   C1B 7693   5.351   4.368   8.846  0.3616  0.0427  0.1237
  481loPI   C2B 7694   5.232   4.069   8.391  0.1339 -0.3274 -0.3233
  481loPI   C3B 7695   5.462   3.717   8.111 -0.0984 -0.0652  0.1098
  481loPI   C4B 7696   5.595   3.647   7.703  0.3329 -0.0719  0.1430
  482loPI    C1 7697  13.308   9.282   9.622 -0.1045 -0.0363 -0.2158
  482loPI    C2 7698  13.436   9.583   9.853 -0.0938 -0.1291 -0.0999
  482loPI    C3 7699  13.157   9.330   9.990 -0.0144 -0.2446 -0.1502
  482loPI   PO4 7700  13.353   9.433   9.347  0.1778 -0.0377 -0.2050
  482loPI   GL1 7701  13.400   9.377   8.950  0.0876 -0.0750  0.2433
  482loPI   GL2 7702  13.405   9.066   8.847  0.1381  0.2368  0.0464
  482loPI   C1A 7703  13.693   9.386   8.515  0.2251 -0.0861  0.1551
  482loPI   C2A 7704  13.874   9.484   8.123 -0.1820  0.1887  0.0201
  482loPI   C3A 7705  13.768   9.636   7.765  0.1596 -0.0300  0.0506
  482loPI   C4A 7706  13.645   9.427   7.417 -0.0646 -0.0132 -0.2357
  482loPI   C5A 7707  13.822   9.148   7.056  0.0388  0.2004 -0.1272
  482loPI   C6A 7708  14.133   9.016   6.826 -0.0164  0.1235  0.1538
  482loPI   C1B 7709  13.371   9.052   8.386  0.1239 -0.0659  0.0952
  482loPI   C2B 7710  13.574   9.031   7.991  0.0227  0.4086 -0.0514
  482loPI   C3B 7711  13.614   9.003   7.623  0.0828 -0.2081 -0.1830
  482loPI   C4B 7712  13.451   8.860   7.280 -0.1928 -0.0596  0.0000
  483loPI    C1 7713   8.590  10.333   9.495  0.0811 -0.0065  0.2129
  483loPI    C2 7714   8.702  10.700   9.382  0.2701 -0.0801  0.1582
  483loPI    C3 7715   8.319  10.627   9.471  0.1679  0.0479 -0.1632
  483loPI   PO4 7716   8.660  10.126   9.281  0.2825  0.0133 -0.1276
  483loPI   GL1 7717   8.738  10.040   8.958  0.0781  0.0962  0.3710
  483loPI   GL2 7718   9.044   9.883   8.921  0.2001 -0.2617  0.0574
  483loPI   C1A 7719   8.554   9.815   8.646 -0.0472 -0.0095 -0.1262
  483loPI   C2A 7720   8.495   9.782   8.192  0.1192  0.3983  0.2199
  483loPI   C3A 7721   8.456   9.881   7.790  0.0462  0.3858  0.0392
  483loPI   C4A 7722   8.352   9.715   7.280  0.1487 -0.3733 -0.0595
  483loPI   C5A 7723   8.441   9.875   6.905  0.1909  0.1016 -0.2771
  483loPI   C6A 7724   8.534   9.940   6.549 -0.0433 -0.1051 -0.3311
  483loPI   C1B 7725   9.008   9.860   8.447 -0.2069  0.2047 -0.2296
  483loPI   C2B 7726   8.934   9.740   8.024 -0.0263 -0.0309  0.0107
  483loPI   C3B 7727   8.907   9.735   7.569  0.3935  0.1901 -0.1562
  483loPI   C4B 7728   8.881   9.925   7.249  0.0715  0.2653  0.2670
  484loPI    C1 7729  10.159   5.978   9.612 -0.0706  0.0438  0.1092
  484loPI    C2 7730  10.066   5.589   9.610 -0.1945  0.0725 -0.1600
  484loPI    C3 7731   9.785   5.862   9.531 -0.0659  0.2071 -0.1580
  484loPI   PO4 7732  10.355   5.986   9.512 -0.0650 -0.1227 -0.0556
  484loPI   GL1 7733  10.579   6.230   9.299 -0.0663 -0.0769 -0.0814
  484loPI   GL2 7734  10.549   5.916   9.071 -0.4110 -0.2015  0.2597
  484loPI   C1A 7735  10.352   6.468   8.951  0.4255  0.2024 -0.0280
  484loPI   C2A 7736  10.377   6.822   8.934 -0.2072 -0.1632  0.4959
  484loPI   C3A 7737  10.518   6.932   8.547  0.1644 -0.0778  0.0279
  484loPI   C4A 7738  10.570   6.983   8.099  0.0818  0.1241  0.2245
  484loPI   C5A 7739  10.700   6.889   7.678 -0.2240  0.0690 -0.1995
  484loPI   C6A 7740  10.713   6.815   7.210 -0.0034  0.1067 -0.1187
  484loPI   C1B 7741  10.487   6.061   8.627 -0.0299  0.0585 -0.1799
  484loPI   C2B 7742  10.601   6.053   8.179 -0.0963  0.2015  0.2739
  484loPI   C3B 7743  10.683   6.029   7.792  0.2372  0.1783 -0.0175
  484loPI   C4B 7744  10.611   6.124   7.390  0.0225 -0.2145  0.1190
  485loPI    C1 7745  19.364   9.008   9.796 -0.1239 -0.0657 -0.2267
  485loPI    C2 7746  19.016   8.945   9.983  0.1801 -0.1575  0.3305
  485loPI    C3 7747  19.242   9.260  10.082  0.3566 -0.2177  0.1252
  485loPI   PO4 7748  19.360   8.943   9.590 -0.1466  0.3725  0.1629
  485loPI   GL1 7749  19.416   9.084   9.254  0.1544 -0.0776 -0.1467
  485loPI   GL2 7750  19.112   9.259   9.181  0.0120 -0.0469 -0.3599
  485loPI   C1A 7751  19.605   9.097   8.864  0.4498  0.0903  0.1448
  485loPI   C2A 7752  19.469   9.201   8.399 -0.1290 -0.1931  0.1245
  485loPI   C3A 7753  19.396   9.123   8.020 -0.2154  0.1531 -0.2448
  485loPI   C4A 7754  19.356   9.257   7.640 -0.1472 -0.0360 -0.0071
  485loPI   C5A 7755  19.147   9.554   7.595 -0.1178  0.0133  0.0248
  485loPI   C6A 7756  19.085   9.456   7.130  0.0557  0.1841  0.1378
  485loPI   C1B 7757  19.090   9.181   8.749 -0.1669  0.2946 -0.0986
  485loPI   C2B 7758  19.006   9.119   8.278 -0.2481  0.2717  0.2324
  485loPI   C3B 7759  18.901   9.042   7.843 -0.1690  0.1359 -0.1098
  485loPI   C4B 7760  18.880   9.001   7.375  0.3290  0.0232 -0.3432
  486loPI    C1 7761   8.867   4.533   9.144  0.0852 -0.1344  0.0649
  486loPI    C2 7762   9.020   4.380   9.480  0.2650  0.1182  0.1004
  486loPI    C3 7763   8.882   4.756   9.475  0.0818  0.0506 -0.0577
  486loPI   PO4 7764   8.586   4.344   9.045 -0.3194 -0.3266  0.2588
  486loPI   GL1 7765   8.273   4.343   8.838 -0.2132  0.1839 -0.0008
  486loPI   GL2 7766   8.054   4.485   8.666  0.2441 -0.1603  0.4634
  486loPI   C1A 7767   8.272   4.204   8.371 -0.1949  0.0327  0.1364
  486loPI   C2A 7768   8.357   4.318   7.972  0.3531  0.1849  0.1353
  486loPI   C3A 7769   8.494   4.333   7.568  0.2506  0.2034 -0.1494
  486loPI   C4A 7770   8.712   4.370   7.103 -0.3373 -0.0989 -0.4291
  486loPI   C5A 7771   9.051   4.345   6.860  0.1352 -0.0637 -0.0505
  486loPI   C6A 7772   8.978   4.646   6.491  0.3077  0.1133  0.0164
  486loPI   C1B 7773   7.931   4.505   8.162  0.0725  0.4116  0.0297
  486loPI   C2B 7774   8.001   4.620   7.787 -0.1663  0.0873 -0.2664
  486loPI   C3B 7775   8.208   4.788   7.511 -0.0554 -0.0848  0.1609
  486loPI   C4B 7776   8.464   4.883   7.192  0.2977  0.2510 -0.0107
  487loPI    C1 7777   1.524  17.480   9.307 -0.3439 -0.0822 -0.2557
  487loPI    C2 7778   1.290  17.212   9.491 -0.1046 -0.0364  0.1274
  487loPI    C3 7779   1.478  17.493   9.705  0.2646 -0.0430 -0.1783
  487loPI   PO4 7780   1.623  17.372   9.165  0.1744 -0.3977 -0.1494
  487loPI   GL1 7781   1.607  16.844   9.086 -0.0875  0.1179  0.0800
  487loPI   GL2 7782   1.838  16.603   9.002 -0.0735 -0.2006 -0.2085
  487loPI   C1A 7783   1.373  16.989   8.735 -0.0206 -0.0350 -0.1569
  487loPI   C2A 7784   1.191  17.031   8.336 -0.0587 -0.0340 -0.1068
  487loPI   C3A 7785   1.034  17.016   7.945  0.1222  0.2975 -0.2252
  487loPI   C4A 7786   1.126  16.943   7.483 -0.0968  0.2756 -0.1968
  487loPI   C5A 7787   1.158  16.651   7.180  0.1383 -0.2537 -0.1357
  487loPI   C6A 7788   1.461  16.612   6.886 -0.0471  0.0252 -0.1182
  487loPI   C1B 7789   1.573  16.529   8.665 -0.0472  0.0983 -0.1582
  487loPI   C2B 7790   1.377  16.584   8.256  0.4622  0.3483  0.3074
  487loPI   C3B 7791   1.181  16.521   7.863 -0.0852 -0.0487  0.1565
  487loPI   C4B 7792   1.188  16.287   7.600 -0.0391  0.3626 -0.0909
  488loPI    C1 7793   9.330   1.274   9.530  0.1755  0.1799 -0.1762
  488loPI    C2 7794   9.525   1.180   9.866 -0.2084 -0.0701 -0.0165
  488loPI    C3 7795   9.515   0.921   9.561  0.0939  0.1342 -0.2058
  488loPI   PO4 7796   9.363   1.494   9.440 -0.0192 -0.0811  0.0266
  488loPI   GL1 7797   9.299   1.569   8.957 -0.0722 -0.2110  0.0035
  488loPI   GL2 7798   9.599   1.842   8.951 -0.4805  0.1926 -0.2514
  488loPI   C1A 7799   9.150   1.435   8.590 -0.1360  0.1641  0.1238
  488loPI   C2A 7800   9.068   1.283   8.102  0.3668  0.1556 -0.1401
  488loPI   C3A 7801   9.065   1.431   7.605  0.2490 -0.3335 -0.0620
  488loPI   C4A 7802   9.451   1.585   7.433  0.0260  0.1156  0.1758
  488loPI   C5A 7803   9.809   1.810   7.200  0.3176  0.5221 -0.3598
  488loPI   C6A 7804  10.060   1.930   6.846 -0.2116 -0.2663  0.1084
  488loPI   C1B 7805   9.637   1.391   8.666  0.1298 -0.3392 -0.2151
  488loPI   C2B 7806   9.527   1.221   8.277 -0.1394 -0.0488  0.5179
  488loPI   C3B 7807   9.530   1.100   7.811 -0.1865 -0.0860 -0.3733
  488loPI   C4B 7808   9.667   0.985   7.362 -0.0346  0.3268 -0.2217
  489loPI    C1 7809   3.986   3.208   9.384  0.0750  0.1468  0.0635
  489loPI    C2 7810   3.867   2.919   9.634  0.1225  0.0183 -0.0606
  489loPI    C3 7811   3.912   3.294   9.767 -0.1426  0.0116  0.0535
  489loPI   PO4 7812   3.916   3.109   9.168  0.2377 -0.2675  0.2542
  489loPI   GL1 7813   3.676   3.232   8.789  0.0394 -0.0926 -0.2224
  489loPI   GL2 7814   3.364   3.200   8.989 -0.0314  0.1350  0.2036
  489loPI   C1A 7815   3.687   3.262   8.357 -0.0130  0.3478 -0.1120
  489loPI   C2A 7816   3.643   3.347   7.997  0.1521 -0.1695 -0.0151
  489loPI   C3A 7817   3.773   3.480   7.562  0.2219 -0.0489  0.0795
  489loPI   C4A 7818   3.933   3.455   7.191 -0.1686  0.0038 -0.0174
  489loPI   C5A 7819   4.270   3.700   6.951 -0.0470  0.1053 -0.1786
  489loPI   C6A 7820   4.657   3.999   6.969 -0.2833  0.0660  0.0318
  489loPI   C1B 7821   3.243   3.069   8.634 -0.0088  0.1591  0.0095
  489loPI   C2B 7822   3.192   3.046   8.193 -0.0539 -0.1362 -0.2292
  489loPI   C3B 7823   3.291   3.084   7.771 -0.3936  0.2313  0.2246
  489loPI   C4B 7824   3.222   2.966   7.312 -0.0381  0.1740 -0.1855
  490loPI    C1 7825   2.737  10.421   9.356 -0.0185  0.0231 -0.2157
  490loPI    C2 7826   2.594  10.079   9.207 -0.1442 -0.0428  0.0497
  490loPI    C3 7827   2.441  10.229   9.544  0.2482  0.0139  0.2087
  490loPI   PO4 7828   2.821  10.555   9.137 -0.1191  0.1764 -0.0469
  490loPI   GL1 7829   2.687  10.289   8.762  0.3891  0.0436  0.0199
  490loPI   GL2 7830   2.366  10.430   8.862  0.0588 -0.1200  0.1963
  490loPI   C1A 7831   2.749  10.705   8.451  0.2252 -0.0141 -0.0105
  490loPI   C2A 7832   2.717  10.902   8.072 -0.0245 -0.0141 -0.0776
  490loPI   C3A 7833   2.753  10.996   7.556  0.0439 -0.0553 -0.1704
  490loPI   C4A 7834   2.330  10.986   7.353  0.0159  0.1081 -0.3319
  490loPI   C5A 7835   2.190  11.268   7.123  0.2708 -0.1464 -0.4234
  490loPI   C6A 7836   2.311  11.620   7.016 -0.2064 -0.0675  0.1950
  490loPI   C1B 7837   1.944  10.496   8.693 -0.0455  0.2389  0.2504
  490loPI   C2B 7838   1.806  10.604   8.259 -0.2157 -0.2145  0.0651
  490loPI   C3B 7839   2.049  10.644   7.932 -0.0045 -0.0049 -0.2288
  490loPI   C4B 7840   2.348  10.608   7.700  0.1032  0.0454 -0.2136
  491loPI    C1 7841   1.652   4.927   9.713 -0.0086  0.0739 -0.2948
  491loPI    C2 7842   1.952   5.076   9.931  0.0394 -0.0784 -0.2554
  491loPI    C3 7843   1.575   5.114  10.058  0.0659 -0.1535 -0.1520
  491loPI   PO4 7844   1.735   4.967   9.536 -0.2629  0.0558 -0.1645
  491loPI   GL1 7845   1.697   5.100   9.046 -0.1250 -0.2180  0.2427
  491loPI   GL2 7846   1.440   5.318   8.878  0.3915 -0.1729 -0.0248
  491loPI   C1A 7847   1.838   5.134   8.607  0.3030 -0.2436  0.0282
  491loPI   C2A 7848   1.784   5.291   8.124  0.0702 -0.0673 -0.1382
  491loPI   C3A 7849   1.835   5.492   7.665  0.1458  0.3154 -0.1111
  491loPI   C4A 7850   1.734   5.584   7.276 -0.1051 -0.4139 -0.0717
  491loPI   C5A 7851   1.435   5.801   7.116 -0.1871 -0.2057  0.0938
  491loPI   C6A 7852   1.271   6.054   6.822  0.2936  0.2260 -0.2047
  491loPI   C1B 7853   1.309   5.297   8.426 -0.0910 -0.0555  0.0456
  491loPI   C2B 7854   1.173   5.321   7.945 -0.1528 -0.1287  0.0981
  491loPI   C3B 7855   1.321   5.478   7.567  0.1144  0.2383 -0.2337
  491loPI   C4B 7856   1.153   5.435   7.190  0.2223 -0.0899  0.0861
  492loPI    C1 7857   2.642   7.528   9.689 -0.1042  0.1998 -0.1934
  492loPI    C2 7858   2.514   7.155   9.756 -0.1002  0.1890 -0.2456
  492loPI    C3 7859   2.257   7.461   9.774 -0.0897  0.1915 -0.1349
  492loPI   PO4 7860   2.887   7.480   9.660 -0.0843 -0.0660 -0.2141
  492loPI   GL1 7861   3.100   7.440   9.290 -0.1133 -0.0166  0.1848
  492loPI   GL2 7862   3.369   7.507   9.200 -0.2891  0.0192 -0.0288
  492loPI   C1A 7863   2.916   7.606   8.918  0.1597 -0.2181  0.1123
  492loPI   C2A 7864   2.978   7.594   8.551  0.1176 -0.1607 -0.0920
  492loPI   C3A 7865   3.031   7.553   8.126  0.0539 -0.0556  0.2586
  492loPI   C4A 7866   3.016   7.380   7.784 -0.5536  0.0335 -0.3964
  492loPI   C5A 7867   2.985   7.304   7.356  0.4011  0.4003  0.3585
  492loPI   C6A 7868   3.263   7.160   7.071 -0.1892  0.0129 -0.1487
  492loPI   C1B 7869   3.387   7.433   8.811 -0.0917 -0.2169  0.0824
  492loPI   C2B 7870   3.490   7.410   8.388  0.0361  0.4005  0.5224
  492loPI   C3B 7871   3.500   7.526   7.905 -0.0099  0.0289  0.0968
  492loPI   C4B 7872   3.395   7.460   7.512  0.0426  0.0569 -0.0170
  493loPI    C1 7873  18.594  15.647  10.452  0.1592  0.0520  0.1111
  493loPI    C2 7874  18.854  15.942  10.376  0.3830 -0.1585  0.0473
  493loPI    C3 7875  18.793  15.821  10.752  0.1650  0.0798  0.0915
  493loPI   PO4 7876  18.553  15.576  10.195  0.2245  0.2544 -0.0902
  493loPI   GL1 7877  18.727  15.785   9.868  0.0504  0.0315 -0.2386
  493loPI   GL2 7878  18.681  15.635   9.703  0.1061 -0.0853  0.1833
  493loPI   C1A 7879  19.011  15.967   9.487  0.0874 -0.0190  0.0649
  493loPI   C2A 7880  19.141  15.994   9.041  0.4559  0.0155  0.2102
  493loPI   C3A 7881  19.039  16.063   8.663  0.2026  0.0300  0.0508
  493loPI   C4A 7882  18.806  16.227   8.345  0.3254 -0.0205 -0.3728
  493loPI   C5A 7883  18.904  16.441   7.985  0.1016 -0.2340 -0.2140
  493loPI   C6A 7884  18.865  16.756   7.698 -0.3835  0.1125  0.1201
  493loPI   C1B 7885  18.592  15.804   9.277  0.1784  0.1902  0.1730
  493loPI   C2B 7886  18.658  15.925   8.978  0.2876  0.0531 -0.0520
  493loPI   C3B 7887  18.696  15.788   8.555  0.3775  0.0279 -0.0301
  493loPI   C4B 7888  18.762  15.626   8.129 -0.1076 -0.2767 -0.0610
  494loPI    C1 7889  17.833  14.732   9.731  0.2047 -0.0065 -0.1063
  494loPI    C2 7890  18.048  14.975   9.964  0.2950 -0.2329  0.0504
  494loPI    C3 7891  17.717  14.801  10.107  0.0554  0.0402 -0.1603
  494loPI   PO4 7892  17.950  14.501   9.601 -0.0531 -0.0778  0.1797
  494loPI   GL1 7893  18.107  14.641   9.169  0.1340  0.0607  0.1739
  494loPI   GL2 7894  18.196  14.824   8.925 -0.0277  0.0996 -0.4481
  494loPI   C1A 7895  17.727  14.842   8.987 -0.0372  0.1753  0.0450
  494loPI   C2A 7896  17.896  15.149   8.664  0.1737 -0.0129  0.4754
  494loPI   C3A 7897  17.729  15.331   8.328  0.1715  0.0111  0.2063
  494loPI   C4A 7898  17.540  15.523   8.018  0.1225 -0.0160 -0.3276
  494loPI   C5A 7899  17.425  15.499   7.681 -0.1961  0.0874 -0.1202
  494loPI   C6A 7900  17.403  15.729   7.311  0.1147  0.1915 -0.1076
  494loPI   C1B 7901  18.313  14.920   8.500 -0.1248  0.0262  0.2590
  494loPI   C2B 7902  18.077  15.041   8.171 -0.1869  0.2569  0.0229
  494loPI   C3B 7903  18.178  15.083   7.744  0.1518  0.1252 -0.1434
  494loPI   C4B 7904  17.912  15.093   7.368  0.0789  0.3726  0.1972
  495loPI    C1 7905  16.687  15.242  10.503  0.1207 -0.0498 -0.1679
  495loPI    C2 7906  16.913  14.912  10.507  0.1825 -0.0069  0.1123
  495loPI    C3 7907  16.524  14.888  10.594  0.1542 -0.0278 -0.0187
  495loPI   PO4 7908  16.710  15.286  10.189 -0.0444 -0.2026 -0.2568
  495loPI   GL1 7909  16.535  15.543   9.807 -0.2724 -0.1618 -0.1648
  495loPI   GL2 7910  16.464  15.841   9.635 -0.0394  0.0162  0.3237
  495loPI   C1A 7911  16.775  15.439   9.327  0.1756 -0.3986  0.0955
  495loPI   C2A 7912  16.779  15.655   8.795 -0.1765  0.0328 -0.0920
  495loPI   C3A 7913  16.827  15.841   8.426 -0.0684  0.0772 -0.2083
  495loPI   C4A 7914  16.949  15.794   7.904  0.0756 -0.2717 -0.0357
  495loPI   C5A 7915  16.940  15.740   7.535 -0.3213 -0.1140 -0.1056
  495loPI   C6A 7916  16.879  15.937   7.195 -0.2283  0.1720 -0.2443
  495loPI   C1B 7917  16.134  15.855   9.289 -0.0289  0.2029  0.0854
  495loPI   C2B 7918  16.255  15.813   8.811 -0.1299  0.0672  0.3093
  495loPI   C3B 7919  16.309  15.967   8.504  0.2310  0.0500  0.3781
  495loPI   C4B 7920  16.003  15.883   8.120 -0.3814  0.2045  0.1454
  496loPI    C1 7921   4.436   3.233   9.659  0.3805 -0.2054  0.0483
  496loPI    C2 7922   4.667   3.208   9.985 -0.0221  0.0062  0.3603
  496loPI    C3 7923   4.304   3.039   9.984 -0.0478  0.0579  0.0394
  496loPI   PO4 7924   4.472   3.440   9.546  0.1000  0.1100 -0.1695
  496loPI   GL1 7925   4.710   3.558   9.162 -0.1387 -0.1379 -0.0250
  496loPI   GL2 7926   5.053   3.579   9.013  0.2732 -0.1465 -0.0237
  496loPI   C1A 7927   4.645   3.616   8.728 -0.1314  0.0947 -0.0628
  496loPI   C2A 7928   4.679   3.766   8.232  0.1620 -0.0139  0.0543
  496loPI   C3A 7929   4.617   3.814   7.783 -0.1059  0.2088 -0.2814
  496loPI   C4A 7930   4.803   3.779   7.496  0.3097  0.0290  0.1103
  496loPI   C5A 7931   5.215   3.758   7.332  0.0640 -0.2406 -0.3949
  496loPI   C6A 7932   5.295   3.678   6.891  0.1268  0.2927  0.1737
  496loPI   C1B 7933   5.030   3.973   8.794  0.1312 -0.3756 -0.0117
  496loPI   C2B 7934   4.750   4.149   8.456 -0.0491 -0.2460 -0.1263
  496loPI   C3B 7935   4.677   4.259   8.075 -0.0513 -0.2447  0.5587
  496loPI   C4B 7936   5.046   4.071   7.822 -0.2099 -0.0293  0.2967
  497loPI    C1 7937  17.881  12.832   9.148 -0.1954  0.2859  0.0404
  497loPI    C2 7938  18.019  13.059   8.849 -0.0211  0.0924 -0.0289
  497loPI    C3 7939  18.234  13.017   9.183 -0.0731  0.0635  0.0011
  497loPI   PO4 7940  17.824  12.561   9.025  0.2119 -0.2514 -0.0794
  497loPI   GL1 7941  17.813  12.366   8.769 -0.0718  0.2026 -0.0936
  497loPI   GL2 7942  17.981  12.655   8.517  0.0073 -0.2082  0.2017
  497loPI   C1A 7943  17.584  12.383   8.341 -0.1664  0.0595 -0.0949
  497loPI   C2A 7944  17.633  12.273   7.976 -0.0515  0.1718 -0.1522
  497loPI   C3A 7945  17.676  12.342   7.551  0.1210 -0.3551 -0.1364
  497loPI   C4A 7946  17.691  12.442   7.154  0.1873 -0.0386 -0.2453
  497loPI   C5A 7947  17.636  12.543   6.695  0.2420 -0.0876 -0.0248
  497loPI   C6A 7948  17.597  12.468   6.250 -0.2283  0.0505  0.1533
  497loPI   C1B 7949  17.839  12.684   8.013 -0.1777 -0.1130 -0.2462
  497loPI   C2B 7950  17.817  12.837   7.571  0.0367 -0.0918  0.1360
  497loPI   C3B 7951  17.957  12.887   7.087 -0.0072 -0.1753 -0.0027
  497loPI   C4B 7952  18.213  12.705   6.888 -0.5619 -0.3292 -0.1379
  498loPI    C1 7953   1.901   4.106   9.354 -0.0669  0.1093  0.0681
  498loPI    C2 7954   2.187   4.186   9.623  0.1005  0.1660 -0.1245
  498loPI    C3 7955   1.812   4.119   9.744  0.2154 -0.0159  0.1397
  498loPI   PO4 7956   1.962   4.248   9.175 -0.3728  0.1075  0.1959
  498loPI   GL1 7957   1.676   4.398   8.870 -0.1234 -0.1709 -0.1164
  498loPI   GL2 7958   1.615   4.192   8.652  0.0044 -0.1244 -0.2031
  498loPI   C1A 7959   1.960   4.524   8.455 -0.0985  0.1902  0.0926
  498loPI   C2A 7960   2.034   4.813   8.071 -0.0873 -0.3265  0.1176
  498loPI   C3A 7961   1.900   5.023   7.726 -0.1130  0.1193  0.0244
  498loPI   C4A 7962   1.655   5.089   7.355  0.0191 -0.3820  0.2285
  498loPI   C5A 7963   1.673   5.104   6.861 -0.0540 -0.0340  0.0649
  498loPI   C6A 7964   1.639   5.100   6.391 -0.3748 -0.0118 -0.0134
  498loPI   C1B 7965   1.708   4.199   8.190 -0.0742 -0.3049 -0.0709
  498loPI   C2B 7966   1.863   4.008   7.797  0.3717  0.0002 -0.0225
  498loPI   C3B 7967   2.280   4.067   7.594 -0.2798 -0.1436 -0.2157
  498loPI   C4B 7968   2.428   4.391   7.302 -0.1073  0.1552  0.2456
  499loPI    C1 7969   0.205   6.538   9.767  0.1256  0.0405  0.0640
  499loPI    C2 7970   0.252   6.455  10.155  0.1089  0.1189  0.0830
  499loPI    C3 7971   0.002   6.746  10.042 -0.1973 -0.1734 -0.0075
  499loPI   PO4 7972   0.092   6.268   9.629 -0.0284  0.0783 -0.1211
  499loPI   GL1 7973   0.114   6.275   9.199  0.2705 -0.1691 -0.0635
  499loPI   GL2 7974  -0.300   6.281   9.089  0.1455 -0.1609  0.2254
  499loPI   C1A 7975   0.278   6.238   8.846  0.0757 -0.0988 -0.0321
  499loPI   C2A 7976   0.317   6.219   8.517 -0.2099 -0.1314  0.2574
  499loPI   C3A 7977   0.152   6.252   8.152  0.3037 -0.2267 -0.0668
  499loPI   C4A 7978  -0.018   6.191   7.741  0.2173  0.1369  0.0732
  499loPI   C5A 7979  -0.147   6.430   7.345  0.0677 -0.0557 -0.1246
  499loPI   C6A 7980  -0.489   6.504   7.023  0.1584 -0.3069  0.1514
  499loPI   C1B 7981  -0.362   6.398   8.610 -0.3346 -0.3633  0.0431
  499loPI   C2B 7982  -0.429   6.399   8.166 -0.1176 -0.3794 -0.0993
  499loPI   C3B 7983  -0.438   6.481   7.841  0.0466 -0.0155  0.2323
  499loPI   C4B 7984  -0.740   6.630   7.561  0.0003  0.0370 -0.0399
  500loPI    C1 7985  19.301  10.952   9.586 -0.0290  0.1314  0.1401
  500loPI    C2 7986  19.428  10.583   9.675  0.0972  0.0959 -0.1745
  500loPI    C3 7987  19.659  10.899   9.757  0.0836  0.0881 -0.1053
  500loPI   PO4 7988  19.187  10.933   9.359 -0.2852  0.1665  0.0343
  500loPI   GL1 7989  18.858  10.755   9.145  0.1104 -0.0300 -0.0634
  500loPI   GL2 7990  18.638  10.508   8.970  0.0661  0.2728 -0.2069
  500loPI   C1A 7991  18.883  10.983   8.730 -0.0919 -0.0288  0.1769
  500loPI   C2A 7992  18.976  10.921   8.219  0.2805 -0.2930 -0.0418
  500loPI   C3A 7993  18.971  10.672   7.732 -0.3391 -0.0977 -0.2130
  500loPI   C4A 7994  19.183  10.580   7.402  0.3114 -0.2521  0.0840
  500loPI   C5A 7995  19.329  10.574   6.940 -0.0904  0.1021  0.5291
  500loPI   C6A 7996  19.267  10.688   6.463 -0.1318  0.2764  0.0389
  500loPI   C1B 7997  18.732  10.596   8.562  0.0798 -0.0175 -0.0038
  500loPI   C2B 7998  18.775  10.467   8.126  0.1147 -0.0227 -0.1543
  500loPI   C3B 7999  18.588  10.255   7.826  0.1613 -0.1082  0.0140
  500loPI   C4B 8000  18.591  10.186   7.355  0.2918  0.1114  0.1241
  501loPI    C1 8001  11.262  15.806  10.310 -0.4031 -0.0344  0.1719
  501loPI    C2 8002  11.108  15.553  10.042 -0.1517 -0.0368  0.0268
  501loPI    C3 8003  11.244  15.415  10.391 -0.0970 -0.0908 -0.0156
  501loPI   PO4 8004  11.095  16.052  10.199 -0.1706  0.3177 -0.1149
  501loPI   GL1 8005  10.972  16.356   9.961  0.0356 -0.0345  0.5041
  501loPI   GL2 8006  11.134  16.563   9.637 -0.0965 -0.0717  0.1430
  501loPI   C1A 8007  10.872  15.957   9.597 -0.0370  0.0130  0.0890
  501loPI   C2A 8008  10.982  15.495   9.404  0.0737 -0.2404  0.2688
  501loPI   C3A 8009  10.918  15.147   8.997  0.2614  0.0106 -0.1237
  501loPI   C4A 8010  10.971  14.823   8.563 -0.3149 -0.0175 -0.0170
  501loPI   C5A 8011  11.077  14.856   8.082  0.2732 -0.3675  0.2408
  501loPI   C6A 8012  11.014  14.619   7.674  0.0457  0.0659 -0.0340
  501loPI   C1B 8013  11.127  16.275   9.306 -0.0521 -0.0571  0.1888
  501loPI   C2B 8014  11.023  15.991   9.011  0.1994  0.1591 -0.1172
  501loPI   C3B 8015  11.137  15.952   8.551 -0.0191  0.0729 -0.1437
  501loPI   C4B 8016  11.071  15.801   8.226 -0.0902  0.0771 -0.0579
  502loPI    C1 8017  16.144   7.735  10.112 -0.2443  0.2733  0.0718
  502loPI    C2 8018  15.948   7.470  10.338  0.0112  0.0119 -0.0067
  502loPI    C3 8019  16.268   7.660  10.485  0.0264  0.0300 -0.0634
  502loPI   PO4 8020  16.142   7.671   9.883 -0.2532  0.0096 -0.0212
  502loPI   GL1 8021  15.924   7.847   9.440  0.0263 -0.1848 -0.2077
  502loPI   GL2 8022  16.272   7.946   9.465 -0.4205  0.0188  0.0669
  502loPI   C1A 8023  16.032   7.914   9.013 -0.2849 -0.3818 -0.0149
  502loPI   C2A 8024  15.948   7.830   8.606 -0.1222  0.2330 -0.1544
  502loPI   C3A 8025  15.953   7.846   8.068 -0.0928 -0.1679 -0.2900
  502loPI   C4A 8026  16.242   7.992   7.666 -0.0806 -0.3301 -0.0833
  502loPI   C5A 8027  16.241   7.940   7.256  0.0565  0.3390  0.1029
  502loPI   C6A 8028  16.184   8.030   6.827 -0.2401 -0.1747  0.0149
  502loPI   C1B 8029  16.168   8.361   9.312 -0.2632 -0.1185 -0.0709
  502loPI   C2B 8030  16.250   8.710   8.953  0.0124 -0.3291 -0.0095
  502loPI   C3B 8031  16.309   8.866   8.509  0.0858 -0.2172  0.0958
  502loPI   C4B 8032  16.630   9.125   8.314  0.1058 -0.3133 -0.2504
  503loPI    C1 8033   2.861   0.709   9.101 -0.0481 -0.1733 -0.1405
  503loPI    C2 8034   2.988   0.882   9.439 -0.1691 -0.1626 -0.1001
  503loPI    C3 8035   3.248   0.803   9.145 -0.0441 -0.2669  0.0363
  503loPI   PO4 8036   2.649   0.802   9.039  0.3031 -0.1061 -0.0868
  503loPI   GL1 8037   2.580   0.851   8.587  0.0858  0.3882  0.0548
  503loPI   GL2 8038   2.755   0.670   8.421 -0.0731 -0.0279  0.2521
  503loPI   C1A 8039   2.518   1.186   8.335  0.1849 -0.3249 -0.0101
  503loPI   C2A 8040   2.263   1.312   7.989 -0.1037 -0.3763  0.2155
  503loPI   C3A 8041   2.137   1.451   7.667 -0.2255  0.4017 -0.0944
  503loPI   C4A 8042   1.940   1.135   7.366 -0.0364  0.0078  0.2180
  503loPI   C5A 8043   2.093   0.805   7.101 -0.0030 -0.2411  0.2503
  503loPI   C6A 8044   1.841   0.358   6.975 -0.3165 -0.2245  0.0689
  503loPI   C1B 8045   2.790   0.231   8.047 -0.2697  0.0749 -0.1716
  503loPI   C2B 8046   2.728  -0.013   7.656  0.0827 -0.0616 -0.2369
  503loPI   C3B 8047   2.903   0.116   7.283 -0.2327  0.4198 -0.4195
  503loPI   C4B 8048   2.915   0.205   6.881  0.0360 -0.0211 -0.0073
  504loPI    C1 8049  18.805   4.183   9.637  0.4093 -0.0985  0.0460
  504loPI    C2 8050  19.062   4.049   9.913  0.2519 -0.1318  0.1779
  504loPI    C3 8051  18.671   3.967   9.946  0.1658  0.2713  0.2067
  504loPI   PO4 8052  18.998   4.233   9.416  0.2024  0.1650  0.3145
  504loPI   GL1 8053  18.955   4.355   9.027  0.3231 -0.0694  0.2162
  504loPI   GL2 8054  18.973   4.700   8.908  0.1418  0.0272 -0.1398
  504loPI   C1A 8055  18.874   4.388   8.521 -0.0127  0.0386  0.0613
  504loPI   C2A 8056  18.797   4.622   8.163  0.2457 -0.0239 -0.1063
  504loPI   C3A 8057  18.480   4.801   8.005 -0.6081  0.4245  0.2986
  504loPI   C4A 8058  18.564   5.076   7.584 -0.1574 -0.1998  0.0034
  504loPI   C5A 8059  18.809   5.213   7.232 -0.3961  0.2284  0.1853
  504loPI   C6A 8060  19.199   5.508   7.094 -0.0399  0.2366 -0.2224
  504loPI   C1B 8061  19.188   4.806   8.491  0.0737 -0.1778 -0.1900
  504loPI   C2B 8062  19.283   4.704   7.998  0.2901 -0.3545  0.2282
  504loPI   C3B 8063  18.936   4.752   7.662 -0.1748  0.2871 -0.0012
  504loPI   C4B 8064  18.672   4.526   7.624  0.0998 -0.0155 -0.4571
  505loPI    C1 8065  19.209   2.670   9.199  0.2357  0.2403 -0.0530
  505loPI    C2 8066  19.035   2.661   9.559 -0.0810  0.1632 -0.2043
  505loPI    C3 8067  19.426   2.737   9.528  0.0208 -0.1694  0.1807
  505loPI   PO4 8068  18.977   2.872   9.065  0.3705 -0.1314  0.0144
  505loPI   GL1 8069  18.864   2.920   8.697  0.3672 -0.0004 -0.0757
  505loPI   GL2 8070  18.603   2.659   8.774  0.0905  0.1376 -0.0008
  505loPI   C1A 8071  18.627   3.076   8.271 -0.0255  0.2606 -0.4624
  505loPI   C2A 8072  18.785   3.170   7.810 -0.0206  0.2645 -0.0122
  505loPI   C3A 8073  18.809   3.341   7.458  0.0273  0.1620  0.0271
  505loPI   C4A 8074  18.881   3.228   7.055 -0.1275 -0.1601  0.1108
  505loPI   C5A 8075  18.692   3.095   6.677  0.0659 -0.1545  0.1139
  505loPI   C6A 8076  18.351   3.026   6.387 -0.1597  0.1243  0.0878
  505loPI   C1B 8077  18.625   2.580   8.418  0.2025  0.1547 -0.1338
  505loPI   C2B 8078  18.623   2.674   7.980  0.0822 -0.0522 -0.3154
  505loPI   C3B 8079  18.744   2.741   7.553 -0.1663  0.0812 -0.2142
  505loPI   C4B 8080  18.840   2.656   6.996  0.0063 -0.0316 -0.5229
  506loPI    C1 8081  11.330   7.896   9.734 -0.0987  0.1324 -0.0663
  506loPI    C2 8082  11.100   7.785  10.042  0.0691 -0.0553 -0.0063
  506loPI    C3 8083  10.977   8.074   9.795 -0.1014  0.0441  0.1916
  506loPI   PO4 8084  11.360   7.632   9.578  0.1993 -0.3254 -0.0781
  506loPI   GL1 8085  11.362   7.555   9.163  0.1271  0.0635  0.0193
  506loPI   GL2 8086  11.360   7.144   9.052  0.0320  0.0566 -0.1435
  506loPI   C1A 8087  11.770   7.786   8.821  0.2601 -0.1406 -0.3156
  506loPI   C2A 8088  11.777   7.944   8.407 -0.0308 -0.0792  0.0564
  506loPI   C3A 8089  11.627   7.949   7.954  0.3739  0.2126  0.0200
  506loPI   C4A 8090  11.663   8.220   7.581  0.2417 -0.0183 -0.0964
  506loPI   C5A 8091  11.429   8.280   7.301  0.0681 -0.0694 -0.1029
  506loPI   C6A 8092  11.525   8.529   6.860 -0.0421 -0.0816 -0.1385
  506loPI   C1B 8093  11.378   7.338   8.705 -0.2591 -0.2663  0.2441
  506loPI   C2B 8094  11.446   7.575   8.228  0.0247  0.2383 -0.2375
  506loPI   C3B 8095  11.486   7.440   7.862 -0.4362  0.1612 -0.2039
  506loPI   C4B 8096  11.600   7.358   7.379  0.0979 -0.1526 -0.1008
  507loPI    C1 8097  18.772  17.949   9.794 -0.0495  0.0140 -0.0794
  507loPI    C2 8098  18.606  18.308   9.736  0.0121  0.0462 -0.0557
  507loPI    C3 8099  18.851  18.248  10.047 -0.3547 -0.1392  0.2051
  507loPI   PO4 8100  18.803  17.864   9.483 -0.0856  0.0490 -0.1789
  507loPI   GL1 8101  18.746  17.806   9.169  0.0023 -0.0361 -0.0092
  507loPI   GL2 8102  18.520  17.620   9.072  0.1920  0.2686 -0.0877
  507loPI   C1A 8103  18.651  17.940   8.702 -0.0469  0.1086 -0.2664
  507loPI   C2A 8104  18.674  17.826   8.221 -0.0907 -0.3126  0.1893
  507loPI   C3A 8105  18.873  17.562   7.842  0.0566 -0.1752 -0.1877
  507loPI   C4A 8106  18.849  17.328   7.450 -0.1112  0.2319 -0.0553
  507loPI   C5A 8107  18.930  17.049   7.084 -0.0881 -0.0757  0.0929
  507loPI   C6A 8108  18.638  16.846   6.829  0.1169 -0.0383 -0.1635
  507loPI   C1B 8109  18.464  17.487   8.665 -0.0966 -0.1631 -0.1427
  507loPI   C2B 8110  18.262  17.563   8.303 -0.2072 -0.1149 -0.3303
  507loPI   C3B 8111  18.130  17.592   7.902 -0.0863 -0.2415  0.0984
  507loPI   C4B 8112  17.893  17.850   7.504 -0.1325 -0.0973 -0.1104
  508loPI    C1 8113  14.489  16.468   9.921  0.0591  0.0984 -0.0538
  508loPI    C2 8114  14.137  16.456  10.111 -0.0438 -0.1280 -0.2534
  508loPI    C3 8115  14.381  16.769  10.161 -0.2430 -0.0009 -0.0608
  508loPI   PO4 8116  14.366  16.451   9.650  0.1928  0.0176 -0.0088
  508loPI   GL1 8117  14.362  16.419   9.242  0.0436  0.0890 -0.0293
  508loPI   GL2 8118  14.050  16.732   9.189  0.1109  0.2603  0.0691
  508loPI   C1A 8119  14.327  16.287   8.782 -0.0316 -0.1540  0.2839
  508loPI   C2A 8120  14.539  16.149   8.493 -0.2398  0.2277  0.3032
  508loPI   C3A 8121  14.374  16.051   8.086  0.3109 -0.1485  0.3940
  508loPI   C4A 8122  14.180  15.865   7.684  0.0979  0.0170 -0.2279
  508loPI   C5A 8123  14.271  15.468   7.434 -0.0245  0.3394  0.0279
  508loPI   C6A 8124  14.124  15.111   7.397 -0.1390 -0.1564  0.0687
  508loPI   C1B 8125  14.148  16.750   8.683  0.0426  0.1414  0.0847
  508loPI   C2B 8126  14.190  16.493   8.292 -0.0230  0.0567 -0.1546
  508loPI   C3B 8127  13.985  16.322   7.937 -0.1105 -0.2923 -0.1573
  508loPI   C4B 8128  13.732  16.144   7.652  0.0474 -0.0121 -0.1517
  509loPI    C1 8129   6.164  15.798   9.678 -0.1187  0.0956 -0.1626
  509loPI    C2 8130   6.235  16.189   9.720  0.3254  0.0141 -0.1128
  509loPI    C3 8131   6.216  15.954  10.043  0.2435 -0.0359 -0.1539
  509loPI   PO4 8132   6.336  15.763   9.454 -0.0356  0.1120 -0.0820
  509loPI   GL1 8133   6.301  16.109   9.176  0.1408  0.0076  0.2108
  509loPI   GL2 8134   5.971  15.841   9.078 -0.3984 -0.3511  0.2026
  509loPI   C1A 8135   6.497  16.021   8.830 -0.0001 -0.0786  0.1201
  509loPI   C2A 8136   6.746  15.890   8.523 -0.2214  0.0909 -0.0508
  509loPI   C3A 8137   6.854  15.815   8.229 -0.2949 -0.1612  0.3042
  509loPI   C4A 8138   6.849  15.722   7.803  0.0395  0.0747  0.0119
  509loPI   C5A 8139   6.617  15.760   7.437  0.3874 -0.4167  0.0930
  509loPI   C6A 8140   6.341  16.006   7.145 -0.0346 -0.1809  0.1424
  509loPI   C1B 8141   6.205  15.599   8.767 -0.2746 -0.0738 -0.0532
  509loPI   C2B 8142   6.386  15.513   8.473  0.0587 -0.0368 -0.1476
  509loPI   C3B 8143   6.297  15.577   8.019  0.0220  0.2598  0.1082
  509loPI   C4B 8144   6.109  15.705   7.542 -0.3118 -0.0158  0.0320
  510loPI    C1 8145  16.499  19.373   9.348  0.0567 -0.0874 -0.0667
  510loPI    C2 8146  16.662  19.125   9.616  0.1124 -0.0644 -0.0791
  510loPI    C3 8147  16.777  19.508   9.603 -0.1973  0.0395  0.1471
  510loPI   PO4 8148  16.528  19.293   9.186 -0.1100  0.2589  0.2806
  510loPI   GL1 8149  16.408  19.465   8.846 -0.1739  0.0792 -0.1008
  510loPI   GL2 8150  16.541  19.757   8.781 -0.0299 -0.0770  0.3213
  510loPI   C1A 8151  16.462  19.361   8.414 -0.1839 -0.1120  0.1489
  510loPI   C2A 8152  16.383  19.375   8.067  0.0617 -0.2395  0.0687
  510loPI   C3A 8153  16.561  19.269   7.720 -0.2943  0.0081 -0.2018
  510loPI   C4A 8154  16.630  19.445   7.356 -0.1907  0.1834  0.1533
  510loPI   C5A 8155  16.390  19.520   6.960 -0.1416 -0.2653 -0.0683
  510loPI   C6A 8156  16.040  19.746   6.844 -0.0517 -0.2353 -0.2855
  510loPI   C1B 8157  16.607  19.857   8.386  0.1542  0.2263  0.5506
  510loPI   C2B 8158  16.630  19.921   7.950 -0.4887  0.0491  0.1623
  510loPI   C3B 8159  16.653  19.941   7.513  0.1794 -0.0115  0.3172
  510loPI   C4B 8160  16.691  19.922   7.121  0.0925 -0.0706  0.2774
  511loPI    C1 8161  12.351   8.842   9.780 -0.0981  0.2898 -0.1492
  511loPI    C2 8162  12.067   8.943  10.042 -0.2396 -0.0565 -0.1641
  511loPI    C3 8163  12.409   8.780  10.171 -0.1731  0.0759 -0.1711
  511loPI   PO4 8164  12.245   8.812   9.535  0.3906 -0.2087 -0.1173
  511loPI   GL1 8165  11.988   9.025   9.291  0.0266 -0.3215 -0.2041
  511loPI   GL2 8166  12.168   9.289   9.204  0.0331 -0.2362  0.1653
  511loPI   C1A 8167  11.899   8.752   8.973 -0.2656 -0.2459 -0.0270
  511loPI   C2A 8168  11.755   8.707   8.600 -0.2223 -0.0908 -0.0695
  511loPI   C3A 8169  11.812   8.867   8.201  0.0325 -0.0328 -0.2047
  511loPI   C4A 8170  11.764   8.748   7.726 -0.0802 -0.0333 -0.2348
  511loPI   C5A 8171  11.928   8.682   7.352  0.0076  0.1447  0.1351
  511loPI   C6A 8172  12.210   8.764   7.071  0.3183  0.0882 -0.1463
  511loPI   C1B 8173  12.096   9.230   8.766 -0.0951 -0.1737  0.2804
  511loPI   C2B 8174  12.059   9.290   8.414  0.1142  0.6648  0.2136
  511loPI   C3B 8175  12.065   9.252   7.988  0.1208  0.2347  0.2111
  511loPI   C4B 8176  12.149   9.269   7.506  0.0132  0.3155  0.2397
  512loPI    C1 8177  11.720  15.207  10.304  0.0481  0.0329  0.0364
  512loPI    C2 8178  11.640  15.032  10.655 -0.1612 -0.0414 -0.0469
  512loPI    C3 8179  12.016  15.047  10.520 -0.0847 -0.0436  0.1633
  512loPI   PO4 8180  11.490  15.025  10.128  0.0546 -0.0807 -0.0107
  512loPI   GL1 8181  11.294  15.137   9.838  0.1186 -0.1635  0.1395
  512loPI   GL2 8182  11.382  15.402   9.627 -0.1703 -0.1294  0.1509
  512loPI   C1A 8183  11.131  14.953   9.482  0.1832  0.0272 -0.1177
  512loPI   C2A 8184  10.758  14.714   9.246 -0.1641 -0.0483 -0.0522
  512loPI   C3A 8185  10.503  14.741   8.850 -0.2103 -0.0609 -0.1019
  512loPI   C4A 8186  10.253  14.518   8.455  0.0698  0.0061 -0.2356
  512loPI   C5A 8187  10.070  14.256   7.954 -0.1888 -0.3069 -0.1407
  512loPI   C6A 8188   9.675  14.031   8.069 -0.1851  0.2035 -0.1555
  512loPI   C1B 8189  11.375  15.225   9.115 -0.0689  0.0025 -0.2196
  512loPI   C2B 8190  11.396  15.119   8.710 -0.1771 -0.0257 -0.0818
  512loPI   C3B 8191  11.566  14.899   8.340 -0.1239 -0.1174 -0.0991
  512loPI   C4B 8192  11.679  14.716   8.051 -0.0509  0.0595  0.1851
  513loPI    C1 8193   1.426  11.983   9.604  0.0399 -0.1265  0.0886
  513loPI    C2 8194   1.190  12.290   9.705  0.0522 -0.0932  0.0163
  513loPI    C3 8195   1.577  12.353   9.625  0.0982 -0.1556  0.1858
  513loPI   PO4 8196   1.357  11.936   9.398 -0.0484  0.2170  0.5486
  513loPI   GL1 8197   1.421  11.850   8.999 -0.0073 -0.0692  0.2267
  513loPI   GL2 8198   1.149  11.796   8.749 -0.1749 -0.3259  0.0642
  513loPI   C1A 8199   1.637  11.872   8.670  0.2618  0.0579 -0.5291
  513loPI   C2A 8200   1.734  11.977   8.233 -0.1355  0.0269 -0.3595
  513loPI   C3A 8201   1.761  12.052   7.785  0.0688  0.0757 -0.0586
  513loPI   C4A 8202   2.092  12.102   7.467  0.0179 -0.0241 -0.1333
  513loPI   C5A 8203   2.487  11.980   7.481 -0.2365  0.2918 -0.2626
  513loPI   C6A 8204   2.811  11.824   7.201  0.2056 -0.2130 -0.0413
  513loPI   C1B 8205   1.272  11.793   8.355  0.1709  0.0638  0.2670
  513loPI   C2B 8206   1.302  11.844   7.954  0.1034  0.0113 -0.1013
  513loPI   C3B 8207   1.041  11.897   7.615  0.3127 -0.0208 -0.1972
  513loPI   C4B 8208   1.024  11.961   7.186  0.1129  0.0962 -0.0481
  514loPI    C1 8209   0.705  15.391   9.856 -0.0867  0.0915 -0.1536
  514loPI    C2 8210   0.413  15.390  10.130  0.1305  0.3685  0.0859
  514loPI    C3 8211   0.602  15.050  10.037 -0.1894  0.2077  0.0096
  514loPI   PO4 8212   0.599  15.550   9.653 -0.2663 -0.1706 -0.0917
  514loPI   GL1 8213   0.686  15.714   9.243  0.0276  0.0351 -0.0549
  514loPI   GL2 8214   0.468  16.021   9.397 -0.1657  0.0234  0.1542
  514loPI   C1A 8215   0.470  15.674   8.774 -0.0809  0.0193 -0.1732
  514loPI   C2A 8216   0.565  15.756   8.325 -0.0434  0.0310 -0.1953
  514loPI   C3A 8217   0.466  15.760   7.877 -0.2718  0.0622  0.0954
  514loPI   C4A 8218   0.304  15.706   7.444  0.0953 -0.0447  0.1138
  514loPI   C5A 8219  -0.198  15.598   7.367  0.2965 -0.1698 -0.2954
  514loPI   C6A 8220  -0.695  15.657   7.181  0.1827  0.3311 -0.1029
  514loPI   C1B 8221   0.142  16.094   8.988 -0.1562 -0.0072  0.1104
  514loPI   C2B 8222   0.175  16.027   8.538 -0.0474  0.1209  0.0763
  514loPI   C3B 8223   0.003  16.134   8.101 -0.0278 -0.0371  0.0248
  514loPI   C4B 8224  -0.074  16.031   7.753 -0.2426 -0.0401  0.0828
  515loPI    C1 8225   7.615  19.157   9.847  0.0697 -0.1680 -0.0786
  515loPI    C2 8226   7.655  18.837  10.083  0.3095 -0.1404 -0.0790
  515loPI    C3 8227   7.797  19.192  10.201 -0.0563 -0.0061 -0.0283
  515loPI   PO4 8228   7.430  18.984   9.635 -0.1323 -0.0816 -0.1113
  515loPI   GL1 8229   7.440  18.833   9.251  0.0065 -0.0793 -0.1536
  515loPI   GL2 8230   7.332  19.120   9.150  0.5520  0.0218  0.0592
  515loPI   C1A 8231   7.225  18.698   8.880 -0.1524 -0.1442 -0.1885
  515loPI   C2A 8232   7.016  18.551   8.594  0.1947  0.0452  0.0558
  515loPI   C3A 8233   7.081  18.361   8.136 -0.1624 -0.2249 -0.1516
  515loPI   C4A 8234   7.065  18.315   7.730 -0.4579 -0.2367 -0.3202
  515loPI   C5A 8235   6.827  18.420   7.312 -0.2109  0.0535 -0.1780
  515loPI   C6A 8236   7.022  18.616   6.978 -0.0266  0.1301  0.3529
  515loPI   C1B 8237   7.529  19.187   8.726 -0.2283 -0.3487 -0.1232
  515loPI   C2B 8238   7.590  19.306   8.292  0.0367 -0.0132 -0.1130
  515loPI   C3B 8239   7.748  19.324   7.906 -0.1431 -0.0920  0.3550
  515loPI   C4B 8240   8.151  19.513   7.702 -0.1099 -0.0661  0.0324
  516loPI    C1 8241   6.613   9.671   9.398  0.1372 -0.0713  0.2059
  516loPI    C2 8242   6.523  10.061   9.384  0.2145 -0.0618 -0.0847
  516loPI    C3 8243   6.748   9.918   9.683 -0.0872  0.0561  0.2042
  516loPI   PO4 8244   6.438   9.669   9.085 -0.1042 -0.0310  0.0897
  516loPI   GL1 8245   6.529   9.801   8.722 -0.2713 -0.0287  0.0698
  516loPI   GL2 8246   6.810   9.752   8.702 -0.1437  0.2181 -0.2645
  516loPI   C1A 8247   6.477   9.970   8.346 -0.3078 -0.1624  0.0291
  516loPI   C2A 8248   6.222   9.820   7.969  0.0284 -0.1227 -0.0779
  516loPI   C3A 8249   6.098   9.614   7.661  0.0617 -0.1884 -0.0148
  516loPI   C4A 8250   6.153   9.477   7.191 -0.2943 -0.1936  0.1952
  516loPI   C5A 8251   6.437   9.333   6.931  0.0162  0.2835  0.2669
  516loPI   C6A 8252   6.932   9.363   6.827 -0.1295  0.0760 -0.0214
  516loPI   C1B 8253   6.817   9.573   8.364  0.1673  0.1114 -0.0652
  516loPI   C2B 8254   6.721   9.280   8.049  0.0923 -0.1150 -0.1441
  516loPI   C3B 8255   6.456   8.943   8.212 -0.1699 -0.0678 -0.1096
  516loPI   C4B 8256   6.134   8.676   8.102  0.0738  0.0333 -0.1378
  517loPI    C1 8257  18.244  10.922   9.495  0.1180  0.0632 -0.0838
  517loPI    C2 8258  18.319  10.982   9.883 -0.0645 -0.0676 -0.0273
  517loPI    C3 8259  17.983  11.126   9.719  0.0432  0.0436 -0.1523
  517loPI   PO4 8260  18.469  10.987   9.372 -0.1379  0.1448  0.1654
  517loPI   GL1 8261  18.387  11.122   8.947 -0.2016  0.2098 -0.0212
  517loPI   GL2 8262  18.263  11.275   8.737 -0.0022 -0.0172  0.0393
  517loPI   C1A 8263  18.498  11.041   8.404  0.0360  0.0464 -0.4941
  517loPI   C2A 8264  18.455  10.929   7.958  0.1973  0.0651 -0.2637
  517loPI   C3A 8265  18.487  10.776   7.548  0.0425 -0.1918  0.2340
  517loPI   C4A 8266  18.759  10.810   7.186  0.3089  0.1442 -0.1089
  517loPI   C5A 8267  18.840  10.381   6.988 -0.2323 -0.2196  0.1900
  517loPI   C6A 8268  18.927   9.975   7.003 -0.1185  0.0688 -0.0110
  517loPI   C1B 8269  18.247  11.547   8.384  0.1195 -0.0272  0.1990
  517loPI   C2B 8270  18.285  11.433   7.987  0.0326  0.1966  0.3869
  517loPI   C3B 8271  18.378  11.299   7.638  0.3329 -0.3545  0.2071
  517loPI   C4B 8272  18.307  11.176   7.248 -0.0103  0.2363 -0.6376
  518loPI    C1 8273   5.040  19.429   9.086 -0.0269 -0.0620 -0.1788
  518loPI    C2 8274   5.088  19.769   9.290 -0.1533 -0.0498 -0.1680
  518loPI    C3 8275   4.742  19.570   9.313 -0.1166 -0.1244 -0.2569
  518loPI   PO4 8276   5.277  19.462   8.904 -0.1308 -0.0773  0.2868
  518loPI   GL1 8277   5.338  19.082   8.648  0.1308 -0.1267 -0.1557
  518loPI   GL2 8278   5.578  18.890   8.745 -0.2266  0.2093  0.2716
  518loPI   C1A 8279   5.278  19.284   8.240  0.1407  0.1049 -0.0539
  518loPI   C2A 8280   5.456  19.228   7.796 -0.1790 -0.0533 -0.1982
  518loPI   C3A 8281   5.616  19.098   7.376  0.3764 -0.0698 -0.0294
  518loPI   C4A 8282   5.595  19.248   6.937 -0.1214  0.2903  0.0744
  518loPI   C5A 8283   5.904  19.285   6.500 -0.0064 -0.2061  0.2109
  518loPI   C6A 8284   6.145  19.514   6.220  0.2407  0.2196 -0.0529
  518loPI   C1B 8285   5.655  18.897   8.260 -0.2223 -0.2475 -0.2313
  518loPI   C2B 8286   5.794  18.834   7.762  0.1636 -0.2968 -0.4190
  518loPI   C3B 8287   5.668  18.646   7.353  0.0692  0.2395 -0.1681
  518loPI   C4B 8288   5.926  18.186   7.225  0.2320 -0.3674 -0.0842
  519loPI    C1 8289   1.326   2.066   9.617 -0.0781  0.0088 -0.1260
  519loPI    C2 8290   1.419   1.856   9.289  0.2831 -0.1780  0.0895
  519loPI    C3 8291   1.261   1.671   9.607 -0.1172  0.0112  0.0070
  519loPI   PO4 8292   1.282   2.269   9.502  0.3019 -0.2708 -0.0386
  519loPI   GL1 8293   1.290   2.382   9.019  0.1387  0.0635 -0.0432
  519loPI   GL2 8294   1.083   2.298   9.005 -0.0525 -0.0720  0.1106
  519loPI   C1A 8295   1.498   2.469   8.593  0.2091  0.1065  0.0804
  519loPI   C2A 8296   1.430   2.261   8.182  0.1194  0.0024 -0.0576
  519loPI   C3A 8297   1.558   2.184   7.784  0.1046  0.2865 -0.0103
  519loPI   C4A 8298   1.498   2.331   7.456 -0.0153 -0.0835 -0.1311
  519loPI   C5A 8299   1.256   2.517   7.133  0.1634  0.1964  0.1399
  519loPI   C6A 8300   1.514   2.736   6.997 -0.0647 -0.0199 -0.0411
  519loPI   C1B 8301   1.012   2.252   8.539 -0.0283  0.1097  0.1872
  519loPI   C2B 8302   0.858   2.022   8.078 -0.0910 -0.3137 -0.2506
  519loPI   C3B 8303   1.030   2.113   7.555 -0.2077  0.1674 -0.0062
  519loPI   C4B 8304   1.241   1.998   7.156  0.1971  0.1813 -0.2144
  520loPI    C1 8305  15.451  15.253   9.628 -0.1031 -0.0810  0.0105
  520loPI    C2 8306  15.528  15.470   9.956  0.1183  0.2279 -0.2392
  520loPI    C3 8307  15.229  15.204   9.957  0.2325  0.0911  0.2695
  520loPI   PO4 8308  15.428  15.472   9.423 -0.2991 -0.1798  0.0380
  520loPI   GL1 8309  15.626  15.687   9.055 -0.2320  0.1646 -0.1611
  520loPI   GL2 8310  15.865  15.439   8.942  0.1352 -0.3470  0.0085
  520loPI   C1A 8311  15.483  15.747   8.683  0.2131  0.1711 -0.1307
  520loPI   C2A 8312  15.481  15.804   8.257  0.0044 -0.2041  0.0853
  520loPI   C3A 8313  15.631  16.048   7.828  0.0110  0.1238  0.0636
  520loPI   C4A 8314  15.633  16.031   7.348  0.1079  0.3080 -0.0845
  520loPI   C5A 8315  15.293  15.835   7.120 -0.0075  0.2699  0.1366
  520loPI   C6A 8316  15.238  15.662   6.776  0.1662  0.0670  0.1914
  520loPI   C1B 8317  15.872  15.550   8.460  0.1552  0.3440  0.1197
  520loPI   C2B 8318  16.115  15.270   8.068 -0.1265 -0.0823 -0.6749
  520loPI   C3B 8319  16.197  15.446   7.631  0.2237  0.1998 -0.0670
  520loPI   C4B 8320  16.098  15.353   7.190  0.0014 -0.2717  0.4356
  521loPI    C1 8321  16.766   1.511   9.387  0.0570 -0.0052  0.1802
  521loPI    C2 8322  16.991   1.206   9.513  0.0093 -0.2280 -0.2567
  521loPI    C3 8323  16.872   1.486   9.772  0.5430 -0.2599  0.0382
  521loPI   PO4 8324  16.567   1.433   9.321 -0.2133 -0.0119 -0.0330
  521loPI   GL1 8325  16.328   1.200   9.012  0.1675  0.0789 -0.1128
  521loPI   GL2 8326  16.437   1.119   8.663 -0.0903 -0.2082  0.1374
  521loPI   C1A 8327  16.061   1.467   8.798  0.0770 -0.3598  0.1608
  521loPI   C2A 8328  15.943   1.584   8.446 -0.0074  0.1690  0.0669
  521loPI   C3A 8329  15.984   1.562   7.906 -0.0135  0.1433  0.0919
  521loPI   C4A 8330  15.858   1.799   7.567  0.0239  0.3076 -0.1403
  521loPI   C5A 8331  15.933   2.108   7.214 -0.1596 -0.0958 -0.0448
  521loPI   C6A 8332  16.232   2.184   6.860  0.0345  0.3209 -0.0835
  521loPI   C1B 8333  16.248   1.177   8.166  0.0043  0.1614  0.0371
  521loPI   C2B 8334  15.935   1.046   7.833  0.2956 -0.2767  0.2134
  521loPI   C3B 8335  15.572   1.347   7.644  0.1490 -0.0661  0.2142
  521loPI   C4B 8336  15.329   1.451   7.723  0.2558 -0.2324  0.1394
  522loPI    C1 8337   7.339   6.495   9.596  0.0711 -0.0691  0.0881
  522loPI    C2 8338   7.444   6.865   9.704  0.0331  0.0150 -0.1563
  522loPI    C3 8339   7.231   6.637   9.954  0.0975  0.1397  0.0145
  522loPI   PO4 8340   7.328   6.505   9.377  0.3232 -0.2993 -0.0567
  522loPI   GL1 8341   7.123   6.324   9.002 -0.1712  0.1073 -0.0014
  522loPI   GL2 8342   7.383   6.544   8.885  0.3204  0.2693  0.1620
  522loPI   C1A 8343   7.025   6.172   8.666 -0.1028 -0.1239 -0.0582
  522loPI   C2A 8344   6.992   5.804   8.434 -0.2589  0.0373 -0.2335
  522loPI   C3A 8345   6.976   5.502   8.159 -0.1271 -0.2111 -0.0774
  522loPI   C4A 8346   6.978   5.428   7.717  0.2527 -0.1555 -0.0514
  522loPI   C5A 8347   7.252   5.665   7.378 -0.2864  0.0840 -0.2379
  522loPI   C6A 8348   7.698   5.712   7.218  0.0668 -0.1953 -0.1867
  522loPI   C1B 8349   7.686   6.805   8.767 -0.0081  0.4145  0.0290
  522loPI   C2B 8350   7.839   6.777   8.389  0.2086 -0.5723  0.0842
  522loPI   C3B 8351   8.070   6.904   8.012  0.1511 -0.1857  0.2252
  522loPI   C4B 8352   8.212   6.954   7.608 -0.3093 -0.1053  0.0809
  523loPI    C1 8353   0.836  18.751   9.604  0.2627  0.4245 -0.2465
  523loPI    C2 8354   0.637  19.096   9.638 -0.2651  0.1044  0.0610
  523loPI    C3 8355   0.651  18.842   9.947  0.2067 -0.1084 -0.1255
  523loPI   PO4 8356   0.835  18.668   9.395  0.2154  0.0932  0.1867
  523loPI   GL1 8357   0.674  18.707   8.908  0.1221 -0.2885 -0.5335
  523loPI   GL2 8358   0.843  18.414   8.826  0.0756 -0.0923  0.1008
  523loPI   C1A 8359   0.750  18.892   8.505  0.1802 -0.4455 -0.2975
  523loPI   C2A 8360   0.782  18.886   8.019  0.0093 -0.4159 -0.2569
  523loPI   C3A 8361   0.835  18.994   7.660 -0.0117 -0.1067 -0.5299
  523loPI   C4A 8362   0.862  18.864   7.180 -0.1204  0.1188 -0.3703
  523loPI   C5A 8363   0.848  18.561   6.887  0.1798  0.0020  0.2383
  523loPI   C6A 8364   0.698  18.402   6.475  0.3454 -0.3088  0.1019
  523loPI   C1B 8365   1.026  18.498   8.446 -0.0967  0.1340  0.1262
  523loPI   C2B 8366   1.131  18.456   8.086  0.1059  0.0724  0.0798
  523loPI   C3B 8367   1.500  18.316   7.864 -0.2512 -0.2625 -0.0881
  523loPI   C4B 8368   1.500  18.303   7.418  0.0924  0.0627 -0.0882
  524loPI    C1 8369   6.840   2.077   9.320  0.2024 -0.4311  0.0432
  524loPI    C2 8370   6.472   2.092   9.474  0.1451  0.1523 -0.1229
  524loPI    C3 8371   6.559   1.824   9.191 -0.0374 -0.2409  0.1819
  524loPI   PO4 8372   7.039   2.125   9.440 -0.1944  0.0426  0.2596
  524loPI   GL1 8373   7.413   2.115   9.226 -0.0263 -0.0725 -0.1452
  524loPI   GL2 8374   7.435   1.846   9.036  0.4001  0.1344  0.1439
  524loPI   C1A 8375   7.338   2.232   8.780  0.0519 -0.1511  0.2351
  524loPI   C2A 8376   7.386   2.542   8.405 -0.1467 -0.1983 -0.2036
  524loPI   C3A 8377   7.193   2.563   8.020  0.1910 -0.1676  0.3171
  524loPI   C4A 8378   6.980   2.667   7.674 -0.1284 -0.0561  0.2580
  524loPI   C5A 8379   6.671   2.606   7.297  0.3964  0.2462  0.4826
  524loPI   C6A 8380   6.533   2.684   6.809 -0.0511  0.0617 -0.0151
  524loPI   C1B 8381   7.378   1.785   8.598 -0.0177 -0.1930  0.0641
  524loPI   C2B 8382   7.256   1.839   8.159  0.0177 -0.2883  0.2831
  524loPI   C3B 8383   7.468   2.143   7.878 -0.1434  0.2406 -0.4198
  524loPI   C4B 8384   7.772   2.053   7.558 -0.0150  0.1191 -0.3333
  525loPI    C1 8385   4.976   0.539   8.892  0.2021  0.2448 -0.2441
  525loPI    C2 8386   4.577   0.514   8.895  0.2249 -0.2359  0.1940
  525loPI    C3 8387   4.755   0.864   8.820 -0.2747 -0.0132  0.0063
  525loPI   PO4 8388   5.021   0.255   8.780 -0.2376 -0.1145  0.0538
  525loPI   GL1 8389   5.327   0.100   8.457 -0.3221  0.2572  0.1813
  525loPI   GL2 8390   5.663   0.240   8.488  0.0287 -0.1286 -0.1531
  525loPI   C1A 8391   5.390   0.087   7.958  0.0706  0.1616 -0.1082
  525loPI   C2A 8392   5.606   0.348   7.566  0.5441 -0.2483 -0.2472
  525loPI   C3A 8393   5.540   0.712   7.337  0.0204  0.1091 -0.4581
  525loPI   C4A 8394   5.494   0.907   6.905 -0.0544  0.0718  0.1684
  525loPI   C5A 8395   5.306   1.191   6.603  0.1306  0.4118 -0.3694
  525loPI   C6A 8396   4.985   1.439   6.353 -0.0843  0.0531 -0.0338
  525loPI   C1B 8397   5.857   0.380   8.041 -0.3835 -0.0125 -0.0465
  525loPI   C2B 8398   5.900   0.651   7.725  0.1221  0.0449 -0.1846
  525loPI   C3B 8399   6.162   0.664   7.280 -0.0292 -0.0985 -0.0284
  525loPI   C4B 8400   6.141   0.969   6.878  0.1318  0.0806 -0.1622
  526loPI    C1 8401   8.197  17.343   9.873  0.2889  0.1217 -0.0542
  526loPI    C2 8402   8.080  17.653  10.097  0.1467  0.0115  0.0257
  526loPI    C3 8403   7.975  17.281  10.200  0.0666 -0.0396 -0.2326
  526loPI   PO4 8404   8.429  17.521   9.671  0.0734  0.1115  0.3701
  526loPI   GL1 8405   8.441  17.433   9.265 -0.2073  0.0344  0.1012
  526loPI   GL2 8406   8.620  17.372   9.175 -0.1243 -0.1053 -0.1086
  526loPI   C1A 8407   8.196  17.378   8.873  0.1481  0.1466  0.2477
  526loPI   C2A 8408   8.298  17.473   8.481  0.2315  0.0113 -0.1759
  526loPI   C3A 8409   8.426  17.450   7.963  0.1171 -0.0127 -0.0244
  526loPI   C4A 8410   8.484  17.482   7.542 -0.1234 -0.3693 -0.0902
  526loPI   C5A 8411   8.287  17.462   7.115 -0.2270 -0.0555  0.0333
  526loPI   C6A 8412   8.485  17.554   6.670 -0.0418 -0.0764 -0.0560
  526loPI   C1B 8413   8.692  17.386   8.765 -0.3259 -0.3987 -0.2634
  526loPI   C2B 8414   8.707  17.249   8.385 -0.0364 -0.1832  0.1393
  526loPI   C3B 8415   8.770  17.126   7.988  0.0388 -0.2397  0.3707
  526loPI   C4B 8416   8.984  17.173   7.514 -0.0806 -0.2214 -0.1708
  527loPI    C1 8417  16.255  10.506  10.157 -0.0355 -0.0572 -0.1282
  527loPI    C2 8418  16.499  10.301  10.398 -0.1601 -0.0704 -0.0120
  527loPI    C3 8419  16.186  10.119  10.230 -0.0828 -0.0570 -0.1721
  527loPI   PO4 8420  16.393  10.606   9.846 -0.0124 -0.0585 -0.0989
  527loPI   GL1 8421  16.307  10.459   9.407 -0.0486  0.1279 -0.1512
  527loPI   GL2 8422  16.474  10.199   9.305  0.1678  0.4032 -0.4933
  527loPI   C1A 8423  16.512  10.660   9.015  0.3215  0.1425  0.2007
  527loPI   C2A 8424  16.613  10.590   8.578 -0.0292  0.0297 -0.4403
  527loPI   C3A 8425  16.598  10.549   8.166  0.1908 -0.1883  0.1369
  527loPI   C4A 8426  16.654  10.378   7.744 -0.0024 -0.0264  0.1205
  527loPI   C5A 8427  16.409  10.432   7.344 -0.1696 -0.2355  0.3034
  527loPI   C6A 8428  16.298  10.161   7.154 -0.1916  0.1682  0.0565
  527loPI   C1B 8429  16.429  10.192   8.895  0.3128  0.2722 -0.1530
  527loPI   C2B 8430  16.355  10.144   8.516  0.0356 -0.1784 -0.3621
  527loPI   C3B 8431  16.238  10.179   8.034 -0.0516  0.0507 -0.3104
  527loPI   C4B 8432  16.379   9.995   7.662  0.4346 -0.3973 -0.1944
  528loPI    C1 8433  18.158   5.155   9.802  0.0278 -0.1839  0.0353
  528loPI    C2 8434  18.302   5.265  10.159 -0.1194  0.1052  0.0083
  528loPI    C3 8435  18.280   4.877  10.062  0.1098  0.0341  0.2328
  528loPI   PO4 8436  18.255   5.188   9.572 -0.0466 -0.3862 -0.1145
  528loPI   GL1 8437  18.104   5.056   9.119  0.1332  0.0466  0.0613
  528loPI   GL2 8438  18.216   5.257   9.094 -0.0693  0.0821 -0.2820
  528loPI   C1A 8439  18.026   5.135   8.656 -0.0759 -0.0136  0.1262
  528loPI   C2A 8440  17.766   5.226   8.244 -0.1921  0.4420  0.0449
  528loPI   C3A 8441  18.021   5.007   7.840  0.3311 -0.2568 -0.1357
  528loPI   C4A 8442  18.115   4.972   7.402  0.0549  0.1209 -0.1461
  528loPI   C5A 8443  18.354   4.836   7.172 -0.0424 -0.2310 -0.0118
  528loPI   C6A 8444  18.525   4.539   6.728  0.2011 -0.2138 -0.2425
  528loPI   C1B 8445  18.510   5.302   8.788 -0.2871 -0.1129 -0.2296
  528loPI   C2B 8446  18.388   5.220   8.330  0.1043  0.1099  0.0036
  528loPI   C3B 8447  18.112   5.499   7.992 -0.1480  0.3456 -0.2449
  528loPI   C4B 8448  17.751   5.738   8.108  0.0237  0.2971 -0.1776
  529loPI    C1 8449   4.260   2.603   9.415 -0.1701  0.1960 -0.0609
  529loPI    C2 8450   4.063   2.273   9.527 -0.0362  0.0867 -0.1432
  529loPI    C3 8451   4.175   2.542   9.801 -0.0709  0.0222 -0.0654
  529loPI   PO4 8452   4.146   2.704   9.204 -0.1485 -0.0544 -0.1052
  529loPI   GL1 8453   4.070   2.691   8.786 -0.0946 -0.0360 -0.1616
  529loPI   GL2 8454   4.430   2.690   8.751 -0.0798 -0.2825 -0.1225
  529loPI   C1A 8455   3.762   2.736   8.479  0.0157  0.0323 -0.3544
  529loPI   C2A 8456   3.584   2.701   8.169  0.2164 -0.1768  0.2110
  529loPI   C3A 8457   3.741   2.847   7.872 -0.1002 -0.2794  0.0095
  529loPI   C4A 8458   4.073   3.074   7.592 -0.3162 -0.2155 -0.1196
  529loPI   C5A 8459   4.247   2.936   7.196 -0.2162 -0.0498  0.3662
  529loPI   C6A 8460   4.507   3.004   6.841 -0.0593 -0.0785  0.2021
  529loPI   C1B 8461   4.356   2.767   8.323 -0.0156 -0.2531 -0.0376
  529loPI   C2B 8462   4.315   2.820   8.012  0.0214 -0.1146  0.0119
  529loPI   C3B 8463   4.457   2.689   7.624  0.1333 -0.1393 -0.3446
  529loPI   C4B 8464   4.392   2.471   7.302 -0.1709  0.1287 -0.1981
  530loPI    C1 8465  13.143   8.351   9.392 -0.1052  0.2641  0.1416
  530loPI    C2 8466  13.139   8.653   9.655 -0.0235  0.1411  0.2860
  530loPI    C3 8467  12.969   8.304   9.749 -0.1295  0.1453  0.1140
  530loPI   PO4 8468  13.334   8.426   9.247  0.1924  0.1174 -0.0397
  530loPI   GL1 8469  13.466   8.272   8.957 -0.1769  0.0191 -0.4890
  530loPI   GL2 8470  13.723   8.144   8.992 -0.1752 -0.0828 -0.0874
  530loPI   C1A 8471  13.359   8.579   8.658 -0.1436  0.0187 -0.1524
  530loPI   C2A 8472  13.434   8.579   8.199  0.1435  0.0187  0.4419
  530loPI   C3A 8473  13.385   8.601   7.753  0.1318 -0.1381  0.0105
  530loPI   C4A 8474  13.212   8.412   7.458 -0.0031 -0.1648 -0.1861
  530loPI   C5A 8475  13.216   8.096   7.213 -0.3159  0.0338 -0.0791
  530loPI   C6A 8476  13.440   7.751   6.891 -0.0200  0.1061 -0.0853
  530loPI   C1B 8477  13.634   8.129   8.534 -0.0961 -0.0457 -0.0908
  530loPI   C2B 8478  13.568   8.098   8.067  0.5016  0.0277 -0.0325
  530loPI   C3B 8479  13.670   8.169   7.690 -0.0433  0.1612 -0.0152
  530loPI   C4B 8480  13.653   8.445   7.265 -0.1403  0.3350  0.3566
  531loPI    C1 8481  11.585  18.378   9.942  0.1670 -0.0229 -0.1076
  531loPI    C2 8482  11.265  18.139   9.960  0.1776 -0.0453 -0.2092
  531loPI    C3 8483  11.565  18.092  10.221  0.1083 -0.0393 -0.1285
  531loPI   PO4 8484  11.464  18.617   9.887  0.0327  0.0473  0.0168
  531loPI   GL1 8485  11.473  18.800   9.511  0.0569 -0.1888  0.1929
  531loPI   GL2 8486  11.220  19.026   9.583  0.1199 -0.0375  0.0022
  531loPI   C1A 8487  11.670  18.852   9.086  0.0033  0.1345 -0.4575
  531loPI   C2A 8488  11.821  18.650   8.757  0.0021 -0.2483  0.0335
  531loPI   C3A 8489  11.932  18.526   8.399  0.0167  0.2155  0.0737
  531loPI   C4A 8490  11.960  18.729   8.032 -0.0073  0.3639 -0.1864
  531loPI   C5A 8491  12.210  18.944   7.567  0.0604 -0.0123  0.1045
  531loPI   C6A 8492  12.337  19.253   7.226 -0.0458 -0.0043 -0.0407
  531loPI   C1B 8493  11.240  19.122   9.125  0.2751 -0.0945 -0.0078
  531loPI   C2B 8494  11.223  19.218   8.706  0.0442  0.3494  0.0462
  531loPI   C3B 8495  11.039  19.005   8.358 -0.0223 -0.0328  0.1627
  531loPI   C4B 8496  11.069  18.742   7.981 -0.0480  0.1797  0.1259
  532loPI    C1 8497   8.198  12.941   9.925 -0.0270 -0.1974  0.1956
  532loPI    C2 8498   8.130  12.670  10.212  0.1288 -0.1724  0.2572
  532loPI    C3 8499   8.504  12.788  10.132  0.0767 -0.0993  0.1162
  532loPI   PO4 8500   7.995  12.934   9.796 -0.0960 -0.1553  0.0600
  532loPI   GL1 8501   8.131  13.076   9.384  0.0422  0.1703 -0.1874
  532loPI   GL2 8502   7.828  13.042   9.266 -0.0891 -0.0253 -0.4004
  532loPI   C1A 8503   8.210  12.824   8.982 -0.1570 -0.0436  0.2805
  532loPI   C2A 8504   8.041  12.544   8.705  0.3402 -0.1090  0.0180
  532loPI   C3A 8505   8.102  12.461   8.325 -0.2139  0.1405 -0.1453
  532loPI   C4A 8506   8.064  12.403   7.875 -0.0973  0.0185 -0.0680
  532loPI   C5A 8507   7.988  12.425   7.346 -0.0089  0.4129  0.3643
  532loPI   C6A 8508   7.966  12.235   6.940  0.3120 -0.0381  0.2943
  532loPI   C1B 8509   7.908  13.186   8.920  0.0457 -0.0410 -0.1638
  532loPI   C2B 8510   8.056  13.083   8.494 -0.0129 -0.2816  0.0982
  532loPI   C3B 8511   8.112  12.878   8.021 -0.0770  0.1145  0.2768
  532loPI   C4B 8512   8.075  12.881   7.618 -0.0376 -0.0053  0.1342
  533loPI    C1 8513  12.557  10.568  10.031  0.0398  0.1475 -0.1094
  533loPI    C2 8514  12.891  10.349  10.041 -0.0877 -0.0528 -0.1698
  533loPI    C3 8515  12.794  10.581  10.352  0.0810 -0.0319 -0.1319
  533loPI   PO4 8516  12.516  10.647   9.711 -0.0351  0.0986 -0.1559
  533loPI   GL1 8517  12.458  10.815   9.313  0.1680 -0.0833  0.0260
  533loPI   GL2 8518  12.346  11.104   9.356  0.1672 -0.0251  0.1165
  533loPI   C1A 8519  12.365  10.744   8.924  0.4636 -0.0765  0.1224
  533loPI   C2A 8520  12.286  10.573   8.435  0.2064  0.3006 -0.1437
  533loPI   C3A 8521  12.344  10.586   7.912  0.1600 -0.0717 -0.2227
  533loPI   C4A 8522  12.361  10.592   7.415  0.1497 -0.2493 -0.2218
  533loPI   C5A 8523  12.491  10.589   6.995  0.2630  0.0890 -0.1822
  533loPI   C6A 8524  12.407  10.404   6.552  0.0423  0.2299 -0.1888
  533loPI   C1B 8525  12.274  11.235   8.925 -0.5201 -0.4789 -0.0888
  533loPI   C2B 8526  12.369  11.105   8.511  0.0154 -0.3418 -0.0845
  533loPI   C3B 8527  12.420  11.254   8.059 -0.3057  0.0870  0.0488
  533loPI   C4B 8528  12.688  11.316   7.699  0.2109 -0.2280 -0.1909
  534loPI    C1 8529   8.151   9.152   9.502  0.1550  0.0017  0.1599
  534loPI    C2 8530   8.383   8.853   9.633 -0.0189 -0.1086  0.2210
  534loPI    C3 8531   8.240   9.123   9.891  0.4717  0.2720  0.1118
  534loPI   PO4 8532   8.264   9.233   9.323  0.2514 -0.0800  0.5245
  534loPI   GL1 8533   8.159   9.120   8.895  0.2463  0.0663  0.2919
  534loPI   GL2 8534   7.944   8.967   8.724  0.0561 -0.1413  0.1616
  534loPI   C1A 8535   8.361   9.294   8.500  0.0421  0.2082  0.0005
  534loPI   C2A 8536   8.333   9.339   8.089  0.3714  0.0874 -0.2946
  534loPI   C3A 8537   8.484   9.366   7.678 -0.0628  0.0655  0.1629
  534loPI   C4A 8538   8.575   9.206   7.325  0.1114 -0.4044  0.3241
  534loPI   C5A 8539   8.754   9.472   7.017  0.2006  0.0596 -0.3458
  534loPI   C6A 8540   9.120   9.593   6.950 -0.1606 -0.1245 -0.2427
  534loPI   C1B 8541   8.017   8.981   8.228  0.1083 -0.0765 -0.3461
  534loPI   C2B 8542   8.040   8.982   7.747 -0.1665 -0.2486  0.0627
  534loPI   C3B 8543   8.188   8.836   7.385 -0.0951 -0.4246 -0.1693
  534loPI   C4B 8544   8.186   8.770   6.959 -0.0818  0.0096 -0.3195
  535loPI    C1 8545  14.404  14.046  10.246 -0.0864  0.1382  0.3358
  535loPI    C2 8546  14.751  13.958  10.425  0.1418  0.2304 -0.0482
  535loPI    C3 8547  14.428  14.041  10.645  0.2803 -0.1585  0.3166
  535loPI   PO4 8548  14.439  14.144  10.078  0.0969  0.0054 -0.0739
  535loPI   GL1 8549  14.272  14.217   9.746  0.0070  0.1257  0.3274
  535loPI   GL2 8550  14.353  13.887   9.539  0.1436  0.0776  0.0293
  535loPI   C1A 8551  14.007  14.314   9.332  0.1537  0.1067  0.0356
  535loPI   C2A 8552  13.888  14.502   8.897  0.2268  0.0499 -0.0448
  535loPI   C3A 8553  13.885  14.499   8.503 -0.2342 -0.2328 -0.0858
  535loPI   C4A 8554  13.655  14.525   8.131  0.2519 -0.0596 -0.0420
  535loPI   C5A 8555  13.531  14.508   7.814 -0.2119  0.0642 -0.0708
  535loPI   C6A 8556  13.557  14.544   7.401 -0.0472 -0.0599 -0.0629
  535loPI   C1B 8557  14.358  13.927   9.092 -0.1570  0.0676  0.1284
  535loPI   C2B 8558  14.389  13.864   8.683 -0.2039 -0.1393  0.0347
  535loPI   C3B 8559  14.392  13.733   8.291 -0.0230 -0.0198  0.1579
  535loPI   C4B 8560  14.650  13.898   8.013  0.0196 -0.0093 -0.0584
  536loPI    C1 8561  10.997  17.652  10.251  0.2047  0.0719  0.0793
  536loPI    C2 8562  11.135  17.946  10.484 -0.1496  0.2359  0.0894
  536loPI    C3 8563  11.004  17.605  10.648  0.1603  0.1119  0.0851
  536loPI   PO4 8564  10.816  17.829   9.954  0.1994 -0.0921 -0.1067
  536loPI   GL1 8565  10.839  18.243   9.699  0.0026 -0.1284 -0.0698
  536loPI   GL2 8566  10.987  18.606   9.677 -0.2370 -0.1148  0.1124
  536loPI   C1A 8567  10.742  18.176   9.344  0.2409 -0.1726  0.2993
  536loPI   C2A 8568  10.883  18.056   8.929  0.7089  0.1124 -0.2654
  536loPI   C3A 8569  11.108  18.017   8.627 -0.5307  0.0669 -0.0340
  536loPI   C4A 8570  11.279  18.063   8.273 -0.3566 -0.0062 -0.0029
  536loPI   C5A 8571  11.124  18.032   7.853 -0.2837  0.1865 -0.2717
  536loPI   C6A 8572  10.758  18.327   7.745  0.2327 -0.1924  0.0353
  536loPI   C1B 8573  10.805  18.815   9.330 -0.0911  0.2550 -0.0013
  536loPI   C2B 8574  10.813  18.897   8.876 -0.3557 -0.4765 -0.1457
  536loPI   C3B 8575  10.668  18.678   8.486  0.2538 -0.0359 -0.2639
  536loPI   C4B 8576  10.791  18.291   8.305  0.3243  0.1272 -0.2326
  537loPI    C1 8577   1.302   5.469   9.653  0.2173 -0.2256 -0.0253
  537loPI    C2 8578   1.700   5.480   9.684  0.1984 -0.2100  0.2337
  537loPI    C3 8579   1.474   5.690   9.938  0.0280 -0.0634 -0.0350
  537loPI   PO4 8580   1.300   5.609   9.304  0.0103 -0.0151  0.3249
  537loPI   GL1 8581   1.038   5.851   9.056  0.0664  0.0261  0.1982
  537loPI   GL2 8582   0.689   5.852   8.881 -0.1288 -0.3145 -0.1883
  537loPI   C1A 8583   1.185   5.688   8.669 -0.0417  0.1313  0.0745
  537loPI   C2A 8584   1.163   5.827   8.204 -0.2215 -0.1416  0.0815
  537loPI   C3A 8585   1.035   5.791   7.780  0.2606  0.4773 -0.1999
  537loPI   C4A 8586   0.959   5.896   7.366  0.1697 -0.1309  0.0167
  537loPI   C5A 8587   0.861   6.192   7.168  0.2520 -0.0346  0.2190
  537loPI   C6A 8588   1.092   6.617   7.125 -0.1359  0.1237  0.2596
  537loPI   C1B 8589   0.613   5.854   8.432  0.4252 -0.1917  0.0042
  537loPI   C2B 8590   0.507   5.994   7.910  0.2670 -0.1046 -0.0255
  537loPI   C3B 8591   0.372   6.175   7.434 -0.0788  0.1310  0.0715
  537loPI   C4B 8592   0.330   6.388   7.023  0.4211  0.1401 -0.1524
  538loPI    C1 8593   5.422  14.722   9.572  0.1677 -0.0009 -0.0136
  538loPI    C2 8594   5.381  14.390   9.792 -0.0460  0.0218 -0.0166
  538loPI    C3 8595   5.215  14.732   9.914  0.2738  0.1582  0.0467
  538loPI   PO4 8596   5.307  14.660   9.340  0.2384  0.1056 -0.0293
  538loPI   GL1 8597   5.310  14.460   9.014 -0.1071 -0.0011 -0.0792
  538loPI   GL2 8598   5.522  14.213   8.832  0.3133 -0.0765 -0.0560
  538loPI   C1A 8599   5.324  14.575   8.563  0.0484 -0.1134  0.2598
  538loPI   C2A 8600   5.442  14.404   8.195 -0.1479  0.2430 -0.2089
  538loPI   C3A 8601   5.443  14.475   7.763 -0.0062 -0.1250 -0.3167
  538loPI   C4A 8602   5.623  14.268   7.432  0.1200 -0.0234  0.1981
  538loPI   C5A 8603   5.464  14.303   7.065  0.1030  0.1683  0.3460
  538loPI   C6A 8604   5.087  14.230   6.824 -0.1032  0.2215  0.1771
  538loPI   C1B 8605   5.826  14.158   8.410  0.0188 -0.3198 -0.2689
  538loPI   C2B 8606   5.892  14.247   8.016 -0.0472 -0.2867 -0.2644
  538loPI   C3B 8607   6.153  14.188   7.699  0.1061 -0.2069  0.0677
  538loPI   C4B 8608   6.437  14.223   7.363  0.0708 -0.1288 -0.3715
  539loPI    C1 8609   8.704  13.226   9.966  0.0389  0.1148 -0.0239
  539loPI    C2 8610   8.489  13.313  10.293  0.1357  0.0338  0.0620
  539loPI    C3 8611   8.866  13.443  10.261  0.1409  0.0047  0.0018
  539loPI   PO4 8612   8.583  13.251   9.761  0.0666 -0.0534 -0.1574
  539loPI   GL1 8613   8.525  13.416   9.439  0.1634 -0.1690 -0.2583
  539loPI   GL2 8614   8.837  13.541   9.245  0.0396  0.1249  0.1282
  539loPI   C1A 8615   8.450  13.276   9.022  0.2801 -0.1001  0.0913
  539loPI   C2A 8616   8.537  13.256   8.617  0.1880 -0.1874  0.2598
  539loPI   C3A 8617   8.496  13.380   8.244  0.2375 -0.0131  0.1602
  539loPI   C4A 8618   8.280  13.396   7.761 -0.2776  0.2108  0.0262
  539loPI   C5A 8619   8.005  13.461   7.398 -0.5422 -0.3739  0.4582
  539loPI   C6A 8620   7.737  13.527   7.137  0.1651  0.2301 -0.1446
  539loPI   C1B 8621   8.933  13.495   8.804 -0.1357 -0.2218 -0.1017
  539loPI   C2B 8622   8.941  13.684   8.348 -0.1472  0.0209  0.1087
  539loPI   C3B 8623   9.180  13.829   8.009  0.0364  0.0327 -0.1034
  539loPI   C4B 8624   9.266  14.146   7.785  0.1749  0.2605  0.3218
  540loPI    C1 8625   9.625  16.209  10.221  0.0837  0.1485  0.2722
  540loPI    C2 8626   9.445  15.948  10.465  0.1945 -0.2066 -0.0170
  540loPI    C3 8627   9.843  15.946  10.428  0.2066  0.0875  0.0683
  540loPI   PO4 8628   9.435  16.172   9.982  0.0432  0.1327 -0.1146
  540loPI   GL1 8629   9.345  15.865   9.739 -0.1423 -0.1081 -0.0068
  540loPI   GL2 8630   9.034  16.023   9.500  0.1687  0.0641  0.1149
  540loPI   C1A 8631   9.558  15.873   9.344  0.1432  0.0856 -0.0342
  540loPI   C2A 8632   9.705  15.886   8.865 -0.0674  0.2812 -0.2463
  540loPI   C3A 8633   9.831  15.847   8.442 -0.0646 -0.0012  0.1026
  540loPI   C4A 8634  10.097  15.924   8.105  0.5491  0.2038  0.0150
  540loPI   C5A 8635  10.378  15.968   7.725  0.1330 -0.0022 -0.1420
  540loPI   C6A 8636  10.460  15.861   7.471  0.0655  0.0905  0.3122
  540loPI   C1B 8637   9.129  15.984   9.032  0.0129  0.0018 -0.3529
  540loPI   C2B 8638   9.204  15.985   8.604  0.1404  0.1467  0.3009
  540loPI   C3B 8639   9.290  15.864   8.192  0.0415 -0.0485  0.3148
  540loPI   C4B 8640   9.339  15.655   7.763 -0.0724  0.0614 -0.2926
  541loPI    C1 8641   6.852   3.841   9.156  0.3435  0.1430 -0.1480
  541loPI    C2 8642   7.035   3.623   9.437 -0.0463  0.1072  0.0851
  541loPI    C3 8643   6.716   3.845   9.532 -0.1609  0.1254 -0.3225
  541loPI   PO4 8644   6.993   3.611   8.911  0.0267  0.0099 -0.0096
  541loPI   GL1 8645   6.731   3.202   8.730  0.5171 -0.4361  0.0028
  541loPI   GL2 8646   7.017   3.236   8.558 -0.0350  0.0266  0.2337
  541loPI   C1A 8647   6.493   3.162   8.463  0.5205 -0.1893 -0.1621
  541loPI   C2A 8648   6.541   3.163   8.027  0.3312  0.0347  0.1946
  541loPI   C3A 8649   6.465   3.135   7.596  0.3667 -0.0841  0.1881
  541loPI   C4A 8650   6.421   3.059   7.120 -0.1674 -0.4274 -0.1122
  541loPI   C5A 8651   6.489   3.166   6.687 -0.3388  0.2304 -0.0244
  541loPI   C6A 8652   6.955   3.226   6.792  0.0759  0.2176  0.0146
  541loPI   C1B 8653   6.946   3.373   8.210 -0.1912  0.4270 -0.3700
  541loPI   C2B 8654   6.919   3.373   7.754  0.0779 -0.2422 -0.1046
  541loPI   C3B 8655   6.907   3.527   7.310  0.1067  0.3202  0.0989
  541loPI   C4B 8656   6.670   3.650   6.906 -0.0129 -0.0171  0.2167
  542loPI    C1 8657   6.823   6.497   9.407 -0.0477  0.0888 -0.3110
  542loPI    C2 8658   6.940   6.836   9.586  0.2588 -0.0739 -0.1951
  542loPI    C3 8659   6.785   6.538   9.803 -0.2058  0.0658 -0.3235
  542loPI   PO4 8660   6.740   6.593   9.208 -0.0657  0.0112  0.1871
  542loPI   GL1 8661   6.651   6.564   8.826 -0.4497  0.3942  0.4177
  542loPI   GL2 8662   6.918   6.697   8.694 -0.0909 -0.0347  0.1019
  542loPI   C1A 8663   6.577   6.419   8.408  0.2427  0.0656 -0.0279
  542loPI   C2A 8664   6.449   6.528   8.026 -0.3325  0.0530 -0.1309
  542loPI   C3A 8665   6.445   6.278   7.729  0.1353  0.0977  0.1738
  542loPI   C4A 8666   6.376   6.103   7.295  0.1337  0.4080  0.0079
  542loPI   C5A 8667   6.337   5.985   6.861 -0.0496 -0.2266 -0.1154
  542loPI   C6A 8668   6.543   6.022   6.485 -0.1876  0.1226 -0.1453
  542loPI   C1B 8669   6.718   7.069   8.319  0.0490  0.1367  0.2009
  542loPI   C2B 8670   6.576   7.502   8.119 -0.5916  0.1849  0.0333
  542loPI   C3B 8671   6.412   7.761   7.697  0.0313  0.0658 -0.0790
  542loPI   C4B 8672   6.170   7.946   7.470 -0.1749 -0.1145 -0.0527
  543loPI    C1 8673   9.465  17.228  10.177 -0.0966  0.2244  0.1517
  543loPI    C2 8674   9.800  17.436  10.111  0.0037  0.0039 -0.0522
  543loPI    C3 8675   9.757  17.229  10.451  0.1677 -0.1403 -0.1179
  543loPI   PO4 8676   9.345  17.346   9.987  0.6234  0.2279  0.0408
  543loPI   GL1 8677   9.372  17.254   9.552  0.0779 -0.0482  0.3535
  543loPI   GL2 8678   9.289  17.469   9.279  0.2068  0.0554 -0.3549
  543loPI   C1A 8679   9.461  16.856   9.348 -0.0562  0.1034  0.1452
  543loPI   C2A 8680   9.705  16.779   8.917  0.0592 -0.0377 -0.0720
  543loPI   C3A 8681   9.798  16.996   8.589 -0.1057 -0.0906 -0.1685
  543loPI   C4A 8682   9.622  16.930   8.257  0.2883 -0.0083 -0.0072
  543loPI   C5A 8683   9.650  16.680   7.850  0.1282  0.0959 -0.3463
  543loPI   C6A 8684   9.491  16.446   7.538  0.0723  0.1266  0.1450
  543loPI   C1B 8685   9.074  17.103   9.140  0.0488 -0.1965 -0.0315
  543loPI   C2B 8686   9.123  16.715   8.876 -0.1517 -0.2252 -0.0707
  543loPI   C3B 8687   9.228  16.584   8.473  0.2538  0.3391 -0.0550
  543loPI   C4B 8688   9.164  16.648   8.051  0.4256  0.3078  0.0485
  544loPI    C1 8689  18.983   6.633   9.806  0.3647  0.0235 -0.5383
  544loPI    C2 8690  19.282   6.386   9.902  0.0004 -0.2443 -0.0409
  544loPI    C3 8691  19.162   6.665  10.162 -0.1107 -0.0631 -0.2823
  544loPI   PO4 8692  18.985   6.419   9.466 -0.6020  0.1577 -0.0158
  544loPI   GL1 8693  18.852   6.486   9.025 -0.0065  0.1096 -0.2648
  544loPI   GL2 8694  18.509   6.374   9.127 -0.1435 -0.0588 -0.1160
  544loPI   C1A 8695  18.774   6.681   8.509 -0.0710 -0.2240  0.1572
  544loPI   C2A 8696  18.768   6.785   8.058  0.1606 -0.2620  0.0623
  544loPI   C3A 8697  18.813   7.104   7.695 -0.0208 -0.1467 -0.1330
  544loPI   C4A 8698  18.763   7.413   7.561 -0.0884 -0.0625  0.1932
  544loPI   C5A 8699  18.531   7.839   7.597  0.0192  0.0637 -0.0275
  544loPI   C6A 8700  18.396   8.126   7.821  0.1054 -0.1011 -0.1982
  544loPI   C1B 8701  18.404   6.683   8.887  0.0520 -0.3681  0.1841
  544loPI   C2B 8702  18.291   7.010   8.570 -0.3473  0.2531 -0.2386
  544loPI   C3B 8703  18.358   7.039   8.171 -0.0290 -0.0919  0.0625
  544loPI   C4B 8704  18.368   6.938   7.766  0.3386 -0.2362 -0.3764
  545loPI    C1 8705   7.184  11.726   9.559  0.1519 -0.0702 -0.1093
  545loPI    C2 8706   7.394  11.426   9.719 -0.0566 -0.1353  0.0472
  545loPI    C3 8707   7.041  11.529   9.877 -0.0663  0.0805 -0.1116
  545loPI   PO4 8708   7.253  11.783   9.275 -0.3846  0.3026 -0.1898
  545loPI   GL1 8709   7.416  11.946   9.009  0.5106  0.1219  0.0215
  545loPI   GL2 8710   7.714  11.825   9.085 -0.0066  0.0896  0.0078
  545loPI   C1A 8711   7.273  11.929   8.635  0.1041  0.3333  0.1008
  545loPI   C2A 8712   7.217  11.960   8.218  0.1415  0.3445  0.1921
  545loPI   C3A 8713   7.235  12.239   7.923 -0.0255  0.0533  0.3674
  545loPI   C4A 8714   7.547  12.352   7.649  0.1354  0.0653  0.4078
  545loPI   C5A 8715   7.542  12.676   7.363 -0.1986  0.1255  0.0885
  545loPI   C6A 8716   7.800  12.857   7.101  0.0101  0.0674 -0.2984
  545loPI   C1B 8717   7.900  11.557   8.722  0.0556  0.1438  0.5141
  545loPI   C2B 8718   8.094  11.430   8.318 -0.1327 -0.1161 -0.0414
  545loPI   C3B 8719   8.324  11.126   8.048  0.0434 -0.0569  0.1123
  545loPI   C4B 8720   8.524  10.719   7.862 -0.1321  0.1656  0.2544
  546loPI    C1 8721   9.843   2.256   9.445  0.0035  0.2425 -0.1158
  546loPI    C2 8722   9.701   1.883   9.419  0.0716  0.2095 -0.0210
  546loPI    C3 8723   9.735   2.060   9.776  0.2300  0.2316 -0.0464
  546loPI   PO4 8724   9.668   2.344   9.239 -0.0674  0.1210  0.0248
  546loPI   GL1 8725   9.382   2.344   8.855  0.0255  0.3025 -0.0076
  546loPI   GL2 8726   9.059   2.606   8.799 -0.0617 -0.0753 -0.1760
  546loPI   C1A 8727   9.280   2.064   8.592  0.3835 -0.2274 -0.1097
  546loPI   C2A 8728   9.080   1.790   8.277 -0.1159 -0.2450  0.0968
  546loPI   C3A 8729   9.503   1.595   7.992  0.0158  0.2861  0.1708
  546loPI   C4A 8730   9.811   1.608   7.787 -0.0770  0.1896  0.1190
  546loPI   C5A 8731   9.982   1.416   7.477  0.1355 -0.2306 -0.0670
  546loPI   C6A 8732  10.088   1.086   7.112  0.2372  0.0548 -0.0445
  546loPI   C1B 8733   9.050   2.413   8.351 -0.0734  0.0803 -0.1119
  546loPI   C2B 8734   8.933   2.247   7.987  0.3099 -0.0657  0.1284
  546loPI   C3B 8735   8.642   2.301   7.693 -0.1375  0.3868  0.0963
  546loPI   C4B 8736   8.559   2.488   7.350  0.0449  0.0932  0.2594
  547loPI    C1 8737   5.538  16.833   9.522  0.0653  0.0571  0.3077
  547loPI    C2 8738   5.200  16.797   9.734  0.1192  0.1003  0.4013
  547loPI    C3 8739   5.430  16.476   9.666  0.0608  0.0714  0.3397
  547loPI   PO4 8740   5.574  16.856   9.319  0.1047 -0.0870  0.1030
  547loPI   GL1 8741   5.574  16.714   8.937  0.1249  0.2297  0.2937
  547loPI   GL2 8742   5.795  16.428   8.967  0.0705 -0.2045 -0.0371
  547loPI   C1A 8743   5.360  16.439   8.623  0.2728 -0.0323 -0.0005
  547loPI   C2A 8744   5.631  16.234   8.373 -0.0265  0.0674  0.2331
  547loPI   C3A 8745   5.927  16.252   8.113  0.2934 -0.1228  0.0548
  547loPI   C4A 8746   6.077  16.252   7.693 -0.0570 -0.3208 -0.3680
  547loPI   C5A 8747   5.896  16.177   7.302 -0.2712  0.2731 -0.2447
  547loPI   C6A 8748   5.544  15.890   7.093 -0.1092 -0.0403 -0.1105
  547loPI   C1B 8749   5.937  16.550   8.556 -0.2250 -0.0395  0.0105
  547loPI   C2B 8750   5.731  16.775   8.244 -0.3499 -0.1559 -0.1792
  547loPI   C3B 8751   5.777  16.669   7.768 -0.2756 -0.1174 -0.2755
  547loPI   C4B 8752   6.071  16.655   7.499  0.0778  0.1000  0.1876
  548loPI    C1 8753  15.714   0.715   9.593  0.0774  0.0340 -0.1437
  548loPI    C2 8754  15.972   0.449   9.444  0.2622  0.0174  0.1947
  548loPI    C3 8755  15.654   0.324   9.652 -0.0028  0.0397 -0.1859
  548loPI   PO4 8756  15.647   0.820   9.387 -0.2022 -0.3569 -0.4053
  548loPI   GL1 8757  15.515   0.861   8.930  0.2054  0.3157  0.1462
  548loPI   GL2 8758  15.384   0.559   9.116 -0.0418 -0.3782  0.1319
  548loPI   C1A 8759  15.334   0.959   8.507 -0.0212 -0.0179  0.1182
  548loPI   C2A 8760  14.983   0.762   8.394 -0.6612 -0.1312 -0.4138
  548loPI   C3A 8761  14.851   0.442   8.273  0.0155  0.1187  0.4249
  548loPI   C4A 8762  14.830   0.410   7.850 -0.0001 -0.0346 -0.1961
  548loPI   C5A 8763  14.711   0.250   7.514  0.0133 -0.0041 -0.0127
  548loPI   C6A 8764  14.377   0.119   7.322 -0.2241 -0.0117 -0.0953
  548loPI   C1B 8765  15.376   0.404   8.678 -0.0544 -0.1169  0.0828
  548loPI   C2B 8766  15.350   0.475   8.165 -0.0431 -0.1410  0.1075
  548loPI   C3B 8767  15.274   0.376   7.688 -0.1207 -0.1536 -0.2254
  548loPI   C4B 8768  15.275   0.206   7.333  0.0007  0.1584 -0.0254
  549loPI    C1 8769  13.982   7.905   9.677  0.1234  0.1955 -0.1156
  549loPI    C2 8770  14.161   8.000  10.022 -0.1418  0.3693 -0.0226
  549loPI    C3 8771  13.800   7.830  10.025  0.1805 -0.3569 -0.1956
  549loPI   PO4 8772  14.127   8.128   9.494  0.1117  0.2859 -0.1574
  549loPI   GL1 8773  14.148   8.301   9.094  0.1392 -0.3906 -0.2659
  549loPI   GL2 8774  14.414   7.995   8.997  0.1363 -0.1130 -0.0622
  549loPI   C1A 8775  14.407   8.566   8.865  0.1394  0.0257 -0.2114
  549loPI   C2A 8776  14.475   8.652   8.449  0.1204 -0.1304 -0.1965
  549loPI   C3A 8777  14.427   8.672   7.957 -0.0699 -0.1362 -0.0420
  549loPI   C4A 8778  14.449   8.706   7.514  0.0509 -0.0660 -0.1324
  549loPI   C5A 8779  14.581   8.560   7.099  0.0041  0.0723 -0.3715
  549loPI   C6A 8780  14.473   8.550   6.703  0.1008 -0.1622  0.0347
  549loPI   C1B 8781  14.177   8.235   8.589  0.1651  0.2755  0.0642
  549loPI   C2B 8782  14.086   8.269   8.156 -0.2225 -0.2668 -0.4212
  549loPI   C3B 8783  13.940   8.576   7.772 -0.2069  0.2389 -0.3897
  549loPI   C4B 8784  14.001   8.814   7.328  0.2464 -0.1010 -0.0010
  550loPI    C1 8785   1.781  10.128   9.486  0.0612 -0.2788  0.3123
  550loPI    C2 8786   1.751  10.410   9.768  0.2004  0.0503  0.0075
  550loPI    C3 8787   2.060  10.156   9.770  0.1768  0.0219  0.1744
  550loPI   PO4 8788   1.664  10.277   9.256  0.1149 -0.0149  0.2529
  550loPI   GL1 8789   1.669  10.103   8.908  0.3938 -0.2432 -0.1934
  550loPI   GL2 8790   1.372  10.172   8.877  0.3215 -0.3737  0.3271
  550loPI   C1A 8791   1.570  10.033   8.446 -0.0605 -0.2309 -0.0904
  550loPI   C2A 8792   1.861  10.158   8.093 -0.0683  0.0094  0.0507
  550loPI   C3A 8793   1.789  10.267   7.621  0.3276 -0.0276 -0.0552
  550loPI   C4A 8794   2.094  10.369   7.194  0.3784  0.0326 -0.0836
  550loPI   C5A 8795   2.546  10.569   7.239  0.0413  0.1033  0.1351
  550loPI   C6A 8796   2.883  10.656   7.256 -0.3867 -0.1658  0.0069
  550loPI   C1B 8797   1.039  10.054   8.518 -0.0014 -0.4324  0.1963
  550loPI   C2B 8798   0.937  10.000   8.088 -0.0635  0.2447  0.0932
  550loPI   C3B 8799   0.916   9.943   7.710  0.2864 -0.0671 -0.3255
  550loPI   C4B 8800   1.117  10.039   7.416 -0.0214 -0.0722 -0.0752
  551loPI    C1 8801   3.791   0.901   9.293 -0.0183  0.0086  0.0755
  551loPI    C2 8802   3.602   0.615   9.499 -0.1994  0.0241 -0.0667
  551loPI    C3 8803   3.484   0.996   9.531 -0.0049  0.0751  0.0666
  551loPI   PO4 8804   3.792   0.802   9.102 -0.2752 -0.2180 -0.0378
  551loPI   GL1 8805   3.767   0.900   8.569  0.3555 -0.2636 -0.2446
  551loPI   GL2 8806   3.485   1.149   8.439  0.1615  0.0656  0.0692
  551loPI   C1A 8807   3.561   0.759   8.183  0.0957 -0.1713  0.0296
  551loPI   C2A 8808   3.533   0.615   7.735 -0.0500  0.3063  0.2261
  551loPI   C3A 8809   3.721   0.672   7.368 -0.4163  0.0301 -0.0142
  551loPI   C4A 8810   4.020   0.673   7.022 -0.2682  0.0976 -0.0075
  551loPI   C5A 8811   3.966   0.656   6.637 -0.1402  0.1107 -0.2848
  551loPI   C6A 8812   3.508   0.599   6.399  0.0270 -0.1168 -0.0696
  551loPI   C1B 8813   3.388   1.169   7.998 -0.0776 -0.2141 -0.4506
  551loPI   C2B 8814   3.376   1.175   7.540 -0.0014 -0.2406 -0.2557
  551loPI   C3B 8815   3.472   1.059   7.159 -0.2855  0.1663  0.0487
  551loPI   C4B 8816   3.618   1.016   6.757  0.4093  0.0286 -0.0876
  552loPI    C1 8817  12.321   9.770   9.780 -0.0323  0.1679 -0.1073
  552loPI    C2 8818  12.594   9.776  10.072 -0.3301  0.2837  0.1763
  552loPI    C3 8819  12.252   9.577  10.124 -0.1694 -0.1374 -0.3026
  552loPI   PO4 8820  12.462   9.725   9.581  0.1079 -0.1936  0.1111
  552loPI   GL1 8821  12.629   9.442   9.246 -0.0539  0.1171 -0.0675
  552loPI   GL2 8822  12.940   9.456   9.049  0.0803  0.4658  0.0077
  552loPI   C1A 8823  12.502   9.570   8.808  0.2282  0.0118 -0.0384
  552loPI   C2A 8824  12.552   9.452   8.476  0.2884  0.1619  0.1701
  552loPI   C3A 8825  12.343   9.624   8.089  0.0483  0.0741  0.0910
  552loPI   C4A 8826  12.339   9.917   7.948 -0.1032  0.0058 -0.0482
  552loPI   C5A 8827  12.416   9.953   7.607  0.0983  0.0297 -0.0066
  552loPI   C6A 8828  12.316   9.781   7.237  0.3113 -0.1749  0.1257
  552loPI   C1B 8829  13.011   9.637   8.697 -0.0159  0.3604  0.0890
  552loPI   C2B 8830  13.270   9.557   8.292 -0.2484 -0.0663  0.2892
  552loPI   C3B 8831  13.197   9.351   7.878 -0.0771  0.0596 -0.1935
  552loPI   C4B 8832  13.175   9.377   7.479 -0.3493  0.0276 -0.1095
  553loPI    C1 8833   6.704  12.314   9.721 -0.0752  0.0250  0.0085
  553loPI    C2 8834   6.952  12.038   9.870  0.0869  0.1991  0.0663
  553loPI    C3 8835   6.574  12.059  10.000  0.0905  0.0434  0.1041
  553loPI   PO4 8836   6.762  12.306   9.449  0.3174  0.2422  0.0449
  553loPI   GL1 8837   6.948  12.243   9.131  0.2207  0.2870 -0.3156
  553loPI   GL2 8838   7.141  12.445   9.153  0.3500 -0.0180 -0.1334
  553loPI   C1A 8839   6.818  12.166   8.761  0.1293  0.0408 -0.1387
  553loPI   C2A 8840   6.735  12.274   8.279  0.0487  0.2380 -0.3275
  553loPI   C3A 8841   6.712  12.444   7.914  0.0092  0.0649  0.1205
  553loPI   C4A 8842   6.614  12.695   7.630  0.0713  0.2781 -0.0451
  553loPI   C5A 8843   6.810  12.985   7.434 -0.4725 -0.0183 -0.1487
  553loPI   C6A 8844   6.937  12.956   7.011  0.0258 -0.0207 -0.0575
  553loPI   C1B 8845   7.214  12.502   8.780  0.0836  0.2267 -0.1964
  553loPI   C2B 8846   7.177  12.462   8.421  0.0880  0.0474 -0.1357
  553loPI   C3B 8847   7.159  12.717   8.064 -0.3116 -0.0032 -0.0965
  553loPI   C4B 8848   7.121  12.632   7.595  0.1490 -0.2502 -0.2038
  554loPI    C1 8849   1.681  18.486   9.284 -0.1311 -0.1688 -0.0024
  554loPI    C2 8850   2.049  18.519   9.438 -0.1373 -0.0067 -0.0206
  554loPI    C3 8851   1.754  18.362   9.658 -0.1447  0.2175  0.1333
  554loPI   PO4 8852   1.692  18.511   9.041 -0.2074 -0.0672 -0.0195
  554loPI   GL1 8853   1.365  18.332   8.748  0.0927 -0.4519  0.0237
  554loPI   GL2 8854   1.492  18.588   8.549  0.2581 -0.1015  0.0087
  554loPI   C1A 8855   1.502  18.164   8.347  0.1117 -0.3259  0.0384
  554loPI   C2A 8856   1.591  17.874   7.982  0.1663 -0.0520  0.0106
  554loPI   C3A 8857   1.544  17.787   7.621 -0.4005  0.5094  0.1846
  554loPI   C4A 8858   1.636  17.607   7.324 -0.0322  0.0087 -0.1721
  554loPI   C5A 8859   2.023  17.290   7.154 -0.0802 -0.0555 -0.1685
  554loPI   C6A 8860   2.412  16.981   7.038 -0.0153  0.1389  0.1190
  554loPI   C1B 8861   1.755  18.713   8.176 -0.0191  0.0169 -0.2802
  554loPI   C2B 8862   1.720  18.698   7.731  0.0402 -0.2547  0.3098
  554loPI   C3B 8863   1.255  18.718   7.482  0.1724 -0.1223 -0.1232
  554loPI   C4B 8864   1.078  18.393   7.262  0.0954 -0.0293 -0.1039
  555loPI    C1 8865   2.428   3.378   9.369  0.3152  0.3073  0.0802
  555loPI    C2 8866   2.630   3.698   9.499  0.2884  0.4166 -0.1430
  555loPI    C3 8867   2.702   3.338   9.658  0.2397  0.5501  0.1874
  555loPI   PO4 8868   2.454   3.421   9.075  0.3059  0.3548 -0.0456
  555loPI   GL1 8869   2.283   3.473   8.713  0.1788  0.0391 -0.0737
  555loPI   GL2 8870   1.961   3.280   8.830 -0.2823  0.2602 -0.0094
  555loPI   C1A 8871   2.275   3.506   8.316  0.2297  0.0277 -0.1603
  555loPI   C2A 8872   2.342   3.687   7.875  0.1348  0.1493  0.1649
  555loPI   C3A 8873   2.516   3.631   7.450 -0.3678  0.1446  0.0469
  555loPI   C4A 8874   2.622   3.784   6.995 -0.0817 -0.3692  0.0358
  555loPI   C5A 8875   2.673   4.173   6.704  0.1142  0.0094 -0.3518
  555loPI   C6A 8876   2.617   4.673   6.534  0.0554  0.0915 -0.1296
  555loPI   C1B 8877   1.774   3.364   8.464 -0.0542  0.0725  0.0747
  555loPI   C2B 8878   1.796   3.631   8.099  0.2775  0.1320  0.4469
  555loPI   C3B 8879   1.409   3.770   7.821 -0.1348 -0.1288  0.0826
  555loPI   C4B 8880   1.046   4.013   7.618  0.0476 -0.3351 -0.1867
  556loPI    C1 8881   6.750   7.294   9.362 -0.1447 -0.1193  0.1649
  556loPI    C2 8882   6.695   7.633   9.567  0.0642 -0.0924  0.1777
  556loPI    C3 8883   6.746   7.288   9.762 -0.0214 -0.1114  0.1665
  556loPI   PO4 8884   6.946   7.397   9.182 -0.1579 -0.1745 -0.2950
  556loPI   GL1 8885   6.884   7.554   8.853  0.0281  0.2107 -0.4257
  556loPI   GL2 8886   7.113   7.814   8.788 -0.2194  0.1679 -0.3116
  556loPI   C1A 8887   6.988   7.460   8.417  0.1220 -0.1035 -0.0631
  556loPI   C2A 8888   7.281   7.319   8.119  0.0327  0.3101  0.1427
  556loPI   C3A 8889   7.330   7.149   7.745 -0.0572  0.0764  0.6026
  556loPI   C4A 8890   7.205   7.327   7.388 -0.2309  0.1002  0.4527
  556loPI   C5A 8891   7.371   7.529   6.904 -0.0128 -0.0290  0.0302
  556loPI   C6A 8892   7.481   7.982   6.845 -0.1105  0.1974 -0.1106
  556loPI   C1B 8893   7.439   7.672   8.537  0.0285  0.2434  0.0017
  556loPI   C2B 8894   7.576   7.691   8.195 -0.2932 -0.1761  0.1104
  556loPI   C3B 8895   7.522   7.579   7.758  0.1304  0.1306 -0.0200
  556loPI   C4B 8896   7.657   7.482   7.368 -0.1130  0.1586 -0.1156
  557loPI    C1 8897   0.208  18.519   9.750 -0.1317  0.0601  0.1885
  557loPI    C2 8898   0.497  18.260   9.847 -0.0352  0.0283 -0.1719
  557loPI    C3 8899   0.278  18.431  10.134  0.2154 -0.0900  0.0948
  557loPI   PO4 8900   0.249  18.599   9.431  0.5029 -0.1670 -0.1448
  557loPI   GL1 8901   0.133  18.576   8.940 -0.0161 -0.1193  0.3489
  557loPI   GL2 8902   0.117  18.270   9.012 -0.2657  0.0304  0.0312
  557loPI   C1A 8903   0.166  18.906   8.652  0.4823  0.1227 -0.0878
  557loPI   C2A 8904   0.315  18.771   8.218  0.0259  0.1865  0.1634
  557loPI   C3A 8905   0.330  18.893   7.708 -0.0619  0.2134 -0.0864
  557loPI   C4A 8906   0.376  18.887   7.220 -0.2254 -0.0225 -0.3250
  557loPI   C5A 8907   0.137  19.077   6.952 -0.0576 -0.2315  0.2822
  557loPI   C6A 8908  -0.026  19.100   6.473 -0.0340 -0.2131  0.0905
  557loPI   C1B 8909   0.336  18.288   8.552  0.0061 -0.1690  0.1954
  557loPI   C2B 8910   0.619  18.354   8.151 -0.0586 -0.0057 -0.1990
  557loPI   C3B 8911   0.703  18.481   7.730  0.2519 -0.0828 -0.2255
  557loPI   C4B 8912   0.573  18.445   7.273  0.0761  0.0527 -0.1565
  558loPI    C1 8913  15.417  19.577   9.320  0.1085 -0.1780  0.0495
  558loPI    C2 8914  15.093  19.795   9.408  0.1913 -0.0757  0.1026
  558loPI    C3 8915  15.059  19.401   9.350  0.0172 -0.0278 -0.1364
  558loPI   PO4 8916  15.589  19.732   9.183 -0.0540  0.0833 -0.1896
  558loPI   GL1 8917  15.772  19.681   8.787 -0.2613 -0.4766  0.0239
  558loPI   GL2 8918  15.849  20.068   8.847 -0.3289 -0.1063  0.3137
  558loPI   C1A 8919  16.061  19.696   8.486 -0.0071 -0.0102  0.1923
  558loPI   C2A 8920  16.167  19.812   8.154 -0.1632  0.1607 -0.0252
  558loPI   C3A 8921  16.220  19.795   7.743  0.2438  0.1984 -0.0766
  558loPI   C4A 8922  16.199  19.891   7.294  0.1097  0.2468  0.0311
  558loPI   C5A 8923  16.186  20.264   7.039 -0.2219  0.1977  0.0868
  558loPI   C6A 8924  16.002  20.287   6.612 -0.0594 -0.0609 -0.1177
  558loPI   C1B 8925  15.813  20.117   8.387  0.0275 -0.2257 -0.1614
  558loPI   C2B 8926  15.813  20.221   7.921  0.2319 -0.0217  0.1226
  558loPI   C3B 8927  15.559  20.357   7.626  0.0265  0.1203 -0.1606
  558loPI   C4B 8928  15.128  20.272   7.282  0.0014 -0.1351  0.2069
  559loPI    C1 8929   6.665   8.638   9.332 -0.0260 -0.5149 -0.0074
  559loPI    C2 8930   6.952   8.725   9.598 -0.0135 -0.0854 -0.1541
  559loPI    C3 8931   6.588   8.615   9.724  0.0254  0.0049  0.0396
  559loPI   PO4 8932   6.826   8.426   9.189 -0.1838  0.2667 -0.5113
  559loPI   GL1 8933   7.038   8.474   8.846 -0.0046 -0.2478 -0.0901
  559loPI   GL2 8934   7.138   8.671   8.606 -0.2639  0.3273 -0.0345
  559loPI   C1A 8935   7.125   8.205   8.529 -0.1239  0.0155  0.1129
  559loPI   C2A 8936   7.232   8.017   8.193  0.1978 -0.1122  0.1296
  559loPI   C3A 8937   7.064   7.623   7.849  0.1188 -0.0522  0.0064
  559loPI   C4A 8938   6.896   7.233   7.855  0.2135  0.1217 -0.1996
  559loPI   C5A 8939   6.688   7.389   7.503  0.1089 -0.0475  0.1325
  559loPI   C6A 8940   6.600   7.037   7.252  0.1018 -0.2315 -0.0266
  559loPI   C1B 8941   7.179   8.500   8.108 -0.2383 -0.2649  0.1293
  559loPI   C2B 8942   7.130   8.539   7.705  0.1266  0.2216  0.0061
  559loPI   C3B 8943   6.819   8.443   7.378 -0.0441 -0.1868 -0.1674
  559loPI   C4B 8944   6.413   8.289   7.224  0.0322  0.1201  0.0104
  560loPI    C1 8945   6.122   2.856   9.250  0.1841  0.4452 -0.0156
  560loPI    C2 8946   6.071   2.852   9.647  0.0533  0.1776 -0.0331
  560loPI    C3 8947   6.258   2.548   9.466 -0.0681  0.2004 -0.1991
  560loPI   PO4 8948   5.820   2.878   9.114  0.4397  0.2709 -0.2363
  560loPI   GL1 8949   5.515   2.723   8.864 -0.1604 -0.2348  0.0481
  560loPI   GL2 8950   5.134   2.679   8.825 -0.1001  0.0386  0.0486
  560loPI   C1A 8951   5.565   2.791   8.430  0.1157 -0.0228 -0.0970
  560loPI   C2A 8952   5.641   2.798   7.983  0.0595  0.2899 -0.0467
  560loPI   C3A 8953   6.068   2.800   7.669 -0.0925  0.3281 -0.1203
  560loPI   C4A 8954   6.224   2.528   7.422  0.1810 -0.1835  0.2229
  560loPI   C5A 8955   6.384   2.244   7.064  0.0726 -0.0524  0.1187
  560loPI   C6A 8956   6.764   2.068   7.107 -0.0628  0.0216 -0.0981
  560loPI   C1B 8957   4.884   2.608   8.425  0.1041  0.1217 -0.0553
  560loPI   C2B 8958   4.829   2.628   7.993 -0.1284 -0.2831  0.2026
  560loPI   C3B 8959   4.961   2.793   7.595  0.3771 -0.0521 -0.0077
  560loPI   C4B 8960   4.839   2.875   7.184  0.6688 -0.0111  0.1608
  561loPI    C1 8961   1.901   7.556   9.486 -0.2327  0.1447  0.0226
  561loPI    C2 8962   2.122   7.823   9.287  0.2199 -0.1890  0.0625
  561loPI    C3 8963   2.016   7.894   9.666 -0.1186  0.1675 -0.0919
  561loPI   PO4 8964   1.794   7.429   9.283  0.0163  0.1044 -0.1199
  561loPI   GL1 8965   1.795   7.316   8.900  0.0311 -0.0923 -0.0077
  561loPI   GL2 8966   2.145   7.494   8.918 -0.1720 -0.0955 -0.1613
  561loPI   C1A 8967   1.492   7.231   8.527 -0.0162  0.0412  0.1282
  561loPI   C2A 8968   1.227   7.331   8.208  0.0308 -0.0319 -0.1219
  561loPI   C3A 8969   1.166   7.709   7.984  0.2213 -0.2103 -0.2732
  561loPI   C4A 8970   0.764   7.855   7.785 -0.0284 -0.1510 -0.1545
  561loPI   C5A 8971   0.468   7.634   7.608 -0.1345  0.3820 -0.1046
  561loPI   C6A 8972   0.357   7.242   7.226  0.0924 -0.1325 -0.0674
  561loPI   C1B 8973   2.397   7.677   8.743 -0.3627  0.0219 -0.1170
  561loPI   C2B 8974   2.490   7.588   8.316  0.2302  0.0127 -0.1438
  561loPI   C3B 8975   2.560   7.603   7.917 -0.1537  0.0059 -0.0485
  561loPI   C4B 8976   2.534   7.493   7.505 -0.3555 -0.0697 -0.0554
  562loPI    C1 8977   4.839   7.407   9.879 -0.1500  0.0440 -0.0019
  562loPI    C2 8978   4.567   7.205  10.091 -0.2490  0.0485 -0.1239
  562loPI    C3 8979   4.948   7.085  10.089 -0.3151 -0.1646 -0.2313
  562loPI   PO4 8980   4.720   7.483   9.631 -0.1218  0.0203  0.0856
  562loPI   GL1 8981   4.612   7.292   9.200  0.2603 -0.0578 -0.0014
  562loPI   GL2 8982   4.833   7.152   8.875  0.0752 -0.2539  0.0080
  562loPI   C1A 8983   4.231   7.307   8.850  0.0852  0.2476  0.1104
  562loPI   C2A 8984   4.301   7.227   8.425 -0.0174 -0.2723 -0.2150
  562loPI   C3A 8985   4.458   7.243   8.042 -0.2041 -0.0904 -0.2252
  562loPI   C4A 8986   4.353   7.369   7.739 -0.4154  0.3897 -0.0271
  562loPI   C5A 8987   4.265   7.208   7.343  0.0932 -0.0127  0.4051
  562loPI   C6A 8988   4.292   7.139   6.971 -0.3302 -0.1304  0.3199
  562loPI   C1B 8989   4.765   7.073   8.416 -0.2469  0.0680 -0.2124
  562loPI   C2B 8990   4.792   6.889   8.037  0.1228  0.4271 -0.0309
  562loPI   C3B 8991   4.810   6.590   7.694 -0.0774  0.3944 -0.2597
  562loPI   C4B 8992   4.926   6.192   7.395  0.0836 -0.0694  0.3294
  563loPI    C1 8993   1.458   8.252   9.776  0.0014 -0.0853 -0.0907
  563loPI    C2 8994   1.794   8.207   9.988 -0.0731 -0.0035  0.0460
  563loPI    C3 8995   1.566   7.889   9.905 -0.0500 -0.0341  0.0990
  563loPI   PO4 8996   1.617   8.521   9.578 -0.0543 -0.2725  0.0053
  563loPI   GL1 8997   1.542   8.631   9.178  0.3685 -0.0636  0.1696
  563loPI   GL2 8998   1.285   8.782   9.158  0.0662  0.2349  0.1166
  563loPI   C1A 8999   1.687   8.595   8.758 -0.1672  0.1219  0.2029
  563loPI   C2A 9000   1.943   8.601   8.378 -0.1878 -0.0348 -0.0813
  563loPI   C3A 9001   2.276   8.342   8.312 -0.1689  0.1321  0.0239
  563loPI   C4A 9002   2.408   8.050   7.999 -0.2661 -0.0275  0.2078
  563loPI   C5A 9003   2.627   8.104   7.621 -0.1176 -0.0537 -0.1521
  563loPI   C6A 9004   2.557   7.982   7.194  0.0100 -0.0058  0.0927
  563loPI   C1B 9005   1.241   8.689   8.645  0.0074  0.3917 -0.3543
  563loPI   C2B 9006   1.493   8.670   8.253  0.1461 -0.0637  0.0307
  563loPI   C3B 9007   1.718   8.627   7.948 -0.1257 -0.3328 -0.2482
  563loPI   C4B 9008   1.803   8.756   7.490  0.2624  0.0284  0.0055
  564loPI    C1 9009   4.599  14.145   9.875 -0.0461 -0.1412 -0.0270
  564loPI    C2 9010   4.326  13.852   9.869 -0.0407 -0.1485  0.0709
  564loPI    C3 9011   4.432  14.019  10.216 -0.1576  0.0765  0.0005
  564loPI   PO4 9012   4.444  14.286   9.583  0.1442  0.2849  0.2057
  564loPI   GL1 9013   4.350  14.332   9.141  0.1587 -0.3640  0.2307
  564loPI   GL2 9014   4.636  14.396   9.006  0.2906  0.3415  0.0850
  564loPI   C1A 9015   4.273  14.309   8.710  0.0289 -0.2843  0.1644
  564loPI   C2A 9016   4.151  14.227   8.208 -0.3057  0.3873 -0.1139
  564loPI   C3A 9017   4.113  14.259   7.757  0.0748 -0.0788 -0.1531
  564loPI   C4A 9018   4.115  14.493   7.523 -0.0257 -0.0921 -0.1417
  564loPI   C5A 9019   3.981  14.673   7.093 -0.3353  0.1373 -0.0023
  564loPI   C6A 9020   3.668  14.794   6.711  0.0665 -0.1917  0.0953
  564loPI   C1B 9021   4.832  14.490   8.665 -0.0296  0.1397 -0.2055
  564loPI   C2B 9022   4.928  14.580   8.277  0.1987  0.0142 -0.0233
  564loPI   C3B 9023   4.988  14.593   7.890  0.1472  0.0715  0.1657
  564loPI   C4B 9024   4.879  14.855   7.531 -0.1333 -0.0267 -0.1579
  565loPI    C1 9025  12.708  16.255   9.982  0.1586 -0.0245  0.0434
  565loPI    C2 9026  12.944  16.271  10.304  0.1644 -0.0616  0.0410
  565loPI    C3 9027  12.559  16.170  10.343  0.1716 -0.0924  0.0329
  565loPI   PO4 9028  12.734  16.168   9.807 -0.3390 -0.1687 -0.4748
  565loPI   GL1 9029  12.457  16.001   9.530 -0.3585  0.1591  0.0406
  565loPI   GL2 9030  12.627  16.281   9.332 -0.3038 -0.2326  0.2591
  565loPI   C1A 9031  12.478  15.907   9.107 -0.1650  0.0123  0.0442
  565loPI   C2A 9032  12.479  15.883   8.675 -0.2068 -0.0802  0.3273
  565loPI   C3A 9033  12.591  15.905   8.308  0.0700 -0.0389  0.1940
  565loPI   C4A 9034  12.377  15.860   7.816  0.3676  0.1122 -0.3013
  565loPI   C5A 9035  12.546  15.709   7.493 -0.0761  0.0793  0.0472
  565loPI   C6A 9036  12.804  15.524   7.325  0.1220  0.0128 -0.2405
  565loPI   C1B 9037  12.325  16.539   9.110  0.1257  0.0046 -0.3809
  565loPI   C2B 9038  12.103  16.645   8.893 -0.2892 -0.2054 -0.0434
  565loPI   C3B 9039  12.172  16.688   8.372 -0.0876 -0.0655  0.1260
  565loPI   C4B 9040  11.962  16.700   7.929  0.0431  0.1842 -0.2234
  566loPI    C1 9041  15.668  14.741   9.687  0.1891 -0.1532 -0.0942
  566loPI    C2 9042  15.356  14.690   9.932  0.2591 -0.3131 -0.0371
  566loPI    C3 9043  15.624  14.977  10.007  0.0846 -0.1234 -0.1299
  566loPI   PO4 9044  15.426  14.728   9.418  0.1929 -0.2024 -0.0920
  566loPI   GL1 9045  15.212  14.910   9.118 -0.1208 -0.1113  0.0692
  566loPI   GL2 9046  15.288  15.217   8.947 -0.0423 -0.2258  0.3527
  566loPI   C1A 9047  15.171  14.820   8.635 -0.0968 -0.0956 -0.0521
  566loPI   C2A 9048  15.115  14.846   8.202  0.1104 -0.0832  0.1924
  566loPI   C3A 9049  15.273  14.887   7.868 -0.2303  0.0693 -0.0367
  566loPI   C4A 9050  15.523  14.831   7.487  0.1274  0.3266  0.1515
  566loPI   C5A 9051  15.537  15.001   7.103  0.0667 -0.1717  0.0721
  566loPI   C6A 9052  15.612  15.484   7.018  0.3280  0.1359 -0.0359
  566loPI   C1B 9053  15.290  15.273   8.632 -0.1446 -0.2538  0.0108
  566loPI   C2B 9054  15.313  15.369   8.160 -0.0332 -0.1824 -0.1106
  566loPI   C3B 9055  15.455  15.460   7.804  0.4158 -0.1884  0.2754
  566loPI   C4B 9056  15.733  15.601   7.532  0.1218  0.0425 -0.0148
  567loPI    C1 9057  16.543  17.666   9.783 -0.1425  0.0712 -0.0878
  567loPI    C2 9058  16.336  17.986   9.906 -0.0395  0.1372 -0.0848
  567loPI    C3 9059  16.720  18.024   9.801 -0.0077  0.0019 -0.0197
  567loPI   PO4 9060  16.341  17.626   9.512 -0.0180 -0.3270 -0.2626
  567loPI   GL1 9061  16.400  17.580   9.154 -0.1159  0.1019  0.1455
  567loPI   GL2 9062  16.297  17.834   9.024 -0.2329  0.0274 -0.0530
  567loPI   C1A 9063  16.407  17.434   8.707  0.4954  0.2268 -0.3147
  567loPI   C2A 9064  16.447  17.394   8.335  0.2895  0.3654 -0.0770
  567loPI   C3A 9065  16.420  17.374   7.928 -0.1912  0.0522  0.3139
  567loPI   C4A 9066  16.517  17.135   7.659  0.1270  0.1682  0.0927
  567loPI   C5A 9067  16.652  17.153   7.192  0.3917  0.0606  0.0325
  567loPI   C6A 9068  17.001  17.081   6.900 -0.3524 -0.1092  0.2007
  567loPI   C1B 9069  16.292  17.904   8.598  0.1064  0.0466  0.2394
  567loPI   C2B 9070  16.303  17.799   8.152  0.0229 -0.0983  0.0305
  567loPI   C3B 9071  16.328  17.831   7.719  0.0600 -0.2565  0.1232
  567loPI   C4B 9072  16.466  17.796   7.259  0.3189 -0.2561  0.2172
  568loPI    C1 9073   3.057   5.061   9.674 -0.0333 -0.1296  0.0491
  568loPI    C2 9074   3.317   5.220   9.933 -0.2033  0.1031  0.0804
  568loPI    C3 9075   3.280   5.375   9.566 -0.1189 -0.0888 -0.0103
  568loPI   PO4 9076   3.140   4.861   9.522  0.1103 -0.2015  0.0402
  568loPI   GL1 9077   3.290   4.900   9.150  0.0996 -0.1938 -0.0044
  568loPI   GL2 9078   3.164   5.168   9.106 -0.0644  0.1237 -0.1748
  568loPI   C1A 9079   3.443   4.664   8.821 -0.1905  0.3318  0.1325
  568loPI   C2A 9080   3.489   4.736   8.352  0.0097 -0.1423  0.0348
  568loPI   C3A 9081   3.320   4.883   7.915  0.2164 -0.1890  0.1950
  568loPI   C4A 9082   3.329   5.017   7.464 -0.1782  0.2670 -0.1118
  568loPI   C5A 9083   3.345   4.763   7.053 -0.1209 -0.0864  0.1481
  568loPI   C6A 9084   3.583   4.660   6.732 -0.2367  0.3352 -0.3476
  568loPI   C1B 9085   3.116   5.445   8.711  0.1232  0.1505 -0.1193
  568loPI   C2B 9086   3.187   5.622   8.259  0.0889 -0.1430  0.0274
  568loPI   C3B 9087   3.261   5.840   7.881 -0.0553  0.1609 -0.1423
  568loPI   C4B 9088   3.220   5.975   7.461 -0.0288  0.2642 -0.2891
  569loPI    C1 9089   8.980  13.006   9.598  0.0308 -0.0463  0.1676
  569loPI    C2 9090   9.007  12.644   9.430  0.1338  0.1253 -0.1957
  569loPI    C3 9091   8.930  12.678   9.822  0.1376 -0.2869 -0.1550
  569loPI   PO4 9092   9.154  13.115   9.522  0.1485 -0.1155  0.2518
  569loPI   GL1 9093   9.292  13.278   9.225  0.2163 -0.1599  0.2731
  569loPI   GL2 9094   9.372  12.910   9.119 -0.0136  0.0995  0.2633
  569loPI   C1A 9095   9.420  13.477   8.993 -0.2311 -0.1561  0.0905
  569loPI   C2A 9096   9.318  13.786   8.698 -0.0801 -0.1489 -0.1642
  569loPI   C3A 9097   9.333  14.072   8.458 -0.1141 -0.1491 -0.0132
  569loPI   C4A 9098   9.351  14.429   8.218 -0.0065  0.0021  0.1457
  569loPI   C5A 9099   9.134  14.649   7.799  0.0133  0.1779 -0.0932
  569loPI   C6A 9100   8.836  14.573   7.499  0.0083 -0.1695  0.0950
  569loPI   C1B 9101   9.424  13.047   8.638  0.2917  0.1643  0.0120
  569loPI   C2B 9102   9.457  13.364   8.332 -0.0132  0.1646  0.1674
  569loPI   C3B 9103   9.560  13.525   7.984  0.1288  0.1177 -0.2901
  569loPI   C4B 9104   9.592  13.754   7.609  0.1390  0.0308 -0.1548
  570loPI    C1 9105   0.810  14.617   9.764  0.0202 -0.1251 -0.1273
  570loPI    C2 9106   1.178  14.553   9.905  0.0959 -0.0729 -0.2985
  570loPI    C3 9107   1.058  14.925   9.822 -0.0359 -0.0781 -0.1355
  570loPI   PO4 9108   0.780  14.518   9.520 -0.0578 -0.3715  0.2457
  570loPI   GL1 9109   0.970  14.459   9.162 -0.0086 -0.2663 -0.0716
  570loPI   GL2 9110   1.000  14.605   8.864 -0.1167  0.0435 -0.1372
  570loPI   C1A 9111   0.706  14.227   8.893  0.1440  0.1090  0.0647
  570loPI   C2A 9112   0.885  14.286   8.497 -0.3101  0.0513  0.1052
  570loPI   C3A 9113   0.931  14.322   8.001  0.0244 -0.2207 -0.1257
  570loPI   C4A 9114   0.850  14.257   7.610  0.0619  0.0479 -0.2285
  570loPI   C5A 9115   0.466  14.439   7.441  0.0295 -0.1334  0.1155
  570loPI   C6A 9116   0.455  14.823   7.244  0.3002  0.1248  0.1857
  570loPI   C1B 9117   1.207  14.637   8.558  0.0025  0.4148 -0.2953
  570loPI   C2B 9118   1.235  14.630   8.201 -0.1657 -0.0310 -0.2305
  570loPI   C3B 9119   1.277  14.661   7.770  0.0129  0.1102 -0.4606
  570loPI   C4B 9120   1.373  14.681   7.475 -0.0928  0.2705  0.4075
  571loPI    C1 9121  12.295   7.514   9.746 -0.1038  0.2075  0.4312
  571loPI    C2 9122  11.966   7.736   9.794 -0.0201  0.4889 -0.1941
  571loPI    C3 9123  12.304   7.835   9.983 -0.2023  0.3866  0.1964
  571loPI   PO4 9124  12.232   7.381   9.482  0.1598 -0.1302 -0.1639
  571loPI   GL1 9125  12.500   7.688   9.267 -0.0239 -0.0849 -0.2829
  571loPI   GL2 9126  12.244   7.930   9.389  0.1823  0.2560 -0.2068
  571loPI   C1A 9127  12.757   7.559   8.894 -0.0982 -0.0883  0.0574
  571loPI   C2A 9128  13.062   7.618   8.516 -0.1608  0.2105  0.2420
  571loPI   C3A 9129  13.285   7.644   8.163 -0.1445  0.2676  0.1193
  571loPI   C4A 9130  13.428   7.703   7.757 -0.0380  0.2408  0.3617
  571loPI   C5A 9131  13.219   7.610   7.340 -0.0359 -0.1870  0.0387
  571loPI   C6A 9132  13.012   7.505   6.952 -0.3382 -0.0223 -0.2494
  571loPI   C1B 9133  12.268   7.835   8.866 -0.0812 -0.3875 -0.2152
  571loPI   C2B 9134  12.271   7.808   8.462  0.1929  0.1069  0.4453
  571loPI   C3B 9135  12.336   7.880   8.046 -0.2603  0.0527 -0.0199
  571loPI   C4B 9136  12.427   7.841   7.621 -0.2152 -0.2015 -0.2773
  572loPI    C1 9137   9.821  19.605   9.767  0.1596 -0.4906  0.0217
  572loPI    C2 9138   9.683  19.534  10.135 -0.1090 -0.1669 -0.0114
  572loPI    C3 9139   9.435  19.515   9.822  0.0646 -0.2016 -0.1479
  572loPI   PO4 9140   9.975  19.464   9.748 -0.4747  0.2966 -0.2989
  572loPI   GL1 9141  10.133  19.216   9.362  0.4707  0.1866 -0.0103
  572loPI   GL2 9142  10.313  19.059   9.282  0.2212  0.0365 -0.1859
  572loPI   C1A 9143   9.925  19.313   8.917  0.1052 -0.4044  0.2502
  572loPI   C2A 9144   9.988  19.253   8.590 -0.0828  0.5514  0.3164
  572loPI   C3A 9145   9.840  19.340   8.046  0.1635  0.1517 -0.0199
  572loPI   C4A 9146   9.798  19.269   7.524  0.3206  0.1427 -0.0517
  572loPI   C5A 9147   9.731  19.668   7.161 -0.1330  0.2310 -0.0108
  572loPI   C6A 9148   9.785  20.170   7.165  0.0212 -0.0999  0.2051
  572loPI   C1B 9149  10.342  18.886   8.748 -0.0464  0.1935 -0.3296
  572loPI   C2B 9150  10.166  18.703   8.368  0.1787 -0.0474  0.1796
  572loPI   C3B 9151  10.308  18.490   7.963  0.0668  0.1031 -0.1435
  572loPI   C4B 9152  10.295  18.044   7.762  0.0585 -0.0315  0.0408
  573loPI    C1 9153  16.314   9.693  10.066 -0.0857 -0.3477 -0.1216
  573loPI    C2 9154  16.590   9.750  10.350 -0.0684  0.0291 -0.2083
  573loPI    C3 9155  16.249   9.562  10.438  0.0561 -0.1070 -0.0093
  573loPI   PO4 9156  16.446   9.625   9.812 -0.1619 -0.0685 -0.1241
  573loPI   GL1 9157  16.584   9.485   9.441 -0.0926 -0.1747 -0.3644
  573loPI   GL2 9158  16.749   9.736   9.415 -0.1149 -0.2755  0.1275
  573loPI   C1A 9159  16.272   9.696   9.161 -0.1073  0.2201 -0.1572
  573loPI   C2A 9160  16.054   9.846   8.773 -0.1074  0.2187  0.1289
  573loPI   C3A 9161  15.891   9.940   8.300  0.0635  0.0612 -0.0053
  573loPI   C4A 9162  15.840   9.900   7.867  0.0459 -0.0568  0.0691
  573loPI   C5A 9163  15.924   9.715   7.508 -0.1998 -0.3896  0.0383
  573loPI   C6A 9164  16.275   9.530   7.280  0.1233  0.0430  0.0871
  573loPI   C1B 9165  16.699   9.678   8.995  0.3196 -0.1056  0.0906
  573loPI   C2B 9166  16.605   9.574   8.580  0.1232 -0.0110  0.0016
  573loPI   C3B 9167  16.424   9.618   8.128 -0.2436 -0.2620  0.0081
  573loPI   C4B 9168  16.384   9.474   7.754  0.0575 -0.3976 -0.1404
  574loPI    C1 9169   5.932  17.672   9.439 -0.0260 -0.0025  0.0852
  574loPI    C2 9170   6.188  17.925   9.266 -0.1104  0.1066  0.1189
  574loPI    C3 9171   6.083  17.977   9.649 -0.3063  0.1573  0.0596
  574loPI   PO4 9172   5.748  17.666   9.355  0.0061 -0.0734  0.1201
  574loPI   GL1 9173   5.612  17.721   8.870 -0.2435 -0.1958  0.1780
  574loPI   GL2 9174   5.926  17.809   8.826  0.1685 -0.0462  0.0817
  574loPI   C1A 9175   5.555  17.485   8.555  0.1551  0.1838  0.3036
  574loPI   C2A 9176   5.560  17.268   8.154 -0.0875  0.0688 -0.2402
  574loPI   C3A 9177   5.605  17.314   7.665 -0.3213 -0.0065  0.0944
  574loPI   C4A 9178   5.900  17.115   7.418  0.0616  0.0321 -0.0661
  574loPI   C5A 9179   6.115  17.165   7.069 -0.2122 -0.3304 -0.2567
  574loPI   C6A 9180   6.313  17.197   6.666 -0.1196  0.1451  0.1117
  574loPI   C1B 9181   5.807  17.918   8.389  0.1797  0.0567 -0.3838
  574loPI   C2B 9182   5.653  17.787   8.043 -0.0563  0.3395  0.4021
  574loPI   C3B 9183   5.768  17.885   7.603 -0.1592  0.2037  0.1789
  574loPI   C4B 9184   5.967  17.654   7.303  0.0662 -0.1766  0.0815
  575loPI    C1 9185   4.641  19.056   9.199  0.2195 -0.3136 -0.0277
  575loPI    C2 9186   4.559  18.885   9.551 -0.0435 -0.2851 -0.0736
  575loPI    C3 9187   4.903  19.083   9.500  0.0626 -0.4171  0.1194
  575loPI   PO4 9188   4.521  19.208   9.101  0.2816 -0.1590  0.0975
  575loPI   GL1 9189   4.460  19.113   8.621  0.0440  0.0839  0.0853
  575loPI   GL2 9190   4.455  18.810   8.495 -0.0836  0.0500 -0.0048
  575loPI   C1A 9191   4.166  19.187   8.301 -0.0888  0.4189  0.0319
  575loPI   C2A 9192   4.048  19.082   7.880 -0.0324 -0.2224 -0.3135
  575loPI   C3A 9193   4.051  19.333   7.516 -0.1437  0.0027 -0.2392
  575loPI   C4A 9194   4.088  19.327   7.134 -0.0031  0.0665 -0.3639
  575loPI   C5A 9195   4.010  19.294   6.615 -0.1100 -0.0715 -0.1685
  575loPI   C6A 9196   3.912  19.369   6.120  0.4175  0.0727 -0.0760
  575loPI   C1B 9197   4.628  19.161   8.141 -0.3006 -0.2677  0.0902
  575loPI   C2B 9198   4.758  19.547   7.931 -0.1343 -0.2624 -0.3366
  575loPI   C3B 9199   5.118  19.542   7.599  0.1454  0.1202 -0.2066
  575loPI   C4B 9200   5.394  19.577   7.268  0.1654 -0.4103 -0.0801
  576loPI    C1 9201   5.714   0.009   9.293 -0.2898  0.1361  0.0303
  576loPI    C2 9202   5.916   0.100   9.626 -0.2306 -0.1443  0.0737
  576loPI    C3 9203   5.557   0.263   9.559 -0.1435  0.0887  0.1636
  576loPI   PO4 9204   5.853   0.062   9.096 -0.0514  0.1535 -0.0148
  576loPI   GL1 9205   6.059   0.255   8.828 -0.0269 -0.0555  0.0770
  576loPI   GL2 9206   6.390   0.490   8.848  0.0468 -0.0714 -0.2834
  576loPI   C1A 9207   6.150   0.486   8.413  0.0268 -0.1254 -0.1488
  576loPI   C2A 9208   6.187   0.922   8.097  0.0919  0.1148  0.1424
  576loPI   C3A 9209   6.376   0.963   7.680 -0.1439 -0.1140  0.3021
  576loPI   C4A 9210   6.391   1.159   7.253 -0.0040  0.1026 -0.0887
  576loPI   C5A 9211   6.558   1.529   6.942  0.2683  0.1872 -0.0602
  576loPI   C6A 9212   6.351   1.517   6.576  0.1668 -0.3029 -0.3318
  576loPI   C1B 9213   6.504   0.134   8.564  0.0990  0.0618  0.2197
  576loPI   C2B 9214   6.287   0.105   8.168  0.1916  0.2231 -0.0109
  576loPI   C3B 9215   6.342  -0.113   7.854 -0.1426  0.1700  0.2244
  576loPI   C4B 9216   6.397  -0.180   7.321  0.1743  0.0750  0.1410
  577loPI    C1 9217   1.754   9.453   9.935 -0.1927 -0.1602 -0.0825
  577loPI    C2 9218   1.937   9.681   9.662 -0.0262 -0.1662  0.0226
  577loPI    C3 9219   1.660   9.840   9.902 -0.0397 -0.1175 -0.0251
  577loPI   PO4 9220   1.643   9.248   9.718  0.1647 -0.1148  0.2832
  577loPI   GL1 9221   1.700   9.133   9.189 -0.0862  0.0451  0.0118
  577loPI   GL2 9222   1.936   9.099   9.034  0.0528  0.0158  0.1780
  577loPI   C1A 9223   1.472   9.178   8.845 -0.1438  0.0970  0.2320
  577loPI   C2A 9224   1.378   9.151   8.397  0.0507 -0.2374 -0.2554
  577loPI   C3A 9225   1.371   9.090   8.062 -0.2820 -0.0984  0.3323
  577loPI   C4A 9226   1.275   9.312   7.593  0.1001 -0.3703  0.0311
  577loPI   C5A 9227   1.002   9.604   7.267  0.1514  0.0610  0.0108
  577loPI   C6A 9228   1.346   9.807   6.896 -0.0388 -0.4094  0.2186
  577loPI   C1B 9229   1.901   9.077   8.596  0.2085 -0.0502 -0.4040
  577loPI   C2B 9230   1.875   9.061   8.148  0.1518  0.0653  0.0954
  577loPI   C3B 9231   1.720   9.209   7.778 -0.2509 -0.0933 -0.1036
  577loPI   C4B 9232   1.759   9.312   7.367  0.2304 -0.0221 -0.0259
  578loPI    C1 9233   5.087   6.857   9.323 -0.3807  0.0686  0.0310
  578loPI    C2 9234   5.239   6.985   9.670 -0.1430  0.1366 -0.0957
  578loPI    C3 9235   5.109   7.249   9.400 -0.0024  0.0982 -0.2018
  578loPI   PO4 9236   4.975   6.663   9.381 -0.0977 -0.3324 -0.1130
  578loPI   GL1 9237   4.969   6.330   9.037  0.1274  0.2494  0.2850
  578loPI   GL2 9238   5.218   6.091   8.839 -0.2393  0.2023  0.2589
  578loPI   C1A 9239   4.863   6.667   8.745 -0.2957  0.1500 -0.3402
  578loPI   C2A 9240   4.778   6.558   8.462  0.0115  0.2067 -0.1837
  578loPI   C3A 9241   4.865   6.148   8.135 -0.0977  0.0424 -0.2284
  578loPI   C4A 9242   5.154   5.961   7.782 -0.2382  0.0368 -0.3522
  578loPI   C5A 9243   5.383   5.927   7.342  0.2280  0.1447  0.1591
  578loPI   C6A 9244   5.421   6.237   6.969  0.2849  0.5166 -0.0203
  578loPI   C1B 9245   5.290   6.263   8.459 -0.0327 -0.0610 -0.0678
  578loPI   C2B 9246   5.283   6.415   8.010  0.1689 -0.0289  0.0837
  578loPI   C3B 9247   5.432   6.468   7.596  0.0268 -0.1653  0.2379
  578loPI   C4B 9248   5.123   6.601   7.279 -0.3064 -0.2176 -0.3917
  579loPI    C1 9249   7.846   2.478   9.558 -0.1562  0.2045 -0.1998
  579loPI    C2 9250   7.985   2.757   9.808 -0.0697  0.0447 -0.0672
  579loPI    C3 9251   7.667   2.538   9.911  0.0286 -0.0918 -0.0517
  579loPI   PO4 9252   7.844   2.520   9.247  0.1770 -0.0249  0.2153
  579loPI   GL1 9253   7.641   2.646   8.975 -0.1976  0.0592 -0.1892
  579loPI   GL2 9254   7.318   2.730   8.937  0.2535 -0.1358  0.1683
  579loPI   C1A 9255   7.827   2.793   8.638 -0.0312 -0.2813  0.1360
  579loPI   C2A 9256   8.049   2.907   8.336  0.2125  0.0161 -0.1200
  579loPI   C3A 9257   8.342   3.073   8.086 -0.3865 -0.2483 -0.1305
  579loPI   C4A 9258   8.356   3.442   7.917 -0.1442  0.0996 -0.0192
  579loPI   C5A 9259   8.333   3.489   7.426  0.0328 -0.0700  0.0233
  579loPI   C6A 9260   8.386   3.366   7.021  0.0535  0.1184  0.0125
  579loPI   C1B 9261   6.967   2.768   8.655  0.0295 -0.0036 -0.0886
  579loPI   C2B 9262   6.860   2.790   8.329  0.3023  0.3569 -0.1524
  579loPI   C3B 9263   6.618   2.560   7.972 -0.0064  0.0447 -0.1543
  579loPI   C4B 9264   6.645   2.304   7.652  0.0897 -0.2470  0.3850
  580loPI    C1 9265   5.407   8.145   9.351  0.0362  0.4997 -0.1194
  580loPI    C2 9266   5.733   8.192   9.579  0.1058  0.0335 -0.1119
  580loPI    C3 9267   5.380   8.111   9.748  0.0906  0.0181 -0.1508
  580loPI   PO4 9268   5.569   8.099   9.069 -0.1577  0.0599 -0.1498
  580loPI   GL1 9269   5.769   8.219   8.781 -0.0031 -0.2884  0.1743
  580loPI   GL2 9270   5.586   8.535   8.744  0.2934  0.2890 -0.1938
  580loPI   C1A 9271   5.753   8.272   8.342 -0.0288 -0.3404  0.0005
  580loPI   C2A 9272   5.722   8.435   7.875  0.1095  0.1737  0.3065
  580loPI   C3A 9273   5.771   8.436   7.452  0.2944  0.1203 -0.2759
  580loPI   C4A 9274   5.956   8.528   7.097  0.4915  0.2653 -0.3249
  580loPI   C5A 9275   6.241   8.695   6.913 -0.0356 -0.0268  0.2999
  580loPI   C6A 9276   6.505   8.846   6.618 -0.0801  0.1440  0.1474
  580loPI   C1B 9277   5.210   8.445   8.515 -0.1761 -0.0186 -0.3891
  580loPI   C2B 9278   5.213   8.491   8.113 -0.0888  0.1336  0.0775
  580loPI   C3B 9279   5.270   8.569   7.662  0.1676  0.1655  0.0105
  580loPI   C4B 9280   5.303   8.407   7.293  0.2670  0.1659  0.1407
  581loPI    C1 9281  10.833   5.028   9.353  0.0552 -0.1959 -0.0025
  581loPI    C2 9282  10.922   5.108   9.734  0.0521  0.1923 -0.0798
  581loPI    C3 9283  10.689   4.796   9.645  0.1090  0.0579  0.2292
  581loPI   PO4 9284  10.975   5.228   9.261 -0.4285  0.3339 -0.0923
  581loPI   GL1 9285  11.015   5.614   9.056  0.3920 -0.5134 -0.1128
  581loPI   GL2 9286  11.243   5.490   8.938 -0.0544  0.1341 -0.0096
  581loPI   C1A 9287  10.792   5.644   8.714  0.0116  0.0772  0.0125
  581loPI   C2A 9288  10.824   5.620   8.325 -0.0812 -0.1037 -0.3030
  581loPI   C3A 9289  10.903   5.528   7.800  0.0609  0.3467 -0.0498
  581loPI   C4A 9290  11.042   5.526   7.324  0.0168 -0.0387  0.4075
  581loPI   C5A 9291  10.986   5.928   7.091  0.0791  0.1037 -0.3358
  581loPI   C6A 9292  10.687   6.226   6.914  0.4584  0.2256  0.2870
  581loPI   C1B 9293  11.350   5.556   8.617 -0.0010  0.2689  0.2106
  581loPI   C2B 9294  11.323   5.486   8.152  0.2980 -0.1747 -0.2799
  581loPI   C3B 9295  11.376   5.256   7.651 -0.1681 -0.2701 -0.0403
  581loPI   C4B 9296  11.418   5.224   7.249  0.0619 -0.0116 -0.1803
  582loPI    C1 9297   2.436   1.536   9.312 -0.0646  0.1912  0.2641
  582loPI    C2 9298   2.162   1.259   9.221 -0.0490  0.2356  0.0785
  582loPI    C3 9299   2.507   1.151   9.393  0.0654  0.1061 -0.2254
  582loPI   PO4 9300   2.464   1.716   9.094  0.1283  0.0063 -0.2719
  582loPI   GL1 9301   2.381   1.700   8.645  0.1737 -0.1400  0.0008
  582loPI   GL2 9302   2.750   1.852   8.494 -0.1074 -0.0703  0.0077
  582loPI   C1A 9303   2.206   1.713   8.233 -0.1475 -0.0342 -0.3299
  582loPI   C2A 9304   2.121   1.969   7.779 -0.2936  0.0311 -0.5266
  582loPI   C3A 9305   2.071   2.329   7.502 -0.0070  0.1705  0.2133
  582loPI   C4A 9306   1.964   2.533   7.211 -0.0914  0.2402 -0.1793
  582loPI   C5A 9307   2.057   2.904   6.861  0.0562  0.1330 -0.1990
  582loPI   C6A 9308   2.173   3.222   6.628  0.0136  0.2810  0.2108
  582loPI   C1B 9309   2.701   1.728   8.166  0.0930 -0.3268 -0.0580
  582loPI   C2B 9310   2.633   1.816   7.766 -0.0779 -0.1911  0.2000
  582loPI   C3B 9311   2.476   1.625   7.386 -0.1049  0.0711  0.1153
  582loPI   C4B 9312   2.483   1.205   7.138 -0.1956  0.0988 -0.3215
  583loPI    C1 9313  17.821  13.924   9.384  0.2470  0.0923  0.1673
  583loPI    C2 9314  17.494  14.054   9.575  0.0276 -0.0883 -0.0782
  583loPI    C3 9315  17.695  13.738   9.715  0.0627 -0.0147  0.0387
  583loPI   PO4 9316  18.026  14.072   9.348 -0.2296 -0.0363 -0.1110
  583loPI   GL1 9317  18.177  14.129   9.047  0.0350  0.1214  0.0376
  583loPI   GL2 9318  18.515  13.914   8.803  0.3271 -0.4712 -0.0136
  583loPI   C1A 9319  18.347  14.395   8.669  0.0361  0.0812 -0.0143
  583loPI   C2A 9320  18.531  14.376   8.264  0.0735 -0.1437  0.2540
  583loPI   C3A 9321  18.545  14.715   7.901  0.0371  0.2282 -0.2683
  583loPI   C4A 9322  18.681  14.819   7.564  0.1241  0.0092  0.0092
  583loPI   C5A 9323  18.519  15.017   7.179  0.0418  0.0538 -0.1709
  583loPI   C6A 9324  18.305  15.091   6.809  0.0660  0.1310  0.1451
  583loPI   C1B 9325  18.691  13.882   8.322  0.1143 -0.0431  0.0903
  583loPI   C2B 9326  18.811  13.893   7.947 -0.0662  0.0197 -0.0969
  583loPI   C3B 9327  18.742  13.854   7.617  0.2262  0.1734  0.1690
  583loPI   C4B 9328  18.375  13.641   7.423 -0.1109  0.1142 -0.1294
  584loPI    C1 9329  17.614  18.534   9.971 -0.1811  0.0578 -0.1099
  584loPI    C2 9330  17.805  18.221  10.132 -0.0205  0.1329 -0.1518
  584loPI    C3 9331  17.917  18.593  10.226  0.2751  0.1822 -0.6597
  584loPI   PO4 9332  17.484  18.366   9.766 -0.3706 -0.0315  0.1235
  584loPI   GL1 9333  17.536  18.377   9.356  0.0704  0.2296  0.4497
  584loPI   GL2 9334  17.737  18.173   9.213  0.1683 -0.3021  0.1313
  584loPI   C1A 9335  17.306  18.487   8.895 -0.1058 -0.0320 -0.0346
  584loPI   C2A 9336  17.070  18.587   8.564  0.2941  0.0158 -0.2800
  584loPI   C3A 9337  17.055  18.536   8.091  0.3393 -0.0421 -0.4703
  584loPI   C4A 9338  16.833  18.671   7.712  0.0130  0.1550 -0.1446
  584loPI   C5A 9339  16.638  18.520   7.307  0.0456  0.2938  0.1966
  584loPI   C6A 9340  16.694  18.684   6.834 -0.2368  0.2397 -0.0597
  584loPI   C1B 9341  17.666  17.987   8.865 -0.0551 -0.1315 -0.3313
  584loPI   C2B 9342  17.597  17.920   8.451 -0.2032  0.0446 -0.0009
  584loPI   C3B 9343  17.661  17.759   8.072  0.0027  0.0419  0.2871
  584loPI   C4B 9344  17.467  17.671   7.643 -0.1213 -0.3246 -0.2769
  585loPI    C1 9345   0.786   2.612   9.277 -0.1279 -0.5340  0.0535
  585loPI    C2 9346   0.877   2.497   9.649 -0.2768 -0.4950  0.1025
  585loPI    C3 9347   0.903   2.883   9.547 -0.2648 -0.5015  0.0806
  585loPI   PO4 9348   0.575   2.431   9.174  0.0506  0.3966  0.1027
  585loPI   GL1 9349   0.566   2.312   8.813  0.0842 -0.6058 -0.0739
  585loPI   GL2 9350   0.416   2.615   8.744 -0.2198  0.0589 -0.1554
  585loPI   C1A 9351   0.490   2.331   8.295 -0.1364 -0.1917  0.0829
  585loPI   C2A 9352   0.332   2.332   7.891 -0.1003 -0.2093 -0.1988
  585loPI   C3A 9353   0.474   2.200   7.566 -0.1630 -0.0357 -0.0214
  585loPI   C4A 9354   0.793   2.256   7.170  0.0688 -0.0772 -0.2104
  585loPI   C5A 9355   0.854   2.013   6.767  0.0648  0.1714 -0.1045
  585loPI   C6A 9356   0.869   1.595   6.610  0.3526  0.1515 -0.3452
  585loPI   C1B 9357   0.108   2.445   8.555  0.2016  0.0145 -0.1864
  585loPI   C2B 9358  -0.024   2.329   8.254  0.1594 -0.0050  0.3046
  585loPI   C3B 9359  -0.209   2.359   7.948 -0.3034 -0.4628 -0.0978
  585loPI   C4B 9360  -0.442   2.441   7.417  0.1292 -0.1813 -0.0747
  586loPI    C1 9361  17.022  13.832   9.721  0.2187 -0.2639  0.0837
  586loPI    C2 9362  17.267  13.900  10.030  0.1127 -0.2447  0.1642
  586loPI    C3 9363  17.074  14.204   9.856  0.0199 -0.2788  0.2069
  586loPI   PO4 9364  17.094  13.676   9.581 -0.2061 -0.0058 -0.2695
  586loPI   GL1 9365  17.393  13.663   9.246  0.1065 -0.3999  0.0544
  586loPI   GL2 9366  17.142  13.829   9.107 -0.0890 -0.1330  0.1181
  586loPI   C1A 9367  17.495  13.673   8.819  0.1648 -0.2607 -0.0829
  586loPI   C2A 9368  17.463  14.002   8.472 -0.2106 -0.0324 -0.0586
  586loPI   C3A 9369  17.324  14.063   8.038 -0.1556  0.0482  0.0982
  586loPI   C4A 9370  17.263  13.954   7.584 -0.0197 -0.0998  0.0880
  586loPI   C5A 9371  17.288  13.553   7.472 -0.2339 -0.0469 -0.0301
  586loPI   C6A 9372  17.306  13.138   7.428  0.0715  0.1042  0.3326
  586loPI   C1B 9373  17.057  14.107   8.763  0.1179  0.3264  0.0702
  586loPI   C2B 9374  16.893  14.219   8.391 -0.1710 -0.2928  0.1384
  586loPI   C3B 9375  16.758  13.978   8.076 -0.3028 -0.4655 -0.1447
  586loPI   C4B 9376  16.576  13.835   7.642 -0.1066  0.0670  0.2020
  587loPI    C1 9377   8.190  16.358   9.895  0.0243 -0.0516  0.0936
  587loPI    C2 9378   8.163  16.486  10.273  0.1084 -0.1423  0.1310
  587loPI    C3 9379   7.976  16.151  10.162  0.1587 -0.1648  0.1145
  587loPI   PO4 9380   8.489  16.491   9.848  0.0880  0.0543  0.0612
  587loPI   GL1 9381   8.677  16.357   9.448  0.1756 -0.0934  0.0526
  587loPI   GL2 9382   8.250  16.311   9.436  0.0565  0.1629 -0.1821
  587loPI   C1A 9383   8.831  16.393   9.118 -0.2807  0.1540  0.0682
  587loPI   C2A 9384   8.799  16.356   8.631 -0.0717 -0.0239  0.2177
  587loPI   C3A 9385   8.891  16.202   8.252  0.0348 -0.2370 -0.1054
  587loPI   C4A 9386   9.081  16.178   7.768 -0.1517  0.1495 -0.1616
  587loPI   C5A 9387   9.271  15.995   7.356  0.0126  0.0746 -0.2037
  587loPI   C6A 9388   9.519  16.185   7.039  0.3304 -0.1701  0.2223
  587loPI   C1B 9389   8.377  16.326   9.057 -0.0605 -0.0403  0.1837
  587loPI   C2B 9390   8.345  16.179   8.525  0.1676  0.0171 -0.0545
  587loPI   C3B 9391   8.464  15.981   8.108  0.1474  0.2127 -0.0907
  587loPI   C4B 9392   8.629  16.266   7.799  0.3307 -0.0690  0.0702
  588loPI    C1 9393   2.847   6.058   9.596 -0.0896 -0.0168 -0.0049
  588loPI    C2 9394   2.480   6.147   9.463 -0.1534 -0.1795  0.0594
  588loPI    C3 9395   2.528   5.987   9.826 -0.0352 -0.3325 -0.0224
  588loPI   PO4 9396   2.987   5.888   9.428  0.1798 -0.0747 -0.2700
  588loPI   GL1 9397   2.760   5.713   9.007  0.0040  0.2774  0.3104
  588loPI   GL2 9398   2.603   5.439   8.722  0.1079 -0.2234 -0.1918
  588loPI   C1A 9399   2.943   5.892   8.631 -0.1013  0.2106  0.1176
  588loPI   C2A 9400   2.914   6.092   8.257 -0.0354 -0.1949 -0.0076
  588loPI   C3A 9401   2.970   6.213   7.860 -0.2884 -0.0386  0.0303
  588loPI   C4A 9402   2.890   6.462   7.395 -0.0286  0.2604  0.1601
  588loPI   C5A 9403   2.504   6.430   7.159  0.0818  0.0355  0.2305
  588loPI   C6A 9404   2.106   6.255   6.983  0.1004  0.2146 -0.1283
  588loPI   C1B 9405   2.668   5.597   8.232  0.1894 -0.0032  0.1319
  588loPI   C2B 9406   2.811   5.656   7.837  0.0434 -0.0064 -0.1352
  588loPI   C3B 9407   3.140   5.470   7.581 -0.1235 -0.0438  0.0502
  588loPI   C4B 9408   3.116   5.469   7.102  0.0767  0.1314  0.3038
  589loPI    C1 9409  18.507   0.831   9.503 -0.0608  0.0306  0.1750
  589loPI    C2 9410  18.431   1.223   9.518  0.2184  0.0898  0.0963
  589loPI    C3 9411  18.525   1.024   9.852  0.4338  0.1656  0.0826
  589loPI   PO4 9412  18.564   0.817   9.151 -0.0182 -0.0048  0.1843
  589loPI   GL1 9413  18.516   0.494   8.817 -0.2140 -0.1862  0.0367
  589loPI   GL2 9414  18.209   0.539   8.807  0.2360 -0.0755  0.0544
  589loPI   C1A 9415  18.511   0.696   8.342 -0.3033  0.0764 -0.4313
  589loPI   C2A 9416  18.439   0.798   7.908 -0.1686 -0.2777 -0.4905
  589loPI   C3A 9417  18.686   0.658   7.632 -0.0097 -0.1234 -0.0445
  589loPI   C4A 9418  18.965   0.546   7.255 -0.2930  0.0813 -0.1762
  589loPI   C5A 9419  19.353   0.870   7.151 -0.1617 -0.1168  0.1938
  589loPI   C6A 9420  19.054   1.255   7.062 -0.3533 -0.0312  0.4041
  589loPI   C1B 9421  18.027   0.668   8.345 -0.1378 -0.1010 -0.2055
  589loPI   C2B 9422  17.995   0.612   7.811  0.0691 -0.3093 -0.1186
  589loPI   C3B 9423  18.318   0.484   7.377 -0.0709 -0.0390  0.0821
  589loPI   C4B 9424  18.547   0.382   7.078  0.0591  0.2743 -0.4061
  590loPI    C1 9425   8.558  14.944  10.366  0.0388  0.0244 -0.1224
  590loPI    C2 9426   8.640  14.553  10.383 -0.0452  0.0137  0.0483
  590loPI    C3 9427   8.281  14.676  10.258 -0.0262  0.0355  0.0155
  590loPI   PO4 9428   8.616  15.159  10.117  0.1697 -0.0271  0.1273
  590loPI   GL1 9429   8.785  15.264   9.765  0.2442  0.2607 -0.1661
  590loPI   GL2 9430   8.825  15.603   9.711 -0.1512 -0.0734 -0.1838
  590loPI   C1A 9431   8.537  14.942   9.500  0.0767 -0.3147  0.5222
  590loPI   C2A 9432   8.513  14.745   9.085 -0.0020 -0.0945  0.2146
  590loPI   C3A 9433   8.583  14.661   8.646  0.2184 -0.0400  0.0563
  590loPI   C4A 9434   8.686  14.696   8.212  0.0304  0.0266  0.2239
  590loPI   C5A 9435   8.392  14.641   7.805 -0.0013  0.1005 -0.0955
  590loPI   C6A 9436   8.101  14.581   7.430  0.0025  0.0834  0.1281
  590loPI   C1B 9437   9.118  15.539   9.395 -0.1322 -0.1268 -0.0309
  590loPI   C2B 9438   9.245  15.529   8.947 -0.1710  0.1758  0.1880
  590loPI   C3B 9439   9.493  15.535   8.557  0.0747  0.0103  0.0191
  590loPI   C4B 9440   9.652  15.450   8.117  0.1136  0.0395  0.0941
  591loPI    C1 9441  17.950  17.587   9.879 -0.0830 -0.0996  0.2627
  591loPI    C2 9442  17.550  17.585   9.876 -0.0830 -0.0855 -0.0791
  591loPI    C3 9443  17.747  17.716  10.199 -0.3571  0.3591 -0.0837
  591loPI   PO4 9444  17.972  17.605   9.513  0.1534  0.0419 -0.1202
  591loPI   GL1 9445  17.963  17.708   9.177  0.0342  0.1234  0.0478
  591loPI   GL2 9446  18.167  17.968   9.055 -0.0222  0.2270  0.4152
  591loPI   C1A 9447  17.677  17.442   8.861  0.3766  0.0716 -0.1670
  591loPI   C2A 9448  17.666  17.369   8.442 -0.1398  0.1265  0.0896
  591loPI   C3A 9449  17.902  17.183   8.025  0.1436 -0.3002  0.1587
  591loPI   C4A 9450  18.338  17.205   7.741  0.0870 -0.0406 -0.1767
  591loPI   C5A 9451  18.501  16.809   7.363  0.5842  0.0481 -0.0289
  591loPI   C6A 9452  18.733  16.409   7.379 -0.0086  0.1626  0.1946
  591loPI   C1B 9453  18.086  18.088   8.622  0.1767  0.0464  0.1102
  591loPI   C2B 9454  18.044  18.054   8.232 -0.1062 -0.0194  0.1163
  591loPI   C3B 9455  18.411  18.064   7.905  0.2403 -0.1504 -0.2293
  591loPI   C4B 9456  18.389  17.698   7.501 -0.0170  0.0536 -0.2927
  592loPI    C1 9457  13.262  13.459   9.994 -0.2153  0.2026 -0.1214
  592loPI    C2 9458  13.579  13.644  10.153 -0.0264 -0.1367 -0.0952
  592loPI    C3 9459  13.277  13.528  10.388 -0.0722 -0.0054 -0.0888
  592loPI   PO4 9460  13.231  13.587   9.769 -0.1196 -0.0566  0.0115
  592loPI   GL1 9461  13.396  13.482   9.386 -0.0880 -0.2131 -0.3470
  592loPI   GL2 9462  13.523  13.600   9.102 -0.2343  0.0065 -0.0225
  592loPI   C1A 9463  13.205  13.092   9.157 -0.0837 -0.1010 -0.0373
  592loPI   C2A 9464  13.108  13.059   8.690 -0.2610 -0.4173  0.0750
  592loPI   C3A 9465  12.903  13.150   8.248 -0.1203  0.2322 -0.0145
  592loPI   C4A 9466  12.784  13.064   7.958 -0.0901 -0.2583  0.2249
  592loPI   C5A 9467  12.731  13.068   7.580  0.0008  0.0871  0.0214
  592loPI   C6A 9468  12.450  12.857   7.184 -0.0117  0.1467 -0.1700
  592loPI   C1B 9469  13.557  13.560   8.656  0.2511 -0.0691  0.0262
  592loPI   C2B 9470  13.594  13.634   8.208 -0.1040  0.0847 -0.2082
  592loPI   C3B 9471  13.540  13.753   7.749  0.0614  0.5251  0.0537
  592loPI   C4B 9472  13.577  13.522   7.373 -0.0923 -0.0457 -0.1005
  593loPI    C1 9473   4.927   5.155   9.646 -0.0762 -0.2672 -0.2721
  593loPI    C2 9474   4.558   5.200   9.500 -0.0982  0.2442 -0.0825
  593loPI    C3 9475   4.612   5.148   9.893  0.0265  0.0278 -0.1266
  593loPI   PO4 9476   5.132   5.357   9.417 -0.2687  0.1250 -0.0891
  593loPI   GL1 9477   5.137   5.723   9.150 -0.5124 -0.0405  0.1652
  593loPI   GL2 9478   5.432   5.492   9.036 -0.0363  0.1028 -0.0107
  593loPI   C1A 9479   4.998   5.522   8.760 -0.1082 -0.1743 -0.0883
  593loPI   C2A 9480   5.153   5.226   8.519 -0.0246  0.3955 -0.1122
  593loPI   C3A 9481   5.221   5.097   8.160 -0.0605  0.0851 -0.0223
  593loPI   C4A 9482   4.969   5.050   7.823 -0.2952 -0.1238  0.1104
  593loPI   C5A 9483   4.821   5.009   7.367 -0.3551 -0.2825 -0.0090
  593loPI   C6A 9484   4.407   4.989   7.038  0.2376  0.1681 -0.2101
  593loPI   C1B 9485   5.490   5.741   8.643 -0.1923  0.1081  0.0837
  593loPI   C2B 9486   5.647   5.971   8.261  0.1331  0.2695  0.0382
  593loPI   C3B 9487   5.668   6.103   7.851  0.2564  0.2162  0.0312
  593loPI   C4B 9488   5.877   6.216   7.446 -0.2678  0.0968 -0.1920
  594loPI    C1 9489  15.867   2.105   9.457  0.2804  0.0290  0.1211
  594loPI    C2 9490  15.678   2.372   9.227  0.3362  0.0079  0.0502
  594loPI    C3 9491  15.481   2.054   9.367  0.3084  0.0078  0.0107
  594loPI   PO4 9492  16.099   2.122   9.373  0.0690  0.2560  0.0483
  594loPI   GL1 9493  16.423   2.308   9.127 -0.2697 -0.1010  0.0482
  594loPI   GL2 9494  16.612   2.481   8.988 -0.1225 -0.2213 -0.3252
  594loPI   C1A 9495  16.342   2.078   8.719  0.0343 -0.3285 -0.0079
  594loPI   C2A 9496  16.223   2.049   8.242 -0.0733 -0.0978  0.4238
  594loPI   C3A 9497  16.258   1.997   7.773 -0.1425  0.2190 -0.0046
  594loPI   C4A 9498  16.307   2.352   7.411  0.0774  0.1637  0.0981
  594loPI   C5A 9499  16.391   2.623   7.102  0.2297  0.0185  0.1878
  594loPI   C6A 9500  16.107   2.642   6.726  0.0079 -0.2327  0.4361
  594loPI   C1B 9501  16.801   2.144   8.692 -0.2857 -0.1242  0.2391
  594loPI   C2B 9502  17.042   1.942   8.366  0.0612  0.3286 -0.0209
  594loPI   C3B 9503  17.144   1.763   7.999 -0.1163 -0.1420 -0.0333
  594loPI   C4B 9504  17.354   1.793   7.603  0.1760 -0.1739 -0.0087
  595loPI    C1 9505   1.931   0.512   9.419  0.3370 -0.1775 -0.0715
  595loPI    C2 9506   2.157   0.842   9.422  0.0814 -0.0004  0.0862
  595loPI    C3 9507   2.076   0.652   9.764 -0.1725  0.0530  0.0578
  595loPI   PO4 9508   2.121   0.405   9.168  0.0702  0.3024  0.1345
  595loPI   GL1 9509   2.255   0.188   8.803  0.0431 -0.0680  0.1209
  595loPI   GL2 9510   2.423   0.438   8.778  0.2260 -0.1320  0.1750
  595loPI   C1A 9511   1.956   0.023   8.467 -0.0118 -0.2506 -0.2731
  595loPI   C2A 9512   1.854  -0.002   7.986 -0.0429  0.0641 -0.0265
  595loPI   C3A 9513   1.670  -0.025   7.451  0.0873 -0.0383  0.1834
  595loPI   C4A 9514   1.890  -0.131   7.122  0.1613  0.1328 -0.0001
  595loPI   C5A 9515   2.088  -0.107   6.766 -0.5460  0.0860  0.1943
  595loPI   C6A 9516   2.234  -0.195   6.359  0.2582  0.0565  0.0735
  595loPI   C1B 9517   2.355   0.338   8.318 -0.1798 -0.1218 -0.2246
  595loPI   C2B 9518   2.088   0.387   7.941  0.0874 -0.0818 -0.3422
  595loPI   C3B 9519   2.050   0.482   7.486 -0.0991 -0.1991 -0.1801
  595loPI   C4B 9520   1.691   0.687   7.377 -0.2404 -0.1749  0.2986
  596loPI    C1 9521  16.817  11.484   9.561  0.3699  0.1257 -0.0133
  596loPI    C2 9522  17.002  11.822   9.455  0.0687  0.2823 -0.0510
  596loPI    C3 9523  16.609  11.780   9.391  0.0949 -0.0598 -0.0072
  596loPI   PO4 9524  16.946  11.324   9.424 -0.2997  0.0573 -0.2204
  596loPI   GL1 9525  16.995  11.030   9.094  0.1405 -0.3002  0.1135
  596loPI   GL2 9526  17.269  11.111   9.048 -0.1275  0.0817 -0.0461
  596loPI   C1A 9527  16.942  10.977   8.596 -0.2647  0.0464 -0.0982
  596loPI   C2A 9528  16.960  10.873   8.185 -0.0250  0.2062 -0.0589
  596loPI   C3A 9529  16.999  10.841   7.729  0.1621  0.2422 -0.0002
  596loPI   C4A 9530  17.047  10.587   7.343 -0.0071 -0.2917 -0.4566
  596loPI   C5A 9531  16.832  10.301   7.082 -0.1113  0.0680 -0.0896
  596loPI   C6A 9532  16.687   9.872   6.896 -0.0003 -0.0347  0.2277
  596loPI   C1B 9533  17.436  10.965   8.600 -0.1068 -0.0337  0.1247
  596loPI   C2B 9534  17.403  11.145   8.243 -0.2150 -0.0782  0.1755
  596loPI   C3B 9535  17.455  11.066   7.822  0.2585 -0.3174 -0.1103
  596loPI   C4B 9536  17.543  10.879   7.351 -0.1528  0.0092  0.1313
  597loPI    C1 9537  14.769   7.256   9.844  0.1038 -0.0231 -0.1013
  597loPI    C2 9538  14.445   7.167  10.061  0.0803  0.0126 -0.1214
  597loPI    C3 9539  14.810   7.094  10.207  0.0605 -0.1992 -0.1738
  597loPI   PO4 9540  14.748   7.216   9.583 -0.2127  0.0777 -0.0409
  597loPI   GL1 9541  14.828   7.380   9.228 -0.1515  0.2015 -0.0026
  597loPI   GL2 9542  14.915   7.735   9.160  0.2974  0.2486 -0.1062
  597loPI   C1A 9543  15.011   7.239   8.813  0.0586  0.0217 -0.1002
  597loPI   C2A 9544  15.052   7.303   8.314  0.0968  0.0265  0.0697
  597loPI   C3A 9545  15.003   7.543   7.947  0.0568 -0.1952 -0.2574
  597loPI   C4A 9546  15.109   7.542   7.560 -0.3847 -0.0232  0.2394
  597loPI   C5A 9547  15.143   7.255   7.243 -0.5394 -0.0351  0.1304
  597loPI   C6A 9548  15.129   6.841   7.102 -0.3925 -0.0916 -0.0077
  597loPI   C1B 9549  15.019   7.720   8.680 -0.1361 -0.2681  0.0077
  597loPI   C2B 9550  15.064   7.913   8.290  0.2027 -0.5197 -0.0126
  597loPI   C3B 9551  15.123   8.053   7.890 -0.0703 -0.0107 -0.0635
  597loPI   C4B 9552  15.214   8.015   7.417  0.1679 -0.1299  0.0880
  598loPI    C1 9553  17.424   0.384   9.697  0.1148 -0.0977  0.1022
  598loPI    C2 9554  17.038   0.307   9.625  0.0494  0.1361  0.1916
  598loPI    C3 9555  17.171   0.323  10.001  0.1744 -0.0657  0.1581
  598loPI   PO4 9556  17.525   0.468   9.407  0.0937  0.1597  0.0725
  598loPI   GL1 9557  17.498   0.607   9.035  0.2628  0.1335  0.1138
  598loPI   GL2 9558  17.200   0.900   8.824 -0.1307  0.0554  0.0905
  598loPI   C1A 9559  17.561   0.687   8.570 -0.1297  0.1202  0.0163
  598loPI   C2A 9560  17.407   0.740   8.150  0.0333 -0.1009 -0.2132
  598loPI   C3A 9561  17.233   0.890   7.784  0.0286 -0.2550  0.3262
  598loPI   C4A 9562  17.151   0.924   7.273 -0.1743  0.0064 -0.0638
  598loPI   C5A 9563  17.336   0.877   6.869  0.4207 -0.4719  0.3737
  598loPI   C6A 9564  17.309   0.677   6.490  0.1734 -0.0076  0.1013
  598loPI   C1B 9565  17.060   1.178   8.506 -0.2401 -0.0847 -0.2089
  598loPI   C2B 9566  16.929   1.346   8.092  0.0181  0.1528 -0.1006
  598loPI   C3B 9567  16.961   1.339   7.647 -0.0232  0.1080 -0.2201
  598loPI   C4B 9568  16.714   1.373   7.316  0.0787 -0.1051 -0.0600
  599loPI    C1 9569  17.991   2.097   9.568  0.1515  0.1100  0.1949
  599loPI    C2 9570  18.182   1.746   9.555 -0.1167 -0.0388  0.1899
  599loPI    C3 9571  18.070   1.900   9.907 -0.1686 -0.0526  0.1795
  599loPI   PO4 9572  18.077   2.160   9.247 -0.1706  0.0151 -0.1095
  599loPI   GL1 9573  17.809   2.128   8.942 -0.2740 -0.0607  0.1805
  599loPI   GL2 9574  17.713   2.468   9.061 -0.3525  0.2308 -0.0907
  599loPI   C1A 9575  17.610   1.958   8.460  0.2493  0.1123 -0.1873
  599loPI   C2A 9576  17.520   2.080   8.022  0.1753 -0.2750 -0.0929
  599loPI   C3A 9577  17.750   2.126   7.671 -0.1458 -0.0665 -0.1028
  599loPI   C4A 9578  17.758   2.229   7.195 -0.0750  0.0923 -0.2773
  599loPI   C5A 9579  18.000   2.275   6.734  0.2251  0.3296  0.0823
  599loPI   C6A 9580  18.336   2.357   6.330  0.1973 -0.0808 -0.0225
  599loPI   C1B 9581  17.678   2.470   8.648 -0.1323  0.1755 -0.1961
  599loPI   C2B 9582  17.687   2.551   8.216 -0.1850  0.0643 -0.1048
  599loPI   C3B 9583  17.615   2.601   7.855 -0.0949  0.5440  0.2391
  599loPI   C4B 9584  17.527   2.635   7.444 -0.0771 -0.0455 -0.1267
  600loPI    C1 9585  13.772   7.405   9.779  0.1090 -0.1870  0.1302
  600loPI    C2 9586  14.135   7.479   9.929  0.0238 -0.0601  0.2775
  600loPI    C3 9587  13.944   7.142  10.026  0.1559 -0.1898  0.0947
  600loPI   PO4 9588  13.717   7.516   9.521 -0.0886 -0.3448  0.1970
  600loPI   GL1 9589  13.762   7.296   9.158  0.0657  0.2318  0.2495
  600loPI   GL2 9590  13.465   7.180   9.032  0.0118 -0.2693  0.1025
  600loPI   C1A 9591  13.938   7.298   8.705 -0.3688 -0.2031 -0.3712
  600loPI   C2A 9592  14.184   7.168   8.372  0.1196 -0.0481 -0.2131
  600loPI   C3A 9593  14.186   7.285   7.903 -0.0982 -0.0039 -0.1783
  600loPI   C4A 9594  14.175   7.490   7.558 -0.3824  0.5166  0.1911
  600loPI   C5A 9595  14.276   7.550   7.237  0.1516 -0.0762  0.1516
  600loPI   C6A 9596  14.663   7.506   7.071 -0.2977  0.1771  0.1860
  600loPI   C1B 9597  13.454   7.098   8.568  0.3407 -0.4556  0.1455
  600loPI   C2B 9598  13.722   7.285   8.111 -0.0615  0.0183 -0.0676
  600loPI   C3B 9599  13.723   7.291   7.686 -0.2664  0.1723  0.0508
  600loPI   C4B 9600  13.703   7.661   7.392  0.0006 -0.2253  0.0269
  601loPI    C1 9601   4.296  18.584   9.286 -0.0660 -0.1916 -0.0156
  601loPI    C2 9602   4.093  18.896   9.431  0.1241 -0.0543 -0.0415
  601loPI    C3 9603   4.159  18.577   9.662 -0.0270 -0.0552  0.0018
  601loPI   PO4 9604   4.424  18.693   8.962  0.0125 -0.0410 -0.1354
  601loPI   GL1 9605   4.359  18.392   8.712 -0.2462 -0.2637 -0.1305
  601loPI   GL2 9606   4.019  18.109   8.660  0.1103 -0.3495  0.1444
  601loPI   C1A 9607   4.404  18.372   8.258  0.0857 -0.0701 -0.2126
  601loPI   C2A 9608   4.275  18.248   7.801 -0.3734 -0.4752 -0.2018
  601loPI   C3A 9609   4.469  18.181   7.452  0.4733 -0.2161  0.1379
  601loPI   C4A 9610   4.432  18.422   7.154 -0.2004 -0.1960 -0.2066
  601loPI   C5A 9611   4.042  18.225   6.973  0.0964 -0.0853 -0.0119
  601loPI   C6A 9612   3.738  18.386   6.584  0.0040  0.0198 -0.0482
  601loPI   C1B 9613   4.033  17.980   8.180 -0.0402  0.5727  0.0020
  601loPI   C2B 9614   4.051  17.838   7.789  0.0725  0.2611 -0.1520
  601loPI   C3B 9615   4.018  17.871   7.341 -0.3373  0.0618 -0.1619
  601loPI   C4B 9616   4.309  17.824   6.882  0.4720 -0.0706 -0.1081
  602loPI    C1 9617  19.054  15.412  10.172  0.0110 -0.0055  0.0380
  602loPI    C2 9618  18.819  15.133  10.335  0.1000 -0.0803  0.0392
  602loPI    C3 9619  19.208  15.145  10.427  0.0659  0.1422  0.1609
  602loPI   PO4 9620  18.980  15.322   9.857 -0.2456  0.1378  0.2986
  602loPI   GL1 9621  18.828  15.065   9.561 -0.2022  0.1642 -0.0362
  602loPI   GL2 9622  19.088  14.850   9.288  0.3583 -0.0314  0.2511
  602loPI   C1A 9623  18.924  15.391   9.272  0.0779 -0.3477  0.1949
  602loPI   C2A 9624  18.905  15.513   8.888  0.1578 -0.2045 -0.2407
  602loPI   C3A 9625  18.831  15.302   8.546  0.2234 -0.0275 -0.0887
  602loPI   C4A 9626  18.610  15.174   8.140 -0.2126  0.0840 -0.0519
  602loPI   C5A 9627  18.620  15.340   7.671  0.1459 -0.0574 -0.3130
  602loPI   C6A 9628  18.277  15.413   7.394 -0.3496  0.0650 -0.1250
  602loPI   C1B 9629  19.179  15.075   8.875  0.2176  0.0085 -0.0561
  602loPI   C2B 9630  19.299  15.115   8.435 -0.0598 -0.3007 -0.0392
  602loPI   C3B 9631  19.211  15.353   8.167 -0.1285 -0.1148  0.3119
  602loPI   C4B 9632  19.108  15.676   7.725 -0.2584 -0.0154 -0.1839
  603loPI    C1 9633  19.355  10.258   9.155 -0.0096  0.2599  0.0806
  603loPI    C2 9634  19.648  10.197   9.420  0.1263 -0.0842 -0.1417
  603loPI    C3 9635  19.307   9.988   9.446  0.1080 -0.0605 -0.1907
  603loPI   PO4 9636  19.325  10.501   9.170 -0.0053 -0.1092  0.1279
  603loPI   GL1 9637  19.483  10.790   8.868  0.3645 -0.0209 -0.0898
  603loPI   GL2 9638  19.350  11.047   8.967  0.2483 -0.0113 -0.0027
  603loPI   C1A 9639  19.256  10.560   8.596  0.1408  0.3532  0.0792
  603loPI   C2A 9640  19.283  10.474   8.067  0.1126  0.1652  0.0298
  603loPI   C3A 9641  19.468  10.373   7.700 -0.1512 -0.0393 -0.3271
  603loPI   C4A 9642  19.685  10.379   7.306  0.2825  0.0986 -0.1590
  603loPI   C5A 9643  19.767  10.285   6.784 -0.0768  0.2230 -0.0712
  603loPI   C6A 9644  19.770   9.964   6.462 -0.3051  0.2362 -0.2608
  603loPI   C1B 9645  19.292  11.231   8.501 -0.0890 -0.3816 -0.1997
  603loPI   C2B 9646  19.280  11.467   8.135 -0.4459 -0.0449  0.0398
  603loPI   C3B 9647  19.330  11.603   7.581 -0.1520 -0.1535 -0.2069
  603loPI   C4B 9648  19.609  11.395   7.204  0.0772 -0.0408  0.0688
  604loPI    C1 9649  11.992  17.046   9.902 -0.0104  0.0828  0.0174
  604loPI    C2 9650  12.130  17.364  10.103 -0.1158  0.0757  0.1014
  604loPI    C3 9651  11.990  17.046  10.302 -0.2674  0.0888  0.0178
  604loPI   PO4 9652  11.926  17.115   9.672  0.1930 -0.1597 -0.2225
  604loPI   GL1 9653  11.588  16.905   9.422 -0.3879  0.2579  0.0708
  604loPI   GL2 9654  11.818  16.667   9.269  0.1703  0.1845  0.1805
  604loPI   C1A 9655  11.458  17.074   9.114  0.2229 -0.0437  0.0216
  604loPI   C2A 9656  11.341  17.119   8.727 -0.2748  0.2269 -0.3362
  604loPI   C3A 9657  11.227  16.912   8.397  0.0305  0.0233  0.1871
  604loPI   C4A 9658  11.339  16.944   7.943  0.3144 -0.3556 -0.0718
  604loPI   C5A 9659  11.283  16.676   7.525  0.2541 -0.0136 -0.2393
  604loPI   C6A 9660  11.190  16.123   7.498  0.1123 -0.0211  0.0187
  604loPI   C1B 9661  11.587  16.644   8.839 -0.0042  0.0314  0.2600
  604loPI   C2B 9662  11.568  16.565   8.374  0.1855  0.2380 -0.0576
  604loPI   C3B 9663  11.567  16.407   8.052  0.0447  0.0820 -0.3039
  604loPI   C4B 9664  11.666  16.379   7.644  0.0664 -0.0496 -0.2211
  605loPI    C1 9665  19.125   2.040   9.329 -0.0545  0.0390 -0.1587
  605loPI    C2 9666  19.354   2.269   9.562 -0.0604 -0.2268  0.1142
  605loPI    C3 9667  18.997   2.144   9.693 -0.1929 -0.1376 -0.1550
  605loPI   PO4 9668  19.136   2.171   9.142 -0.1021  0.3077 -0.0715
  605loPI   GL1 9669  19.173   2.425   8.807  0.2341 -0.1723 -0.1523
  605loPI   GL2 9670  18.854   2.180   8.712 -0.0484 -0.1550 -0.3193
  605loPI   C1A 9671  19.193   2.544   8.406  0.0436 -0.0543 -0.0935
  605loPI   C2A 9672  19.216   2.796   8.066 -0.1783  0.0711 -0.3020
  605loPI   C3A 9673  19.269   2.887   7.626 -0.1371 -0.1093 -0.0352
  605loPI   C4A 9674  19.272   2.934   7.203 -0.0824 -0.1374 -0.2496
  605loPI   C5A 9675  19.396   3.276   7.080  0.1020  0.0928  0.2546
  605loPI   C6A 9676  19.177   3.400   6.665  0.0256  0.2200 -0.1127
  605loPI   C1B 9677  18.837   2.127   8.376  0.1127  0.0676  0.0518
  605loPI   C2B 9678  18.918   2.260   8.009 -0.3709  0.1903 -0.0014
  605loPI   C3B 9679  18.759   2.254   7.558  0.2754 -0.2564  0.2645
  605loPI   C4B 9680  18.879   2.125   7.128 -0.1029  0.2615  0.2447
  606loPI    C1 9681  12.408   2.411   9.134 -0.2097 -0.3467  0.1761
  606loPI    C2 9682  12.782   2.292   9.213  0.1268  0.2837 -0.3662
  606loPI    C3 9683  12.571   2.486   9.491  0.1741 -0.1191 -0.0399
  606loPI   PO4 9684  12.290   2.204   9.059  0.0560  0.1163 -0.3525
  606loPI   GL1 9685  12.105   2.138   8.716 -0.1468 -0.0537  0.0531
  606loPI   GL2 9686  12.352   2.133   8.591  0.0311 -0.2377 -0.0499
  606loPI   C1A 9687  11.864   2.174   8.425 -0.1212 -0.0563 -0.0606
  606loPI   C2A 9688  11.684   1.983   7.987  0.2248  0.2468 -0.2061
  606loPI   C3A 9689  11.421   1.902   7.632 -0.3771  0.0674  0.0895
  606loPI   C4A 9690  11.327   1.797   7.324  0.1266 -0.0456 -0.0746
  606loPI   C5A 9691  11.107   1.481   7.022 -0.0344  0.2014  0.1600
  606loPI   C6A 9692  10.671   1.244   7.162 -0.0874  0.0002 -0.0626
  606loPI   C1B 9693  12.263   1.960   8.199  0.0926 -0.1441 -0.2903
  606loPI   C2B 9694  12.283   1.775   7.888 -0.1743 -0.5212 -0.0717
  606loPI   C3B 9695  12.065   1.871   7.517  0.0255 -0.2488 -0.2916
  606loPI   C4B 9696  11.798   2.221   7.361  0.0174  0.2120  0.1062
  607loPI    C1 9697  13.175   1.696   9.485  0.1132  0.1445  0.0133
  607loPI    C2 9698  13.041   2.049   9.618 -0.0482  0.1043 -0.0397
  607loPI    C3 9699  13.417   1.936   9.694 -0.0451  0.2161  0.1169
  607loPI   PO4 9700  12.917   1.618   9.346 -0.0514 -0.0901 -0.0104
  607loPI   GL1 9701  12.814   1.390   8.863 -0.1771 -0.2297  0.4660
  607loPI   GL2 9702  13.177   1.543   8.915 -0.2634 -0.1185 -0.2818
  607loPI   C1A 9703  12.877   1.147   8.475  0.1698  0.3441 -0.1009
  607loPI   C2A 9704  12.807   1.042   7.951 -0.1071 -0.1056  0.4799
  607loPI   C3A 9705  12.561   0.853   7.643 -0.0551 -0.1377  0.3031
  607loPI   C4A 9706  12.484   0.934   7.273  0.0938 -0.4868 -0.2563
  607loPI   C5A 9707  12.286   1.074   6.892  0.1136  0.1273 -0.0311
  607loPI   C6A 9708  11.883   1.139   6.611 -0.1308 -0.0622 -0.2719
  607loPI   C1B 9709  13.332   1.205   8.503  0.0693  0.3372  0.2857
  607loPI   C2B 9710  13.271   1.274   8.122 -0.4987  0.2946 -0.0061
  607loPI   C3B 9711  13.369   1.151   7.702  0.0527 -0.1356 -0.0798
  607loPI   C4B 9712  13.036   1.012   7.434  0.1535 -0.0638  0.0985
  608loPI    C1 9713   0.660  10.598   9.508  0.0841  0.1366 -0.0320
  608loPI    C2 9714   0.563  10.973   9.407 -0.1503  0.1219  0.1317
  608loPI    C3 9715   0.561  10.863   9.791 -0.0807 -0.0469  0.0848
  608loPI   PO4 9716   0.615  10.449   9.236  0.0159 -0.2325 -0.0371
  608loPI   GL1 9717   0.842  10.517   8.840 -0.1669  0.4225  0.2225
  608loPI   GL2 9718   0.689  10.169   8.837 -0.1089 -0.2954  0.2659
  608loPI   C1A 9719   0.899  10.606   8.419  0.1930 -0.0875  0.0706
  608loPI   C2A 9720   0.878  10.522   8.023 -0.0108  0.1471 -0.2042
  608loPI   C3A 9721   0.863  10.638   7.659  0.0907 -0.0236  0.1722
  608loPI   C4A 9722   0.836  11.029   7.377  0.2671  0.1154 -0.0383
  608loPI   C5A 9723   0.929  11.096   6.966 -0.1145  0.1206 -0.1638
  608loPI   C6A 9724   1.303  11.149   6.782 -0.2521  0.3233 -0.0081
  608loPI   C1B 9725   0.477  10.031   8.442 -0.1267  0.0765  0.1402
  608loPI   C2B 9726   0.471   9.654   8.001 -0.0888  0.0149 -0.0321
  608loPI   C3B 9727   0.153   9.352   7.815 -0.1042 -0.0899 -0.1229
  608loPI   C4B 9728   0.211   8.940   7.519  0.0912 -0.1470 -0.1636
  609POPI    C1 9729  10.478   0.821   9.647  0.0500  0.0521  0.0183
  609POPI    C2 9730  10.642   0.753  10.006 -0.0785 -0.0920  0.0508
  609POPI    C3 9731  10.246   0.801   9.972 -0.0570  0.0146 -0.0598
  609POPI   PO4 9732  10.635   0.586   9.488 -0.3531  0.1654  0.1518
  609POPI   GL1 9733  10.800   0.582   9.169 -0.1813 -0.1979  0.1564
  609POPI   GL2 9734  11.151   0.568   9.163  0.0232 -0.1658 -0.1779
  609POPI   C1A 9735  10.823   0.542   8.763 -0.2321 -0.0261 -0.2630
  609POPI   D2A 9736  10.700   0.684   8.367  0.1796 -0.1572 -0.0630
  609POPI   C3A 9737  10.727   0.614   7.975  0.0491  0.4661  0.1121
  609POPI   C4A 9738  10.610   0.609   7.472 -0.0663  0.1989  0.0050
  609POPI   C1B 9739  11.401   0.722   8.868 -0.1325  0.0821 -0.3035
  609POPI   C2B 9740  11.661   0.658   8.642  0.0886 -0.1844 -0.5157
  609POPI   C3B 9741  11.695   0.583   8.196 -0.1701  0.2532  0.0496
  609POPI   C4B 9742  11.672   0.427   7.803  0.0227 -0.0445  0.0420
  610POPI    C1 9743  12.537  19.326   9.966  0.1610  0.0966 -0.0329
  610POPI    C2 9744  12.727  19.491  10.277 -0.2095  0.1830  0.1535
  610POPI    C3 9745  12.512  19.158  10.329  0.1506 -0.1019 -0.1239
  610POPI   PO4 9746  12.571  19.481   9.827  0.0124 -0.0356 -0.1653
  610POPI   GL1 9747  12.272  19.663   9.524  0.0394  0.2231  0.1801
  610POPI   GL2 9748  12.570  19.680   9.267 -0.2348  0.2013  0.1965
  610POPI   C1A 9749  12.162  19.475   9.063 -0.2501  0.0493  0.0564
  610POPI   D2A 9750  12.523  19.174   8.857 -0.3158  0.3343 -0.1530
  610POPI   C3A 9751  12.628  19.155   8.371  0.0205  0.3918 -0.0879
  610POPI   C4A 9752  12.388  18.970   8.049 -0.0861 -0.0915 -0.0617
  610POPI   C1B 9753  12.588  19.763   8.775  0.0115 -0.2536 -0.0260
  610POPI   C2B 9754  12.458  19.721   8.431  0.3413  0.0602 -0.1549
  610POPI   C3B 9755  12.090  19.687   8.171 -0.0832  0.2249 -0.3608
  610POPI   C4B 9756  11.967  19.250   7.978 -0.1632  0.0497  0.1942
  611POPI    C1 9757   8.884   6.116   9.625 -0.0317 -0.0419  0.0263
  611POPI    C2 9758   8.590   6.161   9.893  0.0762 -0.0437  0.1453
  611POPI    C3 9759   8.971   6.145  10.014  0.1178 -0.1560  0.0018
  611POPI   PO4 9760   8.826   6.335   9.401  0.0387 -0.1458  0.2360
  611POPI   GL1 9761   9.100   6.485   9.131 -0.5021 -0.0479 -0.2333
  611POPI   GL2 9762   9.477   6.629   9.217  0.5868 -0.0911 -0.1906
  611POPI   C1A 9763   8.839   6.548   8.743 -0.0599 -0.4086  0.0406
  611POPI   D2A 9764   8.800   6.543   8.318  0.0482 -0.3238 -0.0296
  611POPI   C3A 9765   8.574   6.858   8.169 -0.1940 -0.1632 -0.0397
  611POPI   C4A 9766   8.635   6.731   7.761  0.1237 -0.0747 -0.2815
  611POPI   C1B 9767   9.426   6.878   8.783 -0.1417 -0.2037 -0.4604
  611POPI   C2B 9768   9.490   7.025   8.378 -0.1174 -0.0181  0.2142
  611POPI   C3B 9769   9.617   6.955   7.877  0.1681  0.0945  0.0725
  611POPI   C4B 9770   9.634   6.941   7.457  0.3373 -0.0478  0.1503
  612POPI    C1 9771  13.667  11.970  10.098  0.0023 -0.0640  0.0277
  612POPI    C2 9772  13.414  11.870  10.392 -0.0988  0.1971  0.0320
  612POPI    C3 9773  13.793  11.741  10.401 -0.1805 -0.0410  0.1225
  612POPI   PO4 9774  13.554  12.170   9.918 -0.2297 -0.0351  0.3005
  612POPI   GL1 9775  13.478  12.047   9.431  0.0800 -0.2480  0.0556
  612POPI   GL2 9776  13.213  11.781   9.267  0.0337  0.1740  0.0846
  612POPI   C1A 9777  13.411  12.147   9.025  0.1801 -0.1577  0.2744
  612POPI   D2A 9778  13.177  12.194   8.753 -0.3419 -0.0107  0.1500
  612POPI   C3A 9779  13.418  12.127   8.448  0.1373 -0.0756  0.2199
  612POPI   C4A 9780  13.062  12.022   8.147 -0.3428  0.2953  0.4090
  612POPI   C1B 9781  13.028  11.685   8.935  0.4475  0.2602 -0.2060
  612POPI   C2B 9782  12.850  11.774   8.607  0.2160 -0.1403  0.0156
  612POPI   C3B 9783  12.790  11.639   8.136 -0.1122 -0.1424 -0.1748
  612POPI   C4B 9784  12.979  11.710   7.698 -0.0806  0.0498 -0.3413
  613POPI    C1 9785   2.555   7.982   9.570  0.3399 -0.1310 -0.0495
  613POPI    C2 9786   2.454   8.141   9.923 -0.0906 -0.3470 -0.0695
  613POPI    C3 9787   2.814   7.973   9.875  0.1374  0.0689  0.1322
  613POPI   PO4 9788   2.455   8.140   9.407  0.1052 -0.2613 -0.0006
  613POPI   GL1 9789   2.165   8.414   9.172  0.3134  0.1425 -0.1135
  613POPI   GL2 9790   2.061   8.652   9.201  0.6103 -0.3361  0.1306
  613POPI   C1A 9791   2.138   8.270   8.774 -0.0369  0.0497 -0.0191
  613POPI   D2A 9792   2.019   7.925   8.635  0.0424 -0.1904  0.2723
  613POPI   C3A 9793   1.977   7.659   8.460  0.0105  0.1887 -0.1096
  613POPI   C4A 9794   1.911   8.011   8.063 -0.3132 -0.1497  0.1265
  613POPI   C1B 9795   2.262   8.795   8.803  0.1856 -0.3471 -0.0137
  613POPI   C2B 9796   2.398   8.815   8.393 -0.0049 -0.0284  0.1339
  613POPI   C3B 9797   2.301   8.724   7.972 -0.1979 -0.0146  0.0904
  613POPI   C4B 9798   2.432   8.564   7.517  0.0587  0.1081 -0.2878
  614POPI    C1 9799   3.675  16.199   9.588 -0.1877 -0.1990  0.2261
  614POPI    C2 9800   3.503  16.222   9.948  0.0741  0.0936  0.3366
  614POPI    C3 9801   3.866  16.379   9.889  0.0928 -0.0745 -0.0212
  614POPI   PO4 9802   3.532  16.212   9.376 -0.4257  0.0387  0.2329
  614POPI   GL1 9803   3.656  16.097   9.023  0.3040 -0.0934  0.3285
  614POPI   GL2 9804   3.335  15.926   9.013  0.0326 -0.2229  0.2513
  614POPI   C1A 9805   3.758  16.023   8.554  0.1325  0.3910 -0.0427
  614POPI   D2A 9806   3.850  16.144   8.091 -0.0788  0.1684 -0.3034
  614POPI   C3A 9807   3.945  16.372   7.751 -0.0221  0.3744 -0.2166
  614POPI   C4A 9808   4.250  16.517   7.458  0.1234 -0.1090  0.1484
  614POPI   C1B 9809   3.239  15.946   8.499  0.2422 -0.1413  0.0041
  614POPI   C2B 9810   3.412  15.868   8.155 -0.2879 -0.1432 -0.1690
  614POPI   C3B 9811   3.713  15.830   7.785 -0.4054  0.2970  0.1520
  614POPI   C4B 9812   3.679  15.909   7.344  0.2283 -0.1027  0.0248
  615POPI    C1 9813  15.049  17.389   9.611  0.0286  0.2764 -0.1511
  615POPI    C2 9814  15.401  17.528   9.741  0.0825 -0.1066  0.1292
  615POPI    C3 9815  15.183  17.286   9.973 -0.1370 -0.2683 -0.2362
  615POPI   PO4 9816  15.051  17.476   9.230 -0.0623  0.2180  0.0907
  615POPI   GL1 9817  14.858  17.322   8.934 -0.3365  0.3533 -0.0589
  615POPI   GL2 9818  14.605  17.383   8.779  0.1246 -0.1388  0.3859
  615POPI   C1A 9819  14.992  17.262   8.484  0.2183 -0.1503  0.3684
  615POPI   D2A 9820  15.011  17.435   8.005  0.1099  0.1859  0.1259
  615POPI   C3A 9821  14.763  17.513   7.607  0.3055  0.1260  0.0699
  615POPI   C4A 9822  14.593  17.618   7.146  0.1300  0.0666 -0.3066
  615POPI   C1B 9823  14.548  17.386   8.302 -0.0826 -0.3717 -0.3486
  615POPI   C2B 9824  14.353  17.411   7.893 -0.0559 -0.0987  0.1107
  615POPI   C3B 9825  14.164  17.612   7.487  0.1318  0.2709  0.0053
  615POPI   C4B 9826  13.956  17.937   7.408 -0.0115 -0.0740  0.1541
  616POPI    C1 9827   3.381   2.843   9.546  0.0226 -0.0329  0.0164
  616POPI    C2 9828   3.315   2.613   9.867 -0.1273  0.1128  0.0915
  616POPI    C3 9829   3.584   2.501   9.593 -0.0578 -0.0536  0.2259
  616POPI   PO4 9830   3.178   2.850   9.381 -0.2212 -0.2003 -0.0439
  616POPI   GL1 9831   3.007   2.706   8.969 -0.0749  0.1252 -0.3264
  616POPI   GL2 9832   3.234   2.505   8.827  0.3009 -0.1555 -0.0504
  616POPI   C1A 9833   2.816   2.848   8.553 -0.0984 -0.1573 -0.0015
  616POPI   D2A 9834   2.729   2.892   8.100 -0.2713  0.1299 -0.0386
  616POPI   C3A 9835   2.838   2.819   7.583  0.0702 -0.2252  0.2193
  616POPI   C4A 9836   2.709   2.991   7.091 -0.0379 -0.4817  0.2497
  616POPI   C1B 9837   3.118   2.554   8.377 -0.2246 -0.0727 -0.2558
  616POPI   C2B 9838   3.131   2.551   7.982 -0.2588 -0.2344 -0.5350
  616POPI   C3B 9839   3.297   2.595   7.609  0.2813 -0.0420 -0.2873
  616POPI   C4B 9840   3.126   2.470   7.184  0.1943 -0.1693 -0.1726
  617POPI    C1 9841   0.941   0.255   9.526 -0.1738  0.0468 -0.0367
  617POPI    C2 9842   0.753   0.470   9.807 -0.3959  0.0487 -0.1846
  617POPI    C3 9843   0.704   0.073   9.792  0.1350 -0.0404  0.1842
  617POPI   PO4 9844   0.909   0.398   9.302 -0.1869 -0.0367 -0.1777
  617POPI   GL1 9845   1.186   0.391   8.834 -0.0351  0.2503  0.2646
  617POPI   GL2 9846   0.951   0.634   8.765 -0.2851  0.0308 -0.0361
  617POPI   C1A 9847   0.891   0.276   8.440  0.0576  0.0600 -0.1058
  617POPI   D2A 9848   0.910   0.492   8.072  0.1811  0.0596 -0.0259
  617POPI   C3A 9849   1.281   0.608   7.937  0.0693 -0.0890  0.2037
  617POPI   C4A 9850   1.622   0.480   7.797  0.1351  0.2465  0.0733
  617POPI   C1B 9851   1.322   0.596   8.427 -0.1936  0.1651 -0.1808
  617POPI   C2B 9852   1.721   0.733   8.175 -0.0761  0.1823  0.0875
  617POPI   C3B 9853   1.994   0.898   7.875  0.3623 -0.2378 -0.1890
  617POPI   C4B 9854   2.370   0.958   7.602 -0.3251  0.3256  0.0702
  618POPI    C1 9855  13.711  15.328  10.147 -0.0680  0.0661 -0.0337
  618POPI    C2 9856  13.379  15.462  10.324 -0.2861 -0.2294 -0.2095
  618POPI    C3 9857  13.558  15.131  10.460  0.0126 -0.0010 -0.0360
  618POPI   PO4 9858  13.744  15.237   9.896 -0.1398 -0.2553  0.1331
  618POPI   GL1 9859  13.538  15.016   9.578 -0.0346 -0.2726  0.2175
  618POPI   GL2 9860  13.269  14.728   9.525 -0.2568  0.0719  0.0868
  618POPI   C1A 9861  13.793  14.844   9.288 -0.2059  0.2590  0.4288
  618POPI   D2A 9862  14.258  14.761   9.191 -0.0980  0.2289 -0.0960
  618POPI   C3A 9863  14.239  14.886   8.715 -0.1384 -0.0260 -0.0644
  618POPI   C4A 9864  14.249  15.199   8.327  0.1388  0.0829 -0.1687
  618POPI   C1B 9865  13.330  14.795   9.109 -0.0321  0.0779 -0.1029
  618POPI   C2B 9866  13.364  14.705   8.675 -0.1264 -0.1324  0.0853
  618POPI   C3B 9867  13.287  14.837   8.324  0.1873 -0.3352  0.1412
  618POPI   C4B 9868  13.514  15.016   7.937 -0.0099  0.0434 -0.0380
  619POPI    C1 9869   5.405   1.516   9.660 -0.1143 -0.0374 -0.0633
  619POPI    C2 9870   5.093   1.556   9.909 -0.0179 -0.1805  0.0823
  619POPI    C3 9871   5.422   1.363  10.029  0.1214 -0.0458 -0.0766
  619POPI   PO4 9872   5.325   1.506   9.405 -0.2197 -0.4134 -0.1182
  619POPI   GL1 9873   5.588   1.522   8.909 -0.2480 -0.0753  0.1724
  619POPI   GL2 9874   5.350   1.406   8.648  0.3174  0.2547  0.1420
  619POPI   C1A 9875   5.821   1.354   8.574  0.0350  0.0655 -0.3322
  619POPI   D2A 9876   5.951   1.400   8.228 -0.1317 -0.0971  0.1145
  619POPI   C3A 9877   5.875   1.214   7.838  0.1222 -0.0451 -0.0288
  619POPI   C4A 9878   5.959   1.066   7.440  0.1094 -0.1165 -0.0317
  619POPI   C1B 9879   5.517   1.636   8.292  0.2908 -0.1938 -0.1121
  619POPI   C2B 9880   5.557   2.091   8.128 -0.0923 -0.0753  0.0035
  619POPI   C3B 9881   5.889   2.469   8.297 -0.0824 -0.1622  0.0294
  619POPI   C4B 9882   6.203   2.775   8.202 -0.0740  0.0656 -0.0490
  620POPI    C1 9883  15.381   1.411   9.675 -0.1516  0.0224 -0.1000
  620POPI    C2 9884  15.746   1.248   9.669 -0.1025  0.1190  0.1437
  620POPI    C3 9885  15.436   1.037   9.807 -0.1350  0.0474 -0.0358
  620POPI   PO4 9886  15.322   1.536   9.473 -0.2889 -0.0083 -0.0949
  620POPI   GL1 9887  15.381   1.402   9.076  0.0952  0.0414  0.0091
  620POPI   GL2 9888  15.180   1.693   9.026  0.3122 -0.0154 -0.0139
  620POPI   C1A 9889  15.525   1.451   8.660 -0.0534  0.0642  0.2800
  620POPI   D2A 9890  15.516   1.430   8.220  0.2179 -0.0902 -0.0217
  620POPI   C3A 9891  15.594   1.839   8.046  0.1882  0.0576  0.2192
  620POPI   C4A 9892  15.814   2.209   7.865  0.2937 -0.0482  0.1060
  620POPI   C1B 9893  15.517   1.934   8.903 -0.0970 -0.1136 -0.0619
  620POPI   C2B 9894  15.721   2.101   8.464 -0.3271 -0.2190 -0.1975
  620POPI   C3B 9895  15.472   2.430   8.194  0.0035  0.2283  0.1540
  620POPI   C4B 9896  15.420   2.472   7.833 -0.1377  0.3289  0.2089
  621POPI    C1 9897  11.934   1.238   9.433  0.1159 -0.0569 -0.2312
  621POPI    C2 9898  12.201   0.952   9.518  0.0218 -0.0573  0.0752
  621POPI    C3 9899  11.821   0.913   9.636 -0.0439  0.0889 -0.0837
  621POPI   PO4 9900  11.954   1.273   9.206  0.0076  0.0365 -0.4941
  621POPI   GL1 9901  11.630   1.215   8.861  0.0040 -0.2499  0.0927
  621POPI   GL2 9902  11.443   1.396   9.118 -0.1526 -0.1011  0.2758
  621POPI   C1A 9903  11.522   1.395   8.535 -0.1761 -0.1284  0.0784
  621POPI   D2A 9904  11.378   1.479   8.105  0.2448  0.2267  0.1049
  621POPI   C3A 9905  11.147   1.305   7.861 -0.0166  0.1187  0.1380
  621POPI   C4A 9906  10.996   0.984   7.597 -0.0593 -0.1257 -0.1992
  621POPI   C1B 9907  11.096   1.582   8.815 -0.0751  0.1924  0.0852
  621POPI   C2B 9908  10.983   1.567   8.375 -0.2131 -0.1682 -0.2107
  621POPI   C3B 9909  10.688   1.565   7.962  0.2786 -0.1695 -0.1811
  621POPI   C4B 9910  10.438   1.567   7.573  0.1309 -0.0503  0.1133
  622POPI    C1 9911   9.341  13.413  10.169  0.1597 -0.1184  0.3171
  622POPI    C2 9912   9.471  13.321   9.802 -0.0853  0.2961  0.1191
  622POPI    C3 9913   9.262  13.053  10.014 -0.1622  0.1420 -0.1468
  622POPI   PO4 9914   9.290  13.680  10.107  0.3450  0.2314  0.2152
  622POPI   GL1 9915   9.477  13.797   9.737 -0.3129 -0.3157  0.1435
  622POPI   GL2 9916   9.269  13.769   9.386  0.0998 -0.1160  0.0697
  622POPI   C1A 9917   9.685  14.155   9.529 -0.3903 -0.0993  0.1718
  622POPI   D2A 9918   9.736  14.493   9.189  0.3837  0.0171 -0.1259
  622POPI   C3A 9919  10.098  14.422   8.921  0.5169  0.5356 -0.2165
  622POPI   C4A 9920  10.206  14.069   8.686 -0.2118 -0.1614  0.1642
  622POPI   C1B 9921   9.032  13.897   9.056 -0.2010 -0.0698 -0.0863
  622POPI   C2B 9922   8.839  14.091   8.699 -0.4604 -0.1212  0.2488
  622POPI   C3B 9923   8.853  14.220   8.288  0.4375 -0.1896  0.1180
  622POPI   C4B 9924   8.688  14.206   7.855 -0.1135  0.1575 -0.4119
  623POPI    C1 9925  15.201   2.521   9.722  0.1282 -0.1369 -0.1489
  623POPI    C2 9926  14.966   2.415  10.028  0.0354  0.3451 -0.0459
  623POPI    C3 9927  15.363   2.425  10.075  0.0556 -0.0635 -0.0953
  623POPI   PO4 9928  15.054   2.391   9.532  0.0370 -0.3382 -0.1131
  623POPI   GL1 9929  15.161   2.318   9.104 -0.3885 -0.0755  0.0830
  623POPI   GL2 9930  15.084   2.176   8.920 -0.1167 -0.1786 -0.3580
  623POPI   C1A 9931  15.495   2.458   8.734 -0.0534  0.0149  0.0930
  623POPI   D2A 9932  15.962   2.432   8.737 -0.3437 -0.1629 -0.0188
  623POPI   C3A 9933  15.993   2.509   8.281  0.2974 -0.1842 -0.2312
  623POPI   C4A 9934  16.324   2.519   7.950 -0.0621  0.3103  0.0224
  623POPI   C1B 9935  15.130   1.952   8.519 -0.0993 -0.3604  0.1114
  623POPI   C2B 9936  15.034   2.109   8.066  0.2082  0.0922 -0.0354
  623POPI   C3B 9937  14.919   2.250   7.557  0.0814  0.4402  0.0521
  623POPI   C4B 9938  15.152   2.607   7.305  0.0762 -0.1354 -0.1357
  624POPI    C1 9939  16.542  16.762   9.270 -0.0242  0.1573  0.0015
  624POPI    C2 9940  16.168  16.620   9.259  0.0131  0.0548  0.0437
  624POPI    C3 9941  16.349  16.680   9.611  0.0712  0.0121  0.0212
  624POPI   PO4 9942  16.601  16.926   9.120  0.2631  0.0740  0.0100
  624POPI   GL1 9943  16.842  16.962   8.717  0.0160  0.0989  0.1218
  624POPI   GL2 9944  16.972  17.238   8.929 -0.0553  0.0420 -0.2681
  624POPI   C1A 9945  16.943  17.114   8.320  0.0715 -0.3410 -0.1901
  624POPI   D2A 9946  16.934  17.171   7.864  0.1169 -0.5288  0.3120
  624POPI   C3A 9947  17.001  16.721   7.721  0.0824 -0.2154  0.1152
  624POPI   C4A 9948  17.088  16.279   7.757  0.0461 -0.1867 -0.1207
  624POPI   C1B 9949  17.379  17.101   8.707  0.2548  0.2311  0.0527
  624POPI   C2B 9950  17.434  16.941   8.301 -0.0755  0.1185 -0.1703
  624POPI   C3B 9951  17.484  16.897   7.899  0.1727 -0.2888 -0.0784
  624POPI   C4B 9952  17.847  16.888   7.609  0.1848  0.1512 -0.2248
  625DPPI    C1 9953  14.758  11.871  10.191  0.0173  0.1725 -0.2077
  625DPPI    C2 9954  14.554  12.093  10.454  0.0597 -0.0263 -0.0035
  625DPPI    C3 9955  14.921  12.204  10.340  0.0692  0.0238  0.0751
  625DPPI   PO4 9956  14.558  11.763  10.068  0.0889 -0.0236 -0.0369
  625DPPI   GL1 9957  14.394  11.717   9.658 -0.1598  0.0582 -0.2434
  625DPPI   GL2 9958  14.489  11.903   9.407  0.2411  0.1001  0.0415
  625DPPI   C1A 9959  14.480  11.397   9.343 -0.0188  0.4416 -0.0838
  625DPPI   C2A 9960  14.400  11.266   8.900  0.0908 -0.2174 -0.0706
  625DPPI   C3A 9961  14.517  11.224   8.423  0.2251 -0.2655 -0.0567
  625DPPI   C4A 9962  14.464  11.336   7.978  0.1806 -0.0682  0.1482
  625DPPI   C1B 9963  14.328  11.744   8.966  0.0544 -0.2577  0.0379
  625DPPI   C2B 9964  14.361  11.754   8.541 -0.2492 -0.0199  0.4403
  625DPPI   C3B 9965  14.311  11.898   8.214  0.1601 -0.1129 -0.2896
  625DPPI   C4B 9966  14.528  11.841   7.861 -0.2155  0.2108 -0.1786
  626DPPI    C1 9967   4.299  16.726   9.677  0.1137  0.1489  0.0064
  626DPPI    C2 9968   4.697  16.748   9.704  0.1167  0.0430  0.0495
  626DPPI    C3 9969   4.487  16.565   9.991  0.0350  0.1172  0.0374
  626DPPI   PO4 9970   4.369  16.621   9.354 -0.3321  0.0419 -0.2054
  626DPPI   GL1 9971   4.476  16.837   8.979  0.1612 -0.1571 -0.0002
  626DPPI   GL2 9972   4.611  16.567   8.977 -0.2298 -0.2503  0.3815
  626DPPI   C1A 9973   4.359  16.662   8.527  0.0996  0.0655  0.1848
  626DPPI   C2A 9974   4.217  16.577   8.171 -0.1244 -0.1529  0.1248
  626DPPI   C3A 9975   4.339  16.276   7.942  0.0588  0.1759  0.4210
  626DPPI   C4A 9976   4.220  15.953   7.686  0.0232  0.1881 -0.6122
  626DPPI   C1B 9977   4.860  16.803   8.613  0.0110  0.1168  0.0303
  626DPPI   C2B 9978   5.133  16.696   8.290  0.0063 -0.1690  0.0830
  626DPPI   C3B 9979   5.248  16.648   7.996  0.1339  0.1131 -0.5497
  626DPPI   C4B 9980   5.333  16.841   7.729 -0.1838 -0.1479  0.0092
  627DPPI    C1 9981  10.650  11.340  10.119  0.0918  0.1301  0.1674
  627DPPI    C2 9982  10.308  11.147  10.044  0.2538 -0.1430  0.1172
  627DPPI    C3 9983  10.330  11.406  10.348 -0.2100  0.4434 -0.3258
  627DPPI   PO4 9984  10.724  11.620   9.809  0.1047 -0.1085 -0.0117
  627DPPI   GL1 9985  11.073  11.426   9.619 -0.2280  0.2292  0.0445
  627DPPI   GL2 9986  11.397  11.253   9.433 -0.1674  0.1786  0.0925
  627DPPI   C1A 9987  11.045  11.779   9.311  0.1102 -0.2108  0.0030
  627DPPI   C2A 9988  11.061  11.866   8.965 -0.1287 -0.2298  0.5054
  627DPPI   C3A 9989  11.047  11.927   8.525 -0.0397  0.0442  0.1502
  627DPPI   C4A 9990  11.034  12.071   8.068 -0.0075 -0.2369 -0.0801
  627DPPI   C1B 9991  11.351  11.453   9.009  0.2822 -0.3051  0.1669
  627DPPI   C2B 9992  11.408  11.583   8.605 -0.2230 -0.2311 -0.1093
  627DPPI   C3B 9993  11.314  11.487   8.287 -0.1586 -0.0693  0.0860
  627DPPI   C4B 9994  11.317  11.578   7.883 -0.0976  0.3558  0.2984
  628DPPI    C1 9995   5.808  18.187   9.248  0.0718 -0.0189  0.2254
  628DPPI    C2 9996   5.897  18.570   9.170  0.0905 -0.0945 -0.1451
  628DPPI    C3 9997   5.804  18.457   9.543  0.4653  0.1961  0.0432
  628DPPI   PO4 9998   5.614  18.134   9.076 -0.1354 -0.0970  0.0717
  628DPPI   GL1 9999   5.423  18.114   8.664 -0.0195 -0.0856  0.0507
  628DPPI   GL210000   5.753  18.357   8.651  0.0882  0.1144 -0.0260
  628DPPI   C1A10001   5.419  18.188   8.244  0.0144 -0.0724 -0.2438
  628DPPI   C2A10002   5.528  18.294   7.792  0.1217  0.3161 -0.2388
  628DPPI   C3A10003   5.395  18.188   7.409  0.0961  0.1907 -0.0614
  628DPPI   C4A10004   5.466  18.091   7.056 -0.1321  0.4555 -0.2926
  628DPPI   C1B10005   5.883  18.413   8.142 -0.3024  0.0459 -0.1146
  628DPPI   C2B10006   6.052  18.133   7.860  0.0385  0.0101 -0.0718
  628DPPI   C3B10007   6.287  17.932   7.509 -0.1553 -0.0909  0.1623
  628DPPI   C4B10008   6.412  18.104   7.124 -0.1176  0.0521  0.0661
  629DPPI    C110009  13.799   9.299   9.678  0.1440  0.1515  0.2711
  629DPPI    C210010  13.952   8.939   9.594  0.1393  0.2190 -0.0395
  629DPPI    C310011  13.629   8.969   9.828  0.0525  0.0097 -0.1296
  629DPPI   PO410012  14.147   9.495   9.672  0.3075  0.0130  0.0063
  629DPPI   GL110013  14.528   9.561   9.353  0.0634  0.1154 -0.1177
  629DPPI   GL210014  14.218   9.792   9.304 -0.0488  0.0413  0.0974
  629DPPI   C1A10015  14.915   9.549   9.115  0.1614  0.0530  0.0467
  629DPPI   C2A10016  15.027   9.757   8.807  0.0912  0.3697  0.0079
  629DPPI   C3A10017  15.027   9.672   8.353  0.1736  0.3697 -0.1888
  629DPPI   C4A10018  14.886   9.478   7.953  0.2466  0.1342  0.1656
  629DPPI   C1B10019  14.286   9.497   8.985 -0.2292  0.1047 -0.2737
  629DPPI   C2B10020  14.379   9.056   8.704 -0.2033 -0.4048 -0.1686
  629DPPI   C3B10021  14.494   9.134   8.268  0.0074 -0.0883 -0.1394
  629DPPI   C4B10022  14.619   9.110   7.812 -0.0338  0.3253 -0.0586
  630DPPI    C110023   5.671  10.134   9.743  0.3339 -0.0455 -0.1542
  630DPPI    C210024   5.335   9.917   9.739  0.2179  0.1326 -0.1997
  630DPPI    C310025   5.650   9.795   9.953  0.1196 -0.0283 -0.1456
  630DPPI   PO410026   5.644  10.219   9.482 -0.0597  0.1175  0.1507
  630DPPI   GL110027   5.555  10.136   9.016  0.0263  0.3685 -0.0135
  630DPPI   GL210028   5.698   9.870   8.849  0.1799  0.1220  0.0800
  630DPPI   C1A10029   5.636  10.364   8.623 -0.2384  0.1214 -0.1482
  630DPPI   C2A10030   5.428  10.455   8.276 -0.1292 -0.2612 -0.2957
  630DPPI   C3A10031   5.414  10.319   7.787 -0.0134  0.4006 -0.2930
  630DPPI   C4A10032   4.987  10.276   7.589 -0.2213  0.2561 -0.3444
  630DPPI   C1B10033   5.970   9.837   8.418 -0.3922 -0.0274  0.0063
  630DPPI   C2B10034   5.822  10.019   7.934 -0.0105 -0.2352  0.0559
  630DPPI   C3B10035   5.785  10.013   7.520  0.1641 -0.0502  0.2346
  630DPPI   C4B10036   5.787  10.214   7.033  0.1172  0.1424  0.2095
  631DPPI    C110037  17.477  12.728   9.433  0.1163 -0.0192 -0.1826
  631DPPI    C210038  17.651  12.368   9.417  0.3184  0.0837 -0.3510
  631DPPI    C310039  17.795  12.649   9.662  0.0883  0.0140 -0.1323
  631DPPI   PO410040  17.387  12.772   9.178  0.0473  0.1095  0.0026
  631DPPI   GL110041  17.374  12.747   8.741  0.0642  0.1706  0.1424
  631DPPI   GL210042  17.620  12.917   8.642  0.1296 -0.0403  0.0424
  631DPPI   C1A10043  17.273  12.718   8.296  0.3653 -0.0828 -0.1913
  631DPPI   C2A10044  17.329  12.744   7.867 -0.3186  0.2961 -0.2530
  631DPPI   C3A10045  17.284  12.598   7.471  0.0089  0.2783 -0.0717
  631DPPI   C4A10046  17.184  12.372   7.009 -0.1301  0.2882 -0.2189
  631DPPI   C1B10047  17.879  13.144   8.341 -0.0524  0.0850  0.1061
  631DPPI   C2B10048  17.963  13.240   7.895 -0.0663  0.0192 -0.1815
  631DPPI   C3B10049  17.831  13.467   7.506  0.0531 -0.1167 -0.2521
  631DPPI   C4B10050  18.002  13.408   7.047 -0.2700 -0.1539 -0.2422
  632DPPI    C110051  16.157   4.597   9.696 -0.0512  0.1357  0.0241
  632DPPI    C210052  16.444   4.802   9.884 -0.0751  0.0595  0.1452
  632DPPI    C310053  16.060   4.903   9.936 -0.0906 -0.0529  0.2529
  632DPPI   PO410054  16.201   4.489   9.479 -0.3095  0.1558 -0.0418
  632DPPI   GL110055  16.047   4.178   9.283  0.3757 -0.2149 -0.0385
  632DPPI   GL210056  15.844   4.291   9.109 -0.2765 -0.3293  0.1786
  632DPPI   C1A10057  15.979   3.835   8.841 -0.0001  0.2017 -0.3264
  632DPPI   C2A10058  15.859   3.929   8.440  0.1104 -0.1178 -0.2604
  632DPPI   C3A10059  15.801   3.937   8.090  0.0399 -0.3598  0.4530
  632DPPI   C4A10060  15.731   3.942   7.583 -0.0912  0.1738  0.0415
  632DPPI   C1B10061  16.059   4.291   8.704 -0.0244 -0.0066 -0.2159
  632DPPI   C2B10062  16.159   4.280   8.273 -0.0332 -0.2612  0.2138
  632DPPI   C3B10063  16.137   4.251   7.852  0.1797 -0.0490  0.1994
  632DPPI   C4B10064  16.229   4.055   7.509  0.0656  0.2290  0.0700
  633DPPI    C110065   0.272   4.071   9.557  0.0142 -0.0972  0.1944
  633DPPI    C210066  -0.107   3.968   9.633 -0.0287 -0.0488  0.0491
  633DPPI    C310067   0.178   3.894   9.903 -0.2019  0.2607  0.3243
  633DPPI   PO410068   0.241   4.227   9.387 -0.4586 -0.1744 -0.4685
  633DPPI   GL110069   0.275   4.161   9.000 -0.3553  0.1759  0.3109
  633DPPI   GL210070   0.589   4.175   8.896 -0.2694 -0.2254 -0.2159
  633DPPI   C1A10071   0.221   4.295   8.522  0.0587  0.1984 -0.2560
  633DPPI   C2A10072   0.169   4.376   8.116  0.1523 -0.2281  0.5676
  633DPPI   C3A10073  -0.162   4.396   7.669 -0.2845 -0.0891  0.1402
  633DPPI   C4A10074  -0.300   4.681   7.386  0.1445  0.0551  0.1904
  633DPPI   C1B10075   0.692   4.042   8.394 -0.2866  0.1027 -0.1195
  633DPPI   C2B10076   0.709   4.222   7.973  0.1747  0.2235  0.0313
  633DPPI   C3B10077   0.389   4.228   7.589 -0.2241 -0.0677 -0.1810
  633DPPI   C4B10078   0.184   4.497   7.247 -0.2333  0.1980  0.1772
  634DPPI    C110079  18.649   9.787   9.459  0.0101  0.1052 -0.1926
  634DPPI    C210080  18.895   9.816   9.773 -0.0577 -0.1003 -0.1191
  634DPPI    C310081  18.581  10.062   9.742  0.2779  0.3156 -0.3277
  634DPPI   PO410082  18.915   9.702   9.268  0.4530 -0.2286  0.1769
  634DPPI   GL110083  18.901   9.802   8.898  0.1178 -0.0052  0.2089
  634DPPI   GL210084  19.006  10.164   8.854 -0.0186 -0.0533  0.1356
  634DPPI   C1A10085  18.617   9.406   8.769  0.1123 -0.0346  0.3290
  634DPPI   C2A10086  18.541   9.355   8.335 -0.0451 -0.1391 -0.0440
  634DPPI   C3A10087  18.479   9.390   7.897 -0.1063  0.1672  0.1957
  634DPPI   C4A10088  18.490   9.226   7.532 -0.0537 -0.0376  0.4045
  634DPPI   C1B10089  19.093  10.132   8.397 -0.1200  0.0560 -0.0478
  634DPPI   C2B10090  19.160  10.027   7.929 -0.0729  0.0113  0.2426
  634DPPI   C3B10091  19.045  10.127   7.598 -0.0306 -0.0731  0.2806
  634DPPI   C4B10092  19.353  10.015   7.252 -0.1138 -0.0187 -0.2913
  635PYPI    C110093   2.191  16.214   9.612 -0.4035  0.0592  0.1344
  635PYPI    C210094   2.350  15.860   9.709 -0.2395  0.0152 -0.2747
  635PYPI    C310095   2.420  16.181   9.939 -0.1461 -0.1536 -0.0637
  635PYPI   PO410096   2.246  16.272   9.277  0.1189 -0.0492  0.0448
  635PYPI   GL110097   2.298  16.155   8.940  0.0812  0.1889  0.3245
  635PYPI   GL210098   2.441  15.925   8.658  0.0598 -0.2402 -0.3764
  635PYPI   C1A10099   2.047  16.278   8.606 -0.2284 -0.2246  0.2870
  635PYPI   C2A10100   1.867  16.474   8.212  0.3733 -0.2657 -0.0514
  635PYPI   D3A10101   1.961  16.646   7.820 -0.0312 -0.1106 -0.0282
  635PYPI   C4A10102   2.088  16.978   7.556 -0.1617 -0.1797  0.0547
  635PYPI   C1B10103   2.424  15.519   8.458  0.1777  0.1542 -0.5486
  635PYPI   C2B10104   2.445  15.190   8.134 -0.1328 -0.1646 -0.1518
  635PYPI   C3B10105   2.637  15.126   7.781  0.2840  0.1866 -0.1691
  635PYPI   C4B10106   2.817  15.418   7.685 -0.3496  0.0601  0.4623
  636PYPI    C110107   2.053  17.616   9.187  0.0325 -0.0524 -0.0352
  636PYPI    C210108   2.394  17.443   9.304  0.0013 -0.1250 -0.0503
  636PYPI    C310109   2.072  17.428   9.540  0.0871  0.1894  0.0925
  636PYPI   PO410110   2.049  17.595   8.938  0.2641 -0.1209  0.1975
  636PYPI   GL110111   2.158  17.269   8.545  0.2172 -0.0657 -0.1317
  636PYPI   GL210112   1.905  17.191   8.640 -0.1144 -0.0009  0.2605
  636PYPI   C1A10113   2.031  17.125   8.055 -0.2578  0.0232  0.0090
  636PYPI   C2A10114   1.926  17.479   7.757  0.0567  0.2105 -0.1026
  636PYPI   D3A10115   2.159  17.743   7.450  0.3110 -0.1308 -0.2530
  636PYPI   C4A10116   2.258  17.721   6.954 -0.1779 -0.0636  0.3129
  636PYPI   C1B10117   1.685  16.956   8.352  0.0559 -0.1607 -0.1630
  636PYPI   C2B10118   1.510  16.940   7.950 -0.0509  0.0980  0.0440
  636PYPI   C3B10119   1.596  17.107   7.515 -0.0810 -0.1858  0.0649
  636PYPI   C4B10120   1.521  17.075   7.162  0.0288  0.1865 -0.0762
  637PYPI    C110121   5.237  15.958   9.601 -0.0911  0.0489 -0.3106
  637PYPI    C210122   4.928  15.773   9.776  0.1688 -0.1821 -0.0858
  637PYPI    C310123   5.228  15.559   9.620  0.3082  0.0438 -0.1328
  637PYPI   PO410124   5.165  16.095   9.487 -0.0405  0.1203  0.0550
  637PYPI   GL110125   5.366  16.281   9.122  0.1360 -0.1159  0.0241
  637PYPI   GL210126   5.066  16.218   8.954 -0.1507  0.0355 -0.0352
  637PYPI   C1A10127   5.602  16.006   8.846  0.2484 -0.0324  0.0678
  637PYPI   C2A10128   6.080  16.062   8.564 -0.1164  0.0601 -0.0548
  637PYPI   D3A10129   6.469  16.318   8.349  0.0732 -0.3291  0.0765
  637PYPI   C4A10130   6.525  16.050   7.914  0.0148  0.1289 -0.1974
  637PYPI   C1B10131   5.127  16.016   8.483 -0.2432 -0.1446 -0.0998
  637PYPI   C2B10132   5.378  15.898   8.085  0.0641  0.0699  0.0906
  637PYPI   C3B10133   5.536  16.189   7.830 -0.0183 -0.0556 -0.1189
  637PYPI   C4B10134   5.443  16.299   7.481 -0.2622 -0.2433 -0.1669
  638PYPI    C110135   5.892   6.652   9.369  0.1510  0.0427 -0.1146
  638PYPI    C210136   5.928   6.528   9.748 -0.1187  0.0802 -0.0751
  638PYPI    C310137   5.852   6.264   9.457 -0.1924  0.0869 -0.0623
  638PYPI   PO410138   5.657   6.932   9.396 -0.0867  0.3872  0.1816
  638PYPI   GL110139   5.477   7.062   9.135 -0.0597 -0.1085  0.2517
  638PYPI   GL210140   5.675   7.055   8.799 -0.0236 -0.2675 -0.0343
  638PYPI   C1A10141   5.244   6.932   8.677 -0.2172  0.4334  0.2551
  638PYPI   C2A10142   5.262   6.822   8.287 -0.1070 -0.3014 -0.2260
  638PYPI   D3A10143   5.376   6.938   7.882  0.2713 -0.0740  0.2990
  638PYPI   C4A10144   5.140   7.128   7.569 -0.0145  0.0615 -0.0418
  638PYPI   C1B10145   5.727   7.183   8.401  0.3307  0.0788  0.0566
  638PYPI   C2B10146   5.875   7.062   7.956 -0.1262 -0.0569 -0.0181
  638PYPI   C3B10147   5.767   6.992   7.535  0.2116  0.1074  0.1311
  638PYPI   C4B10148   5.713   6.630   7.183 -0.0151  0.2588 -0.0958
  639PYPI    C110149  15.092   3.054   9.673  0.0244 -0.0245  0.1201
  639PYPI    C210150  14.895   3.232   9.972  0.3145  0.0450  0.2732
  639PYPI    C310151  15.099   2.894  10.039 -0.0347 -0.2204  0.0372
  639PYPI   PO410152  15.092   3.376   9.487 -0.2071 -0.1064 -0.0875
  639PYPI   GL110153  14.957   3.499   9.050  0.1289 -0.0429 -0.0863
  639PYPI   GL210154  14.946   3.884   9.006 -0.1210  0.3139  0.3330
  639PYPI   C1A10155  14.633   3.338   8.658  0.2176 -0.0584 -0.1305
  639PYPI   C2A10156  14.503   3.343   8.292  0.0970 -0.0287 -0.0246
  639PYPI   D3A10157  14.385   3.399   7.880 -0.0771 -0.0371 -0.1165
  639PYPI   C4A10158  14.298   3.747   7.658 -0.0902 -0.1659 -0.0642
  639PYPI   C1B10159  15.100   3.696   8.555  0.0908  0.0400 -0.2950
  639PYPI   C2B10160  14.995   3.644   8.104  0.0689 -0.1034 -0.1924
  639PYPI   C3B10161  14.775   3.750   7.772 -0.1025  0.2516  0.2361
  639PYPI   C4B10162  14.671   3.709   7.416  0.1715  0.0149  0.2582
  640PYPI    C110163  16.773  12.205   9.232 -0.0640  0.0790 -0.1709
  640PYPI    C210164  16.376  12.223   9.188 -0.1036  0.1868  0.1958
  640PYPI    C310165  16.574  12.531   9.349  0.1285  0.1266  0.0320
  640PYPI   PO410166  16.863  12.162   9.053  0.0762 -0.3044  0.2803
  640PYPI   GL110167  16.954  12.030   8.671 -0.1454  0.1418 -0.0146
  640PYPI   GL210168  17.143  12.336   8.617 -0.1939  0.1341 -0.1475
  640PYPI   C1A10169  16.815  11.895   8.224  0.2172 -0.1149 -0.3119
  640PYPI   C2A10170  16.839  11.873   7.839  0.2714  0.0901 -0.1802
  640PYPI   D3A10171  17.030  11.790   7.495 -0.0702 -0.1539 -0.1942
  640PYPI   C4A10172  17.301  12.054   7.455 -0.1179  0.1771 -0.0672
  640PYPI   C1B10173  17.003  12.370   8.147 -0.1737 -0.0450 -0.6698
  640PYPI   C2B10174  17.038  12.339   7.783  0.1611  0.1284 -0.4145
  640PYPI   C3B10175  16.800  12.303   7.371  0.0925 -0.0063 -0.1835
  640PYPI   C4B10176  16.676  12.509   6.984  0.1539 -0.1795 -0.1320
  641ERGO   ROH10177  17.476  11.974   8.728  0.0552 -0.0513  0.0978
  641ERGO    R110178  17.389  11.838   8.496  0.0529 -0.1503  0.1557
  641ERGO    R210179  17.325  11.969   8.261 -0.2750 -0.2147  0.1997
  641ERGO    R310180  17.506  11.797   8.154 -0.1367  0.0052  0.0715
  641ERGO    R410181  17.302  11.829   7.947 -0.2513 -0.1536  0.1703
  641ERGO    R510182  17.374  11.641   8.030 -0.0184 -0.1007  0.0835
  641ERGO    C110183  17.458  11.585   7.663 -0.1078  0.0887  0.0328
  641ERGO    C210184  17.430  11.598   7.269 -0.2565 -0.2037  0.0012
  642ERGO   ROH10185   4.149  11.047   8.805  0.1063 -0.0050 -0.0643
  642ERGO    R110186   4.388  11.091   8.659  0.1250 -0.2968 -0.1285
  642ERGO    R210187   4.485  10.909   8.474 -0.1956 -0.3768 -0.2302
  642ERGO    R310188   4.481  11.125   8.309  0.0541 -0.3074 -0.1473
  642ERGO    R410189   4.676  10.943   8.188 -0.0067 -0.3921 -0.1061
  642ERGO    R510190   4.709  11.152   8.241  0.1111 -0.4385 -0.0052
  642ERGO    C110191   4.784  11.166   7.867  0.3377 -0.3359  0.0439
  642ERGO    C210192   4.848  11.185   7.412  0.1343  0.0350 -0.1617
  643ERGO   ROH10193  16.330   9.520   6.043  0.0248 -0.1346 -0.0817
  643ERGO    R110194  16.284   9.487   6.321 -0.0194 -0.0159 -0.0745
  643ERGO    R210195  16.315   9.693   6.502 -0.0073  0.0505 -0.1526
  643ERGO    R310196  16.060   9.629   6.570 -0.0284  0.1240 -0.1604
  643ERGO    R410197  16.150   9.810   6.782  0.0963 -0.0741 -0.0380
  643ERGO    R510198  16.065   9.611   6.809  0.0036 -0.0549 -0.1720
  643ERGO    C110199  15.814   9.817   7.009  0.1369 -0.0776  0.0215
  643ERGO    C210200  15.580  10.046   7.088  0.0293  0.0359 -0.3078
  644ERGO   ROH10201   7.406  15.815   9.444 -0.0510  0.2117  0.1448
  644ERGO    R110202   7.599  15.842   9.239 -0.0240 -0.0071  0.1392
  644ERGO    R210203   7.585  15.700   9.002 -0.1666 -0.0261  0.1581
  644ERGO    R310204   7.602  15.948   8.890  0.0784 -0.0552  0.1250
  644ERGO    R410205   7.679  15.763   8.675 -0.2815 -0.1765  0.0949
  644ERGO    R510206   7.794  15.935   8.747 -0.0206 -0.3107  0.0107
  644ERGO    C110207   7.750  16.032   8.380 -0.1184 -0.2914  0.0271
  644ERGO    C210208   7.672  16.215   8.103 -0.2906 -0.1030 -0.2099
  645ERGO   ROH10209   7.038   3.892   8.506 -0.1002 -0.0509 -0.1055
  645ERGO    R110210   7.065   3.832   8.231  0.0624 -0.0484 -0.0915
  645ERGO    R210211   6.848   3.809   8.061  0.1488 -0.2141 -0.1876
  645ERGO    R310212   6.984   3.995   7.916  0.0815 -0.1236 -0.1343
  645ERGO    R410213   6.848   3.829   7.716  0.2425 -0.1881 -0.1857
  645ERGO    R510214   7.061   3.875   7.723  0.2108 -0.0618 -0.1194
  645ERGO    C110215   6.976   4.014   7.379  0.2339 -0.0879 -0.1345
  645ERGO    C210216   6.771   4.047   7.225 -0.2117  0.1346 -0.1834
  646ERGO   ROH10217   5.381   0.296   5.375 -0.0700  0.0373 -0.1464
  646ERGO    R110218   5.260   0.194   5.609  0.0175  0.1112 -0.0674
  646ERGO    R210219   5.182  -0.070   5.633 -0.1422  0.1599 -0.0233
  646ERGO    R310220   5.336  -0.062   5.857  0.0147  0.0535 -0.1266
  646ERGO    R410221   5.155  -0.289   5.899 -0.2069  0.2588  0.0518
  646ERGO    R510222   5.186  -0.120   6.034  0.0652  0.2633 -0.0121
  646ERGO    C110223   5.284  -0.409   6.264 -0.0972  0.2163 -0.0015
  646ERGO    C210224   5.458  -0.660   6.467  0.0328 -0.0541 -0.0712
  647ERGO   ROH10225  18.570   9.320   5.451  0.0426 -0.0834 -0.1246
  647ERGO    R110226  18.524   9.361   5.728 -0.0119  0.0415 -0.1514
  647ERGO    R210227  18.297   9.269   5.856 -0.0066  0.0389 -0.1397
  647ERGO    R310228  18.477   9.152   6.022  0.0037  0.1736 -0.0549
  647ERGO    R410229  18.223   9.139   6.168 -0.0236  0.1058 -0.1158
  647ERGO    R510230  18.411   9.222   6.241 -0.0814  0.2130 -0.0947
  647ERGO    C110231  18.351   8.953   6.505 -0.0237  0.2710 -0.0223
  647ERGO    C210232  18.181   8.867   6.835  0.1476 -0.1290 -0.0391
  648ERGO   ROH10233  17.900   6.176   9.051  0.1882  0.2415  0.0895
  648ERGO    R110234  18.041   6.348   8.876  0.1479  0.2230  0.0389
  648ERGO    R210235  18.239   6.257   8.706  0.1722  0.2196  0.0701
  648ERGO    R310236  18.087   6.380   8.516  0.1449  0.1244  0.0293
  648ERGO    R410237  18.349   6.340   8.389  0.0941 -0.0408 -0.0280
  648ERGO    R510238  18.240   6.528   8.406  0.1519  0.0033 -0.1287
  648ERGO    C110239  18.271   6.503   8.027  0.0229 -0.2818 -0.1234
  648ERGO    C210240  18.426   6.460   7.711 -0.1127 -0.1767  0.1268
  649ERGO   ROH10241  17.974  17.114   5.673 -0.3030 -0.0693  0.2086
  649ERGO    R110242  18.089  17.125   5.932 -0.0629 -0.0389  0.1038
  649ERGO    R210243  18.272  17.319   6.005 -0.1349  0.0861 -0.0299
  649ERGO    R310244  18.097  17.362   6.208  0.0211 -0.0908  0.1458
  649ERGO    R410245  18.344  17.493   6.295  0.0139  0.0533 -0.0474
  649ERGO    R510246  18.229  17.345   6.406  0.2172 -0.0562  0.0193
  649ERGO    C110247  18.221  17.635   6.654  0.2470 -0.1316  0.1074
  649ERGO    C210248  18.177  17.664   7.075  0.2223 -0.0104 -0.0651
  650ERGO   ROH10249   8.146  13.686   9.518 -0.1131  0.2114 -0.0678
  650ERGO    R110250   8.104  13.587   9.256  0.0386  0.0052 -0.0190
  650ERGO    R210251   7.892  13.670   9.098  0.0153 -0.2545 -0.1446
  650ERGO    R310252   8.090  13.726   8.920  0.0334 -0.2202 -0.1114
  650ERGO    R410253   7.857  13.662   8.755  0.0458 -0.1001 -0.1505
  650ERGO    R510254   8.055  13.572   8.741  0.0199 -0.1299 -0.1782
  650ERGO    C110255   8.022  13.711   8.387  0.0805  0.0222 -0.1229
  650ERGO    C210256   8.002  13.625   8.154 -0.1629 -0.4414 -0.0204
  651ERGO   ROH10257   0.237   5.132   5.152 -0.3177 -0.0548 -0.0206
  651ERGO    R110258   0.223   4.914   5.332 -0.2686 -0.0807 -0.0481
  651ERGO    R210259   0.321   4.927   5.590 -0.0561 -0.1692 -0.1231
  651ERGO    R310260   0.070   4.848   5.656 -0.0397 -0.0712  0.0638
  651ERGO    R410261   0.223   4.830   5.907  0.1810 -0.2905 -0.0842
  651ERGO    R510262   0.104   4.672   5.815  0.0124 -0.1771 -0.0638
  651ERGO    C110263  -0.070   4.699   6.153  0.3344 -0.2692  0.1140
  651ERGO    C210264  -0.065   4.694   6.478  0.3417 -0.1812 -0.0025
  652ERGO   ROH10265   1.286  15.970   8.953  0.0453  0.0235 -0.0718
  652ERGO    R110266   1.117  16.015   8.731 -0.1102 -0.1554  0.0078
  652ERGO    R210267   1.184  16.187   8.524 -0.4719  0.0715  0.0701
  652ERGO    R310268   1.135  15.968   8.370 -0.1445  0.0582 -0.0235
  652ERGO    R410269   1.057  16.195   8.203 -0.5326  0.0200  0.0927
  652ERGO    R510270   0.935  16.022   8.252 -0.2530 -0.2047  0.0325
  652ERGO    C110271   0.937  15.994   7.871 -0.2606 -0.0224  0.0179
  652ERGO    C210272   0.810  15.981   7.564  0.2771 -0.0327  0.0940
  653ERGO   ROH10273  15.580  13.532   9.206  0.0540 -0.0784  0.0750
  653ERGO    R110274  15.749  13.611   8.993 -0.0308  0.0329  0.0466
  653ERGO    R210275  15.726  13.506   8.738  0.0118 -0.0053  0.0531
  653ERGO    R310276  15.708  13.768   8.667 -0.1954 -0.0196  0.0418
  653ERGO    R410277  15.787  13.630   8.421  0.1603  0.0687  0.1101
  653ERGO    R510278  15.888  13.800   8.513 -0.0939  0.1709  0.1998
  653ERGO    C110279  15.806  13.948   8.171  0.0522  0.0984  0.1328
  653ERGO    C210280  15.690  14.005   7.885 -0.1122  0.0531  0.2578
  654ERGO   ROH10281  16.178   3.056   5.808 -0.3033 -0.0549  0.0478
  654ERGO    R110282  15.996   3.153   6.002  0.0432  0.1516  0.2800
  654ERGO    R210283  16.056   3.364   6.171  0.2187  0.6070 -0.3219
  654ERGO    R310284  15.826   3.468   6.071 -0.1596  0.1125 -0.0164
  654ERGO    R410285  15.825   3.545   6.353  0.3504  0.5713 -0.1151
  654ERGO    R510286  15.666   3.440   6.247  0.2513  0.1593  0.3867
  654ERGO    C110287  15.474   3.747   6.366  0.0717  0.0863  0.2921
  654ERGO    C210288  15.385   3.868   6.673  0.1443 -0.3729 -0.0653
  655ERGO   ROH10289  13.491   3.983   8.315 -0.3819 -0.0047  0.1274
  655ERGO    R110290  13.334   3.894   8.097 -0.2395  0.2158 -0.0711
  655ERGO    R210291  13.309   4.038   7.862  0.3120  0.2279 -0.1435
  655ERGO    R310292  13.392   3.806   7.748  0.0963  0.0678  0.0200
  655ERGO    R410293  13.280   3.961   7.527  0.2243 -0.0080 -0.0829
  655ERGO    R510294  13.226   3.758   7.583  0.0489  0.0867  0.0703
  655ERGO    C110295  13.340   3.699   7.224 -0.0293 -0.2956  0.1056
  655ERGO    C210296  13.206   3.708   6.841  0.0103  0.2478  0.0976
  656ERGO   ROH10297  15.819  18.024   8.985 -0.0896 -0.1769 -0.0510
  656ERGO    R110298  15.714  17.977   8.727 -0.0981 -0.0908 -0.0634
  656ERGO    R210299  15.718  18.169   8.527  0.0175 -0.0692 -0.0413
  656ERGO    R310300  15.841  17.972   8.386 -0.0780 -0.1199 -0.0554
  656ERGO    R410301  15.740  18.157   8.183 -0.0570 -0.0970 -0.0454
  656ERGO    R510302  15.704  17.943   8.192 -0.1281 -0.0845 -0.0256
  656ERGO    C110303  15.869  17.966   7.849 -0.1902 -0.1609 -0.0611
  656ERGO    C210304  15.814  17.800   7.537 -0.1740  0.2524 -0.3209
  657ERGO   ROH10305   5.384   7.919   8.675 -0.1311 -0.0320 -0.0530
  657ERGO    R110306   5.220   7.983   8.454 -0.1802 -0.1712 -0.0574
  657ERGO    R210307   5.323   8.057   8.208 -0.2321  0.1310  0.0081
  657ERGO    R310308   5.167   7.853   8.118  0.1117 -0.0747 -0.1438
  657ERGO    R410309   5.153   8.058   7.908 -0.3949  0.1579  0.0988
  657ERGO    R510310   4.984   7.963   8.008 -0.1662 -0.2940  0.0841
  657ERGO    C110311   4.907   7.868   7.647 -0.1670 -0.0197  0.0091
  657ERGO    C210312   4.973   7.913   7.352  0.1319 -0.0644 -0.4341
  658ERGO   ROH10313  19.533   5.904   8.867  0.0857  0.0764  0.0776
  658ERGO    R110314  19.529   5.901   8.584  0.1924 -0.0296  0.0759
  658ERGO    R210315  19.365   5.731   8.440  0.1054  0.0484  0.0805
  658ERGO    R310316  19.282   5.962   8.323  0.3415  0.0748 -0.0421
  658ERGO    R410317  19.262   5.760   8.111  0.0327 -0.0422  0.0950
  658ERGO    R510318  19.368   5.950   8.100  0.2563 -0.1730 -0.0641
  658ERGO    C110319  19.123   5.994   7.811  0.2120 -0.0703 -0.0114
  658ERGO    C210320  19.089   6.122   7.523  0.0486 -0.2242  0.2268
  659ERGO   ROH10321  15.014  15.607   9.090  0.2614 -0.2523  0.0112
  659ERGO    R110322  14.906  15.651   8.832  0.0937  0.0289  0.1245
  659ERGO    R210323  14.989  15.860   8.670  0.1904  0.0467  0.1854
  659ERGO    R310324  15.032  15.660   8.491 -0.1740  0.1025  0.0275
  659ERGO    R410325  15.007  15.902   8.328  0.1497  0.2477  0.2073
  659ERGO    R510326  14.894  15.717   8.304 -0.1419  0.4409  0.1081
  659ERGO    C110327  15.058  15.739   7.960 -0.2161  0.4172  0.0718
  659ERGO    C210328  15.205  15.835   7.636 -0.1621 -0.0782  0.0585
  660ERGO   ROH10329  17.967   7.768   5.749 -0.0137 -0.0104  0.0615
  660ERGO    R110330  17.707   7.796   5.857 -0.1111 -0.0322 -0.1644
  660ERGO    R210331  17.501   7.621   5.798  0.1064 -0.3765  0.0859
  660ERGO    R310332  17.486   7.600   6.069 -0.0422  0.2043  0.1366
  660ERGO    R410333  17.220   7.523   5.974  0.1697 -0.5811  0.0776
  660ERGO    R510334  17.266   7.676   6.122 -0.2595 -0.1288 -0.2145
  660ERGO    C110335  17.042   7.447   6.330  0.0672 -0.1551  0.1203
  660ERGO    C210336  16.667   7.290   6.382  0.0789 -0.0395  0.0747
  661ERGO   ROH10337   0.522  14.722   9.088 -0.3222  0.1647 -0.0791
  661ERGO    R110338   0.506  14.841   8.832 -0.2545  0.0989 -0.1143
  661ERGO    R210339   0.710  14.995   8.726 -0.2623  0.1423 -0.0640
  661ERGO    R310340   0.691  14.821   8.519 -0.1155  0.0877 -0.0330
  661ERGO    R410341   0.827  15.055   8.407 -0.3181  0.1912 -0.0757
  661ERGO    R510342   0.648  14.959   8.328 -0.2398  0.0205 -0.0564
  661ERGO    C110343   0.878  14.925   8.026 -0.2128  0.1684 -0.0534
  661ERGO    C210344   1.124  15.097   7.777  0.3367  0.0155 -0.0332
  662ERGO   ROH10345  12.170  11.752   5.987 -0.0787  0.0468 -0.0499
  662ERGO    R110346  12.146  11.919   6.214 -0.1657  0.1001 -0.0974
  662ERGO    R210347  11.904  12.022   6.299 -0.2488 -0.1461 -0.0234
  662ERGO    R310348  11.975  11.907   6.535 -0.0069  0.0124 -0.0152
  662ERGO    R410349  11.765  12.099   6.606  0.0910  0.0808  0.0799
  662ERGO    R510350  11.964  12.086   6.694  0.1851  0.1236 -0.1247
  662ERGO    C110351  11.750  12.036   7.006  0.5159  0.3618  0.1479
  662ERGO    C210352  11.605  12.016   7.298  0.2513 -0.0590  0.1858
  663ERGO   ROH10353   0.319   7.202   5.539 -0.2593 -0.0434  0.0127
  663ERGO    R110354   0.317   7.356   5.777  0.0839  0.0357 -0.0298
  663ERGO    R210355   0.202   7.266   6.012 -0.0784  0.3335  0.0124
  663ERGO    R310356   0.447   7.322   6.115  0.0600 -0.1370 -0.0375
  663ERGO    R410357   0.262   7.365   6.337  0.1590  0.3939 -0.0473
  663ERGO    R510358   0.409   7.507   6.262  0.4686  0.0378 -0.1378
  663ERGO    C110359   0.526   7.475   6.624  0.4271 -0.0127 -0.1291
  663ERGO    C210360   0.640   7.307   6.850 -0.0099  0.1517 -0.0664
  664ERGO   ROH10361  13.874  16.247   9.474  0.1617 -0.0482 -0.1255
  664ERGO    R110362  13.879  16.226   9.192  0.3458  0.1662 -0.1411
  664ERGO    R210363  13.650  16.242   9.038  0.3668 -0.2631 -0.2300
  664ERGO    R310364  13.790  16.437   8.909 -0.0252  0.1728 -0.0250
  664ERGO    R410365  13.585  16.354   8.717  0.1749 -0.0915 -0.1337
  664ERGO    R510366  13.799  16.364   8.682  0.1718  0.4069 -0.0975
  664ERGO    C110367  13.678  16.602   8.410 -0.3051  0.4174  0.1150
  664ERGO    C210368  13.585  16.813   8.065 -0.0894 -0.0616  0.1299
  665ERGO   ROH10369   9.181   4.180   5.277  0.1286 -0.1015 -0.0594
  665ERGO    R110370   9.297   4.110   5.526  0.2843 -0.2032 -0.1595
  665ERGO    R210371   9.570   4.108   5.567  0.3006  0.3620 -0.1680
  665ERGO    R310372   9.507   4.272   5.774 -0.0872 -0.0722  0.0780
  665ERGO    R410373   9.739   4.119   5.869  0.2678  0.3054 -0.1472
  665ERGO    R510374   9.547   4.139   5.970  0.2064 -0.2777 -0.1126
  665ERGO    C110375   9.778   4.279   6.239 -0.1152 -0.1351  0.0959
  665ERGO    C210376   9.982   4.405   6.543 -0.1141 -0.3364  0.2427
  666ERGO   ROH10377   5.813   1.199   5.074  0.1524 -0.2017  0.1547
  666ERGO    R110378   5.906   1.259   5.335  0.2132 -0.2747  0.1513
  666ERGO    R210379   5.740   1.258   5.556  0.1706  0.0556  0.1328
  666ERGO    R310380   5.926   1.087   5.655 -0.1143 -0.2239  0.2017
  666ERGO    R410381   5.884   1.283   5.869  0.5083  0.1775 -0.0285
  666ERGO    R510382   6.075   1.227   5.780  0.3136 -0.3713 -0.1257
  666ERGO    C110383   6.143   1.138   6.144  0.4375 -0.0139 -0.0577
  666ERGO    C210384   6.146   0.884   6.399 -0.0319  0.0052 -0.2065
  667ERGO   ROH10385   8.812  15.703   6.667  0.0608  0.0259  0.0127
  667ERGO    R110386   8.903  15.503   6.845  0.1417  0.1418  0.1023
  667ERGO    R210387   8.998  15.561   7.098 -0.1855  0.2672  0.1988
  667ERGO    R310388   8.810  15.380   7.175 -0.0335  0.0210  0.0107
  667ERGO    R410389   8.959  15.442   7.420 -0.2644  0.1200  0.1363
  667ERGO    R510390   8.922  15.244   7.337  0.0205  0.0972  0.0421
  667ERGO    C110391   8.760  15.203   7.680 -0.1676 -0.1970 -0.0765
  667ERGO    C210392   8.649  15.097   7.914  0.2397  0.3951 -0.0981
  668ERGO   ROH10393   7.146  19.173   5.455 -0.0517  0.1581  0.0354
  668ERGO    R110394   7.089  19.315   5.694 -0.1092  0.0340  0.0962
  668ERGO    R210395   6.897  19.232   5.874  0.0315 -0.2072  0.1382
  668ERGO    R310396   7.103  19.247   6.051  0.0783 -0.0587  0.0729
  668ERGO    R410397   6.864  19.219   6.218  0.1523 -0.2707  0.1479
  668ERGO    R510398   7.016  19.374   6.234  0.0326 -0.1477  0.1146
  668ERGO    C110399   7.039  19.225   6.584  0.2665 -0.1683  0.0923
  668ERGO    C210400   7.195  19.067   6.862  0.0422 -0.2448 -0.1752
  669ERGO   ROH10401  18.436  16.489   9.676 -0.0963  0.3950 -0.1008
  669ERGO    R110402  18.658  16.421   9.514 -0.0394  0.3068  0.0133
  669ERGO    R210403  18.631  16.331   9.254  0.0475  0.0923  0.0766
  669ERGO    R310404  18.802  16.536   9.200  0.0231  0.0821 -0.0425
  669ERGO    R410405  18.753  16.409   8.940 -0.0275 -0.0267  0.0170
  669ERGO    R510406  18.948  16.448   9.031 -0.0086  0.0223 -0.0404
  669ERGO    C110407  18.985  16.646   8.707 -0.0941 -0.1055 -0.1293
  669ERGO    C210408  18.926  16.795   8.346  0.1499  0.1990  0.1213
  670ERGO   ROH10409  10.395  10.645   8.982  0.0421 -0.0647 -0.0148
  670ERGO    R110410  10.495  10.760   8.743 -0.0476 -0.0841 -0.0617
  670ERGO    R210411  10.581  10.607   8.529 -0.0701 -0.1016 -0.0565
  670ERGO    R310412  10.403  10.759   8.391 -0.1412 -0.1666 -0.0382
  670ERGO    R410413  10.600  10.673   8.191 -0.1637 -0.1474 -0.0712
  670ERGO    R510414  10.538  10.878   8.232 -0.2063 -0.1557 -0.0871
  670ERGO    C110415  10.444  10.853   7.863 -0.2851 -0.2351 -0.0624
  670ERGO    C210416  10.667  10.958   7.461 -0.0907  0.0097 -0.0521
  671ERGO   ROH10417  17.973   3.996   5.959 -0.1712 -0.0174  0.1148
  671ERGO    R110418  18.027   3.776   6.128  0.0543 -0.0123  0.0532
  671ERGO    R210419  18.284   3.701   6.199  0.1327  0.2322  0.0352
  671ERGO    R310420  18.187   3.723   6.452  0.1045  0.0603  0.0403
  671ERGO    R410421  18.455   3.609   6.484  0.0875  0.0037 -0.0101
  671ERGO    R510422  18.268   3.528   6.564  0.0676 -0.0322 -0.0913
  671ERGO    C110423  18.463   3.575   6.888  0.0347 -0.2908 -0.0316
  671ERGO    C210424  18.702   3.748   7.055  0.0451  0.1658  0.4465
  672ERGO   ROH10425   9.051  12.232   9.137 -0.2382 -0.1427 -0.0580
  672ERGO    R110426   9.013  12.435   8.944  0.0572  0.0094  0.0385
  672ERGO    R210427   9.213  12.515   8.771  0.1451 -0.2796  0.0031
  672ERGO    R310428   9.026  12.461   8.581 -0.0264  0.1323  0.0434
  672ERGO    R410429   9.221  12.632   8.446  0.3227 -0.2767  0.0074
  672ERGO    R510430   9.006  12.665   8.457  0.3850  0.1910  0.0598
  672ERGO    C110431   9.051  12.650   8.078  0.2653  0.1117  0.0478
  672ERGO    C210432   9.015  12.851   7.769  0.0977  0.0797 -0.2955
  673ERGO   ROH10433   2.540   9.068   9.164 -0.3645 -0.1582  0.0125
  673ERGO    R110434   2.436   9.250   8.973 -0.0945  0.0062  0.0178
  673ERGO    R210435   2.576   9.325   8.748 -0.0054 -0.2500 -0.0117
  673ERGO    R310436   2.352   9.242   8.619 -0.1761  0.1207  0.0332
  673ERGO    R410437   2.489   9.414   8.425  0.0781 -0.0950  0.0070
  673ERGO    R510438   2.283   9.433   8.491  0.1135  0.2472  0.0514
  673ERGO    C110439   2.228   9.387   8.117 -0.0336  0.3432  0.0599
  673ERGO    C210440   2.228   9.375   7.800  0.0703 -0.0318  0.3284
  674PSPI    C110441  13.182  18.011   5.059 -0.0276 -0.1699  0.0811
  674PSPI    C210442  13.489  18.208   4.895 -0.2298  0.3073  0.2576
  674PSPI    C310443  13.247  17.988   4.665  0.2599 -0.1092  0.1230
  674PSPI   PO410444  13.269  17.763   5.323  0.1358 -0.0519  0.0410
  674PSPI   GL110445  13.465  17.854   5.705  0.0667 -0.1105 -0.1352
  674PSPI   GL210446  13.433  17.425   5.691 -0.1673  0.0013  0.0648
  674PSPI   C1A10447  13.149  18.137   5.835  0.0829  0.1799 -0.1314
  674PSPI   C2A10448  12.930  18.187   6.269 -0.0578  0.0598  0.3338
  674PSPI   C3A10449  12.908  18.060   6.753 -0.1616 -0.3128 -0.0450
  674PSPI   C4A10450  13.120  17.902   7.122  0.1465 -0.0163 -0.1577
  674PSPI   C1B10451  13.549  17.503   6.056 -0.1937 -0.1860 -0.1169
  674PSPI   C2B10452  13.646  17.323   6.458 -0.1650 -0.1041  0.1917
  674PSPI   C3B10453  13.948  17.018   6.653 -0.0085 -0.2941 -0.1960
  674PSPI   C4B10454  14.420  16.928   6.748  0.1556  0.0481 -0.0998
  675PSPI    C110455  18.007  15.222   5.025 -0.1767  0.0516 -0.0093
  675PSPI    C210456  18.197  15.421   5.316  0.0635 -0.3503  0.1178
  675PSPI    C310457  18.331  15.441   4.939 -0.2340  0.1519  0.0291
  675PSPI   PO410458  17.801  15.137   5.220  0.1135 -0.1339  0.2495
  675PSPI   GL110459  17.916  15.243   5.694 -0.3749 -0.0659 -0.0376
  675PSPI   GL210460  17.696  15.062   5.714  0.0269 -0.0172 -0.0807
  675PSPI   C1A10461  17.962  15.250   6.112  0.0129 -0.0070  0.1403
  675PSPI   C2A10462  17.847  15.121   6.489 -0.0036  0.0677 -0.5544
  675PSPI   C3A10463  17.888  15.391   6.847 -0.2024 -0.1968  0.3180
  675PSPI   C4A10464  17.738  15.672   6.965 -0.0312 -0.0424  0.0278
  675PSPI   C1B10465  17.390  15.106   6.158  0.2743 -0.1291 -0.1494
  675PSPI   C2B10466  17.376  15.087   6.725  0.4179 -0.4020 -0.1401
  675PSPI   C3B10467  17.313  15.180   7.153  0.0374  0.3278  0.1053
  675PSPI   C4B10468  17.022  15.140   7.498  0.2011 -0.0568 -0.0667
  676PSPI    C110469  16.103   2.615   5.025 -0.2486  0.0438  0.1727
  676PSPI    C210470  16.330   2.335   4.851 -0.0626  0.1959  0.1671
  676PSPI    C310471  15.946   2.377   4.745 -0.1136 -0.1064  0.2236
  676PSPI   PO410472  16.234   2.607   5.335  0.2486  0.0014 -0.3533
  676PSPI   GL110473  15.983   2.595   5.680  0.3338 -0.0003 -0.1236
  676PSPI   GL210474  15.722   2.716   5.782 -0.0744 -0.3135  0.0629
  676PSPI   C1A10475  15.999   2.651   6.141 -0.2837 -0.0150 -0.3058
  676PSPI   C2A10476  15.673   2.618   6.500 -0.2481 -0.1637 -0.3158
  676PSPI   C3A10477  15.508   2.540   6.918  0.0077  0.0568  0.2158
  676PSPI   C4A10478  15.571   2.325   7.411 -0.0383 -0.1673  0.0093
  676PSPI   C1B10479  15.586   2.960   6.122  0.0685  0.1259  0.1732
  676PSPI   C2B10480  15.259   3.226   6.346  0.0577  0.0818  0.1245
  676PSPI   C3B10481  15.034   3.519   6.623  0.2855  0.0108 -0.1457
  676PSPI   C4B10482  14.962   3.647   6.964  0.2097  0.4232 -0.0958
  677PSPI    C110483   4.652  15.257   5.158  0.2649  0.2084 -0.0092
  677PSPI    C210484   4.760  14.917   4.977 -0.2634  0.0237  0.0043
  677PSPI    C310485   4.994  15.240   4.952  0.2745 -0.3499  0.0364
  677PSPI   PO410486   4.551  15.204   5.421 -0.3948  0.1118  0.2348
  677PSPI   GL110487   4.357  15.454   5.769  0.0725  0.4513 -0.0108
  677PSPI   GL210488   3.984  15.507   5.701  0.2677 -0.1615  0.1304
  677PSPI   C1A10489   4.561  15.705   6.065 -0.0745  0.1783  0.1111
  677PSPI   C2A10490   4.154  15.767   6.194 -0.0582 -0.0739 -0.2475
  677PSPI   C3A10491   3.831  15.776   6.486  0.0044 -0.3882  0.0106
  677PSPI   C4A10492   3.550  15.931   6.814  0.0749  0.2425 -0.0017
  677PSPI   C1B10493   4.012  15.188   6.008  0.3058 -0.0996 -0.2843
  677PSPI   C2B10494   3.792  15.228   6.437 -0.2038 -0.1315  0.0580
  677PSPI   C3B10495   3.798  15.395   6.875 -0.1429  0.0454  0.2197
  677PSPI   C4B10496   3.508  15.498   7.100 -0.0222  0.0600  0.4237
  678PSPI    C110497   0.670  11.637   4.814 -0.0244  0.0979 -0.4016
  678PSPI    C210498   0.372  11.424   4.654  0.0765 -0.4032  0.0489
  678PSPI    C310499   0.736  11.414   4.489  0.0261 -0.3969 -0.0635
  678PSPI   PO410500   0.629  11.631   5.087 -0.0201 -0.2046 -0.3708
  678PSPI   GL110501   0.341  11.646   5.469  0.1384  0.1021 -0.0942
  678PSPI   GL210502   0.408  12.013   5.447  0.2286 -0.0439 -0.1112
  678PSPI   C1A10503   0.172  11.481   5.661 -0.2262 -0.0986 -0.1355
  678PSPI   C2A10504  -0.195  11.377   5.833 -0.1356  0.0721  0.2586
  678PSPI   C3A10505  -0.466  11.208   6.255  0.0200 -0.0435 -0.0091
  678PSPI   C4A10506  -0.686  11.443   6.542  0.0639 -0.1785 -0.0762
  678PSPI   C1B10507   0.565  11.802   5.935  0.0558  0.0153  0.0726
  678PSPI   C2B10508   0.496  11.713   6.340 -0.0793 -0.3422 -0.1558
  678PSPI   C3B10509   0.185  11.736   6.818  0.0196  0.2682 -0.0030
  678PSPI   C4B10510   0.060  11.930   7.276 -0.0934 -0.3212  0.2084
  679PSPI    C110511  15.181   0.705   4.820 -0.0647 -0.2097 -0.0277
  679PSPI    C210512  15.322   0.901   4.501  0.0642 -0.1621  0.0577
  679PSPI    C310513  14.955   0.742   4.493 -0.0183  0.0313 -0.0338
  679PSPI   PO410514  15.257   0.861   5.034  0.2245 -0.2809  0.1004
  679PSPI   GL110515  15.158   0.957   5.444 -0.2570  0.0057  0.4427
  679PSPI   GL210516  15.469   1.150   5.365  0.1322 -0.4117  0.0451
  679PSPI   C1A10517  14.987   1.074   5.827 -0.4703 -0.1004 -0.2315
  679PSPI   C2A10518  14.786   1.183   6.178 -0.3469 -0.2448  0.1782
  679PSPI   C3A10519  14.563   1.101   6.525  0.0043 -0.0414  0.1820
  679PSPI   C4A10520  14.251   0.909   6.824  0.0919  0.1395 -0.0319
  679PSPI   C1B10521  15.587   1.220   5.736  0.1989 -0.0880 -0.1084
  679PSPI   C2B10522  15.458   1.135   6.095 -0.1344 -0.2473 -0.1896
  679PSPI   C3B10523  15.599   0.926   6.345  0.0248 -0.0446  0.2933
  679PSPI   C4B10524  15.496   0.762   6.760  0.2354  0.1818 -0.0575
  680PSPI    C110525   5.124   9.496   4.651 -0.3472 -0.0535  0.0287
  680PSPI    C210526   5.457   9.626   4.831 -0.2971 -0.1100 -0.0227
  680PSPI    C310527   5.482   9.383   4.515 -0.3835  0.0294 -0.1381
  680PSPI   PO410528   5.004   9.419   4.791 -0.1245  0.1330 -0.1398
  680PSPI   GL110529   4.812   9.677   5.035  0.0090 -0.2406 -0.1430
  680PSPI   GL210530   5.170   9.745   5.213 -0.0772 -0.1588  0.1325
  680PSPI   C1A10531   4.616   9.520   5.403 -0.2094 -0.2902  0.2314
  680PSPI   C2A10532   4.856   9.292   5.654 -0.0219 -0.1477  0.0457
  680PSPI   C3A10533   4.818   8.954   5.894  0.0333 -0.1184 -0.0478
  680PSPI   C4A10534   4.707   8.480   5.844  0.3825  0.1686  0.0741
  680PSPI   C1B10535   5.299   9.528   5.703 -0.0446  0.2713  0.0706
  680PSPI   C2B10536   5.676   9.315   5.817 -0.1786 -0.3005  0.0981
  680PSPI   C3B10537   5.938   9.130   6.093 -0.0291  0.2090  0.1645
  680PSPI   C4B10538   6.166   8.898   6.279 -0.1349  0.0950 -0.0408
  681PSPI    C110539  13.558  10.432   5.362  0.1150  0.1776  0.0581
  681PSPI    C210540  13.816  10.647   5.578  0.4362 -0.1224 -0.0182
  681PSPI    C310541  13.908  10.541   5.203  0.0985 -0.0341 -0.1295
  681PSPI   PO410542  13.345  10.613   5.497  0.0127 -0.0602 -0.1094
  681PSPI   GL110543  13.143  10.643   5.855  0.1093  0.0476  0.0176
  681PSPI   GL210544  13.352  10.310   5.912 -0.0379 -0.1266  0.0352
  681PSPI   C1A10545  13.092  10.730   6.158 -0.1284 -0.1463  0.0387
  681PSPI   C2A10546  13.057  10.818   6.500  0.0295  0.3058  0.0848
  681PSPI   C3A10547  13.402  10.567   6.803 -0.1559  0.0019  0.1281
  681PSPI   C4A10548  13.806  10.810   7.072 -0.1396 -0.5364 -0.0201
  681PSPI   C1B10549  13.333  10.152   6.363 -0.0641 -0.3547 -0.0078
  681PSPI   C2B10550  13.373  10.075   6.791 -0.2436 -0.0147 -0.5527
  681PSPI   C3B10551  13.666  10.202   7.157 -0.1554  0.0627 -0.0328
  681PSPI   C4B10552  13.662  10.058   7.542  0.1830  0.2831  0.1402
  682PSPI    C110553   3.636   7.787   4.980 -0.1847  0.2523  0.1292
  682PSPI    C210554   3.273   7.647   4.886 -0.1433  0.0263  0.2949
  682PSPI    C310555   3.527   7.757   4.597 -0.3001  0.0754  0.1745
  682PSPI   PO410556   3.630   7.762   5.252  0.0684  0.0201  0.3062
  682PSPI   GL110557   3.558   7.418   5.561  0.3499 -0.1129  0.0840
  682PSPI   GL210558   3.847   7.503   5.679 -0.2136  0.0420 -0.0409
  682PSPI   C1A10559   3.328   7.341   5.788 -0.0757  0.0192 -0.1380
  682PSPI   C2A10560   2.863   7.204   6.010  0.0218 -0.1899  0.2877
  682PSPI   C3A10561   2.504   7.457   6.232 -0.0057  0.0599 -0.0659
  682PSPI   C4A10562   2.424   7.633   6.678  0.0457  0.4112 -0.0031
  682PSPI   C1B10563   4.082   7.533   6.031  0.1551 -0.1083 -0.3001
  682PSPI   C2B10564   4.341   7.733   6.351 -0.0547  0.5470 -0.0682
  682PSPI   C3B10565   4.500   8.043   6.544 -0.3274 -0.0405  0.2827
  682PSPI   C4B10566   4.250   8.395   6.779  0.4790  0.1274 -0.2141
  683PSPI    C110567  19.196  18.342   5.152 -0.0684  0.0951  0.0173
  683PSPI    C210568  19.221  18.630   5.428  0.0277  0.2039 -0.1039
  683PSPI    C310569  18.879  18.573   5.229  0.0024  0.2209 -0.0654
  683PSPI   PO410570  19.360  18.204   5.260  0.2901 -0.0019  0.0033
  683PSPI   GL110571  19.704  17.980   5.477 -0.1357 -0.1371 -0.1069
  683PSPI   GL210572  19.778  18.348   5.627  0.2586 -0.3447  0.4709
  683PSPI   C1A10573  19.561  18.031   5.915 -0.3648  0.0900 -0.0574
  683PSPI   C2A10574  19.170  17.967   6.178 -0.5106 -0.1980 -0.0925
  683PSPI   C3A10575  19.014  18.329   6.408  0.1028 -0.0562  0.2008
  683PSPI   C4A10576  18.914  18.559   6.592  0.0862 -0.3345 -0.1860
  683PSPI   C1B10577  19.547  18.541   5.839  0.4203  0.3958  0.0590
  683PSPI   C2B10578  19.389  18.688   6.307  0.0775 -0.2687 -0.2441
  683PSPI   C3B10579  19.354  18.706   6.722  0.2553 -0.0405  0.2629
  683PSPI   C4B10580  19.517  18.517   7.087 -0.1154  0.0629 -0.3027
  684PSPI    C110581   0.026  14.337   5.192 -0.0529  0.0178 -0.0123
  684PSPI    C210582   0.002  14.078   4.888 -0.0420 -0.0750  0.0657
  684PSPI    C310583   0.336  14.099   5.107  0.0313  0.1451 -0.0645
  684PSPI   PO410584  -0.198  14.239   5.402 -0.2371 -0.0204 -0.2828
  684PSPI   GL110585  -0.513  14.243   5.709  0.1059  0.3610 -0.0489
  684PSPI   GL210586  -0.261  14.384   5.865  0.0937 -0.4421 -0.1548
  684PSPI   C1A10587  -0.444  13.907   6.053 -0.3854 -0.0789  0.0161
  684PSPI   C2A10588  -0.426  13.900   6.489  0.1967 -0.2371  0.0443
  684PSPI   C3A10589  -0.631  13.901   6.838 -0.3091 -0.2235  0.0878
  684PSPI   C4A10590  -0.839  13.732   7.089  0.1903 -0.0113 -0.0230
  684PSPI   C1B10591   0.046  14.663   6.071  0.1346  0.0358  0.0160
  684PSPI   C2B10592   0.377  14.668   6.413 -0.0380  0.1607  0.4835
  684PSPI   C3B10593   0.659  14.793   6.804 -0.1301  0.1890  0.0721
  684PSPI   C4B10594   0.940  15.158   6.714  0.4980  0.2336 -0.0639
  685PSPI    C110595   5.410   0.503   4.455  0.1266 -0.0730  0.1576
  685PSPI    C210596   5.652   0.674   4.187  0.1377  0.0127  0.2220
  685PSPI    C310597   5.761   0.333   4.366  0.0800 -0.1052  0.0347
  685PSPI   PO410598   5.313   0.753   4.561 -0.1983 -0.0177  0.1371
  685PSPI   GL110599   5.300   0.921   4.975  0.0183  0.1121 -0.1315
  685PSPI   GL210600   5.517   0.736   5.045  0.0150 -0.1644  0.2666
  685PSPI   C1A10601   5.085   0.675   5.307  0.2015  0.1995 -0.0718
  685PSPI   C2A10602   4.919   0.618   5.691  0.1483  0.1101  0.1197
  685PSPI   C3A10603   4.944   0.654   6.056  0.0237  0.0286 -0.0492
  685PSPI   C4A10604   4.988   0.876   6.415 -0.0920 -0.1688 -0.0479
  685PSPI   C1B10605   5.866   0.742   5.283 -0.1984  0.4886 -0.1727
  685PSPI   C2B10606   5.856   0.595   5.665 -0.0152  0.2617 -0.3455
  685PSPI   C3B10607   5.810   0.792   6.035  0.3347 -0.2542 -0.1411
  685PSPI   C4B10608   5.594   0.810   6.414 -0.4165  0.1386 -0.2982
  686PSPI    C110609  10.616   6.835   5.032  0.0954 -0.2856  0.0146
  686PSPI    C210610  10.700   6.903   4.647  0.2955 -0.0957  0.0899
  686PSPI    C310611  10.323   6.927   4.776  0.2148 -0.2500 -0.1110
  686PSPI   PO410612  10.913   6.937   5.146  0.0133 -0.0337 -0.2138
  686PSPI   GL110613  11.175   6.761   5.343 -0.0885  0.1062  0.1641
  686PSPI   GL210614  11.419   6.922   5.415  0.1244 -0.1340 -0.0067
  686PSPI   C1A10615  11.108   6.893   5.778 -0.0452  0.0547 -0.2759
  686PSPI   C2A10616  11.150   7.003   6.134 -0.3465  0.0278 -0.0241
  686PSPI   C3A10617  11.031   7.024   6.474 -0.0870  0.1741 -0.1533
  686PSPI   C4A10618  11.030   7.190   6.965  0.2003  0.3385 -0.0068
  686PSPI   C1B10619  11.567   7.012   5.861 -0.0648 -0.3598 -0.2088
  686PSPI   C2B10620  11.569   6.899   6.350 -0.0907  0.0581 -0.1384
  686PSPI   C3B10621  11.790   6.470   6.444 -0.1969  0.0613  0.2182
  686PSPI   C4B10622  11.898   6.416   6.875  0.0942 -0.0612 -0.0285
  687PSPI    C110623   3.940   0.823   4.860  0.0840 -0.0149 -0.2896
  687PSPI    C210624   3.795   0.981   5.197 -0.0464 -0.1144 -0.2986
  687PSPI    C310625   3.686   1.131   4.843  0.0044 -0.0808 -0.3000
  687PSPI   PO410626   4.067   0.618   4.964 -0.1216 -0.0409 -0.1537
  687PSPI   GL110627   4.357   0.320   5.144 -0.0990  0.3712 -0.3495
  687PSPI   GL210628   4.126   0.232   5.329  0.1042 -0.0463  0.3496
  687PSPI   C1A10629   4.579   0.282   5.545  0.2055  0.1296  0.0805
  687PSPI   C2A10630   4.823   0.197   5.861 -0.2565 -0.1464 -0.2958
  687PSPI   C3A10631   4.879   0.191   6.262  0.2810 -0.1125  0.0353
  687PSPI   C4A10632   4.977   0.391   6.649 -0.2662 -0.1804 -0.0737
  687PSPI   C1B10633   4.040  -0.174   5.601  0.2226  0.0827 -0.1224
  687PSPI   C2B10634   4.283  -0.557   5.884 -0.3941 -0.2140 -0.5473
  687PSPI   C3B10635   4.367  -0.751   6.333  0.1290  0.4890 -0.1827
  687PSPI   C4B10636   4.342  -0.963   6.716  0.2115 -0.0350 -0.1063
  688PSPI    C110637   4.143   7.862   5.165  0.2578 -0.2250  0.0873
  688PSPI    C210638   4.439   8.090   5.022  0.3097 -0.2511  0.1524
  688PSPI    C310639   4.074   8.112   4.861  0.2574  0.0468  0.3066
  688PSPI   PO410640   4.262   7.555   5.261 -0.0434 -0.1310 -0.0569
  688PSPI   GL110641   4.433   7.516   5.597  0.0384 -0.0584  0.0436
  688PSPI   GL210642   4.732   7.406   5.745 -0.2564  0.1923 -0.3049
  688PSPI   C1A10643   4.362   7.898   5.867  0.2937  0.0729  0.0373
  688PSPI   C2A10644   4.278   8.190   6.092  0.0660  0.4067 -0.0078
  688PSPI   C3A10645   4.465   8.555   6.354  0.3117  0.1413 -0.0646
  688PSPI   C4A10646   4.649   8.893   6.679  0.1430  0.3648 -0.0670
  688PSPI   C1B10647   4.771   7.549   6.223 -0.0391 -0.1727  0.2640
  688PSPI   C2B10648   4.649   7.379   6.595  0.0003  0.0567 -0.3998
  688PSPI   C3B10649   4.433   7.623   6.928  0.1156  0.3010  0.0108
  688PSPI   C4B10650   4.525   7.992   7.056  0.0566 -0.2223 -0.4525
  689PSPI    C110651   2.807  14.000   5.266 -0.3259  0.3077 -0.0012
  689PSPI    C210652   2.933  13.720   5.010 -0.2107  0.1056  0.2717
  689PSPI    C310653   3.066  14.095   4.977 -0.0762  0.0464  0.1318
  689PSPI   PO410654   2.536  13.813   5.306 -0.0916  0.2539 -0.0235
  689PSPI   GL110655   2.334  13.583   5.644  0.0481  0.0733 -0.1510
  689PSPI   GL210656   2.566  13.823   5.780 -0.3780  0.0896  0.2410
  689PSPI   C1A10657   2.098  13.704   6.000 -0.2060  0.0432 -0.3020
  689PSPI   C2A10658   2.000  13.325   6.433  0.1312  0.1076 -0.0667
  689PSPI   C3A10659   2.358  13.110   6.617 -0.1943 -0.0708 -0.1889
  689PSPI   C4A10660   2.651  12.705   6.637 -0.1833 -0.0865 -0.0750
  689PSPI   C1B10661   2.578  13.665   6.224  0.0335 -0.1920  0.3671
  689PSPI   C2B10662   2.493  13.552   6.665  0.0295  0.0963  0.2028
  689PSPI   C3B10663   2.518  13.620   7.066 -0.0516 -0.0073 -0.1581
  689PSPI   C4B10664   2.203  13.622   7.384 -0.0517 -0.3526  0.0931
  690PSPI    C110665   6.778   6.587   4.775 -0.0768 -0.1189  0.0493
  690PSPI    C210666   6.731   6.378   4.437 -0.2175 -0.1038  0.0587
  690PSPI    C310667   6.797   6.772   4.420 -0.4186 -0.0695  0.0533
  690PSPI   PO410668   6.558   6.465   5.034  0.2785 -0.3195 -0.0745
  690PSPI   GL110669   6.679   6.287   5.529 -0.2781 -0.1556  0.1813
  690PSPI   GL210670   6.471   6.536   5.494  0.1317  0.2898 -0.0939
  690PSPI   C1A10671   6.428   6.114   5.834 -0.2458 -0.5404  0.1556
  690PSPI   C2A10672   6.398   5.860   6.033  0.1153 -0.2660  0.2887
  690PSPI   C3A10673   6.057   5.509   6.113  0.1661  0.0077 -0.1243
  690PSPI   C4A10674   5.860   5.468   6.370 -0.0074 -0.0765 -0.0033
  690PSPI   C1B10675   6.376   6.686   5.977  0.2304 -0.1047 -0.2186
  690PSPI   C2B10676   6.591   6.780   6.389 -0.1730 -0.0261  0.1840
  690PSPI   C3B10677   6.783   6.689   6.709  0.2429  0.2564 -0.3436
  690PSPI   C4B10678   6.887   6.292   6.807  0.2850  0.1158  0.0829
  691PSPI    C110679  19.429   1.843   5.028  0.0094 -0.3229 -0.2815
  691PSPI    C210680  19.334   1.652   4.690 -0.0041 -0.1745 -0.3627
  691PSPI    C310681  19.530   2.000   4.674 -0.0180 -0.1596 -0.2178
  691PSPI   PO410682  19.250   1.725   5.173 -0.0055  0.0546 -0.0797
  691PSPI   GL110683  19.204   1.784   5.551 -0.1538  0.3140  0.0639
  691PSPI   GL210684  19.448   1.833   5.674  0.3807  0.0472 -0.2328
  691PSPI   C1A10685  18.945   1.543   5.814  0.1326  0.0027 -0.0401
  691PSPI   C2A10686  19.026   1.197   6.111 -0.2504  0.4145 -0.2435
  691PSPI   C3A10687  19.235   1.162   6.528 -0.3184  0.2068 -0.4228
  691PSPI   C4A10688  19.456   1.378   6.807 -0.2438  0.1442  0.1311
  691PSPI   C1B10689  19.474   1.656   6.071 -0.2194 -0.2982 -0.0278
  691PSPI   C2B10690  19.773   1.684   6.441  0.1547 -0.3985 -0.1879
  691PSPI   C3B10691  19.988   2.012   6.729 -0.2065  0.1614 -0.0981
  691PSPI   C4B10692  19.919   2.220   7.053 -0.2479  0.1537 -0.2545
  692PSPI    C110693   4.931  10.581   4.974 -0.0469 -0.0337  0.1865
  692PSPI    C210694   4.649  10.709   5.226  0.0357  0.1748  0.1747
  692PSPI    C310695   4.735  10.920   4.898 -0.0837 -0.1041 -0.0402
  692PSPI   PO410696   5.160  10.416   5.228 -0.1089  0.0543  0.1579
  692PSPI   GL110697   5.343  10.439   5.499  0.1202  0.1485 -0.2178
  692PSPI   GL210698   5.392  10.082   5.641 -0.0147  0.0155 -0.2147
  692PSPI   C1A10699   5.637  10.503   5.834 -0.1755  0.0450 -0.2452
  692PSPI   C2A10700   5.818  10.334   6.191 -0.0892 -0.0323 -0.2878
  692PSPI   C3A10701   5.878   9.945   6.491 -0.0571  0.2652  0.1485
  692PSPI   C4A10702   5.883   9.695   6.849 -0.3278 -0.0083 -0.1749
  692PSPI   C1B10703   5.312  10.123   6.033 -0.2594 -0.0261  0.1840
  692PSPI   C2B10704   5.428  10.068   6.411 -0.1978 -0.1493 -0.0154
  692PSPI   C3B10705   5.286  10.213   6.911 -0.1777 -0.3550  0.3838
  692PSPI   C4B10706   5.363  10.348   7.262  0.1422  0.1221  0.1815
  693PSPI    C110707  18.319   7.438   5.346  0.3945  0.3310  0.0130
  693PSPI    C210708  18.568   7.204   5.138  0.1263 -0.0856  0.1478
  693PSPI    C310709  18.173   7.164   5.093  0.0709  0.0670  0.4702
  693PSPI   PO410710  18.250   7.353   5.586  0.0491 -0.3232  0.1450
  693PSPI   GL110711  18.298   7.265   5.971  0.1861  0.2227  0.1202
  693PSPI   GL210712  18.473   6.920   5.788  0.1653 -0.3150 -0.0993
  693PSPI   C1A10713  18.399   7.220   6.433 -0.2161 -0.0346  0.1620
  693PSPI   C2A10714  18.360   6.948   6.775  0.3584  0.1539 -0.0710
  693PSPI   C3A10715  18.036   6.578   6.858 -0.0792 -0.0941  0.1810
  693PSPI   C4A10716  17.927   6.276   7.094  0.0152  0.1335  0.1469
  693PSPI   C1B10717  18.292   6.825   6.189  0.2909 -0.1248 -0.0164
  693PSPI   C2B10718  18.279   6.445   6.456 -0.1366  0.0454  0.1900
  693PSPI   C3B10719  18.475   6.355   6.753 -0.0620  0.0302 -0.1632
  693PSPI   C4B10720  18.643   6.326   7.211 -0.1689  0.1405  0.2162
  694POPI    C110721   4.515  12.652   5.168 -0.0097  0.0622  0.0577
  694POPI    C210722   4.126  12.559   5.163 -0.0358  0.1550  0.2608
  694POPI    C310723   4.342  12.535   4.827 -0.1983  0.0280  0.1638
  694POPI   PO410724   4.517  12.804   5.361  0.0380 -0.0602  0.0532
  694POPI   GL110725   4.374  12.886   5.775 -0.3653  0.0998  0.4022
  694POPI   GL210726   4.276  12.524   5.625  0.2714 -0.1065 -0.0772
  694POPI   C1A10727   4.502  12.617   6.101 -0.0329  0.0886 -0.2908
  694POPI   D2A10728   4.288  12.403   6.489 -0.1171 -0.2472 -0.1185
  694POPI   C3A10729   4.406  12.592   6.895 -0.0601  0.0648  0.0003
  694POPI   C4A10730   4.356  12.498   7.358 -0.2465  0.0253  0.1323
  694POPI   C1B10731   4.109  12.287   5.916 -0.2730  0.2176  0.0760
  694POPI   C2B10732   3.744  12.121   6.178  0.0531 -0.0474 -0.1366
  694POPI   C3B10733   3.514  12.048   6.522  0.2727  0.2461 -0.0007
  694POPI   C4B10734   3.572  12.479   6.825  0.2906  0.1812 -0.3162
  695POPI    C110735   9.672   8.831   4.575  0.1314  0.0396  0.1042
  695POPI    C210736   9.744   9.218   4.504  0.1396  0.0160 -0.0184
  695POPI    C310737   9.418   9.110   4.709  0.1011  0.0838 -0.0432
  695POPI   PO410738   9.879   8.741   4.712  0.0546  0.0035 -0.4319
  695POPI   GL110739   9.964   8.765   5.167 -0.6377  0.0047 -0.1831
  695POPI   GL210740  10.314   8.639   5.209 -0.0190  0.1138 -0.1543
  695POPI   C1A10741  10.204   9.107   5.409  0.0379  0.1199  0.2335
  695POPI   D2A10742  10.358   9.453   5.645 -0.1323 -0.2764 -0.1584
  695POPI   C3A10743  10.492   9.741   5.986  0.3363  0.2282  0.1426
  695POPI   C4A10744  10.745   9.946   6.169  0.2671 -0.0320 -0.0298
  695POPI   C1B10745  10.196   8.609   5.611 -0.0371  0.0912  0.2474
  695POPI   C2B10746  10.228   8.715   6.050  0.1090 -0.2128 -0.3502
  695POPI   C3B10747  10.002   8.722   6.378 -0.1352 -0.4440 -0.3980
  695POPI   C4B10748   9.593   8.591   6.400  0.0318 -0.3002 -0.1259
  696POPI    C110749  16.878  12.151   4.418 -0.2296  0.1891 -0.0834
  696POPI    C210750  16.623  12.429   4.285 -0.1547  0.1088 -0.4032
  696POPI    C310751  16.523  12.042   4.270 -0.2269  0.1092 -0.0318
  696POPI   PO410752  16.927  12.141   4.740 -0.1124 -0.0730  0.1909
  696POPI   GL110753  17.050  11.924   5.140  0.1839 -0.2152 -0.2017
  696POPI   GL210754  17.214  11.974   5.507  0.2096 -0.0576 -0.0988
  696POPI   C1A10755  16.826  11.682   5.475  0.1800  0.2082 -0.0046
  696POPI   D2A10756  16.886  11.756   5.874 -0.0743  0.3459 -0.0150
  696POPI   C3A10757  16.898  12.092   6.027  0.1458  0.0355  0.1218
  696POPI   C4A10758  17.092  12.473   6.036 -0.1490 -0.0753  0.1656
  696POPI   C1B10759  17.478  12.371   5.691  0.2013  0.1837  0.1336
  696POPI   C2B10760  17.817  12.547   5.743  0.1864  0.1370 -0.0709
  696POPI   C3B10761  18.102  12.837   6.036  0.2674 -0.1664 -0.0974
  696POPI   C4B10762  18.578  12.824   5.945 -0.0563 -0.0448  0.2141
  697POPI    C110763  17.591  14.543   5.220 -0.0460  0.1022 -0.0431
  697POPI    C210764  17.297  14.449   5.475 -0.0626  0.1263 -0.0534
  697POPI    C310765  17.319  14.266   5.120 -0.0110  0.0574 -0.0149
  697POPI   PO410766  17.807  14.499   5.488  0.0391  0.0088 -0.1280
  697POPI   GL110767  17.868  14.140   5.672 -0.1401 -0.1905  0.1395
  697POPI   GL210768  17.580  14.135   5.759  0.2256 -0.6520  0.1764
  697POPI   C1A10769  18.011  14.073   6.120  0.1967 -0.0376 -0.2588
  697POPI   D2A10770  18.212  14.175   6.525 -0.0399 -0.2388 -0.1842
  697POPI   C3A10771  17.903  14.424   6.700  0.1086 -0.0795  0.0287
  697POPI   C4A10772  17.597  14.660   6.414  0.0844  0.0890 -0.1139
  697POPI   C1B10773  17.544  14.206   6.243 -0.0197 -0.0332 -0.1482
  697POPI   C2B10774  17.572  14.059   6.483 -0.1859 -0.3554  0.1704
  697POPI   C3B10775  17.301  13.878   6.774 -0.0957 -0.0787 -0.0988
  697POPI   C4B10776  17.099  13.990   7.131  0.2283 -0.0920 -0.0376
  698POPI    C110777   4.973   3.551   4.578  0.1226  0.1177  0.0737
  698POPI    C210778   5.304   3.670   4.387  0.1582  0.1272  0.1409
  698POPI    C310779   5.032   3.447   4.197  0.1011  0.2974  0.0203
  698POPI   PO410780   5.169   3.471   4.825 -0.0014  0.3966  0.2760
  698POPI   GL110781   5.525   3.505   5.080  0.0702  0.0497 -0.2704
  698POPI   GL210782   5.642   3.344   5.402 -0.1105  0.4652  0.0550
  698POPI   C1A10783   5.572   3.907   5.278 -0.1171 -0.1491  0.1599
  698POPI   D2A10784   5.481   4.024   5.709 -0.1106 -0.1603  0.0398
  698POPI   C3A10785   5.331   3.968   6.131  0.2449 -0.2322 -0.5041
  698POPI   C4A10786   4.931   3.940   6.465  0.1473 -0.1839 -0.0736
  698POPI   C1B10787   5.420   3.535   5.708  0.1492 -0.1537  0.1051
  698POPI   C2B10788   5.502   3.458   6.125  0.1467  0.0502 -0.0646
  698POPI   C3B10789   5.666   3.263   6.522 -0.1219  0.0957 -0.0685
  698POPI   C4B10790   5.984   3.452   6.847 -0.4005  0.0640  0.1443
  699POPI    C110791  12.162   7.571   4.783 -0.1516  0.0508 -0.1273
  699POPI    C210792  12.383   7.283   4.615 -0.0691 -0.1022  0.2334
  699POPI    C310793  12.433   7.664   4.505  0.0542 -0.1868 -0.0102
  699POPI   PO410794  12.156   7.527   5.068  0.0731 -0.0352 -0.1818
  699POPI   GL110795  12.250   7.488   5.438  0.1400  0.0600  0.2523
  699POPI   GL210796  12.593   7.407   5.439  0.1990 -0.0883  0.1812
  699POPI   C1A10797  12.261   7.681   5.807  0.0302 -0.2525 -0.0564
  699POPI   D2A10798  12.080   7.667   6.313  0.1730 -0.1930 -0.3307
  699POPI   C3A10799  12.119   7.920   6.632  0.1973 -0.2171  0.2063
  699POPI   C4A10800  11.876   8.192   7.003 -0.0519  0.0925 -0.2330
  699POPI   C1B10801  12.487   7.228   5.752  0.0763 -0.1014 -0.1252
  699POPI   C2B10802  12.664   7.108   6.134 -0.0370 -0.1496  0.1257
  699POPI   C3B10803  13.038   7.147   6.253  0.0808 -0.2052 -0.3453
  699POPI   C4B10804  13.026   7.542   6.486  0.0044 -0.0029  0.1125
  700POPI    C110805   9.425  14.699   5.765  0.0760 -0.1478  0.1991
  700POPI    C210806   9.674  14.631   5.460  0.0714  0.0705  0.1448
  700POPI    C310807   9.603  14.343   5.728  0.0094 -0.1525 -0.1060
  700POPI   PO410808   9.533  14.869   5.848 -0.1818  0.1371  0.0081
  700POPI   GL110809   9.801  14.792   6.155 -0.0860  0.3027 -0.0171
  700POPI   GL210810   9.888  15.087   6.229 -0.0052  0.1607 -0.2845
  700POPI   C1A10811  10.012  14.334   6.221 -0.1458 -0.0462  0.2505
  700POPI   D2A10812  10.180  13.935   6.281  0.2022 -0.1744  0.1937
  700POPI   C3A10813   9.959  13.685   6.636 -0.1882 -0.0685 -0.1038
  700POPI   C4A10814   9.710  13.683   7.104  0.0487  0.1914 -0.1086
  700POPI   C1B10815   9.769  15.011   6.631 -0.0004  0.1755  0.0289
  700POPI   C2B10816   9.868  15.120   7.062  0.1759  0.0537 -0.0402
  700POPI   C3B10817  10.021  15.487   7.281  0.0038  0.2799  0.2262
  700POPI   C4B10818  10.015  15.622   7.689  0.0681 -0.1225  0.0881
  701POPI    C110819   2.862   6.463   4.448  0.0839  0.4414  0.0085
  701POPI    C210820   3.114   6.404   4.143 -0.0347  0.3817 -0.0792
  701POPI    C310821   2.739   6.521   4.072 -0.1484  0.0904  0.0251
  701POPI   PO410822   2.905   6.192   4.637  0.1334 -0.3298 -0.1577
  701POPI   GL110823   3.061   5.979   4.954 -0.2096  0.1756  0.1864
  701POPI   GL210824   2.882   5.748   5.162 -0.1515  0.1907 -0.2895
  701POPI   C1A10825   3.195   6.033   5.447  0.1950  0.0225  0.4800
  701POPI   D2A10826   3.288   5.924   5.873  0.1845  0.3999 -0.4492
  701POPI   C3A10827   3.337   6.188   6.193 -0.1560 -0.0380 -0.0249
  701POPI   C4A10828   3.280   6.387   6.548  0.0951  0.0215 -0.1820
  701POPI   C1B10829   2.622   5.443   5.447  0.3739 -0.0679 -0.2221
  701POPI   C2B10830   2.644   5.258   5.762  0.1462 -0.2988  0.0082
  701POPI   C3B10831   2.629   4.755   5.820  0.3494 -0.3731 -0.1384
  701POPI   C4B10832   2.607   4.264   5.686  0.1318 -0.3290  0.0868
  702POPI    C110833  19.481   8.847   5.088  0.3587 -0.0219  0.1346
  702POPI    C210834  19.615   8.546   4.861 -0.0047  0.0695 -0.2133
  702POPI    C310835  19.680   8.924   4.749  0.0324  0.1187 -0.0295
  702POPI   PO410836  19.241   8.626   5.172 -0.1600  0.0888 -0.1791
  702POPI   GL110837  19.008   8.550   5.534  0.1906  0.2783  0.3820
  702POPI   GL210838  18.788   8.721   5.379 -0.2112  0.1241 -0.2760
  702POPI   C1A10839  19.166   8.589   5.989 -0.0077  0.2056 -0.2674
  702POPI   D2A10840  19.191   8.434   6.389  0.1931 -0.1628  0.0095
  702POPI   C3A10841  19.300   8.175   6.615  0.0088 -0.1154  0.1415
  702POPI   C4A10842  19.322   7.813   6.950 -0.2632 -0.0319 -0.3338
  702POPI   C1B10843  18.850   8.975   5.848 -0.0797  0.1300  0.3612
  702POPI   C2B10844  18.889   8.913   6.253  0.2163 -0.0108  0.2746
  702POPI   C3B10845  18.949   9.125   6.563 -0.0497  0.0550 -0.0413
  702POPI   C4B10846  19.226   9.189   6.744 -0.3719  0.0940  0.0537
  703POPI    C110847  14.265   2.495   4.905 -0.6222 -0.0162 -0.0748
  703POPI    C210848  14.272   2.168   4.675 -0.1557 -0.1089  0.0619
  703POPI    C310849  14.326   2.529   4.511  0.3014 -0.1846  0.0320
  703POPI   PO410850  14.500   2.461   5.107 -0.0584  0.4010 -0.0673
  703POPI   GL110851  14.451   2.603   5.588  0.1615  0.1572  0.2690
  703POPI   GL210852  14.319   2.514   5.944 -0.0074  0.2993  0.1492
  703POPI   C1A10853  14.859   2.531   5.846  0.4022 -0.0100  0.1313
  703POPI   D2A10854  15.252   2.574   6.172  0.0801 -0.1856  0.1787
  703POPI   C3A10855  15.060   2.481   6.639 -0.3247  0.0529  0.2313
  703POPI   C4A10856  14.753   2.472   6.837  0.0514 -0.0506 -0.0353
  703POPI   C1B10857  14.168   2.170   6.104 -0.0332 -0.2234 -0.4024
  703POPI   C2B10858  13.736   2.034   6.097 -0.0064  0.1173 -0.0679
  703POPI   C3B10859  13.367   1.771   6.328 -0.0678 -0.1636  0.1939
  703POPI   C4B10860  13.183   1.786   6.703  0.3677  0.0316  0.0501
  704POPI    C110861   4.858   1.006   4.548 -0.0317 -0.0890  0.3512
  704POPI    C210862   4.748   1.200   4.216 -0.1011 -0.1858  0.3173
  704POPI    C310863   4.762   0.800   4.219  0.0565 -0.1803  0.3822
  704POPI   PO410864   4.697   1.279   4.734  0.1039 -0.0079  0.1632
  704POPI   GL110865   4.855   1.409   5.152 -0.2787 -0.2173  0.2305
  704POPI   GL210866   4.840   1.057   5.204 -0.0444 -0.3182  0.1268
  704POPI   C1A10867   4.496   1.598   5.417  0.2175  0.1698  0.2885
  704POPI   D2A10868   4.377   1.446   5.836 -0.1299  0.1222  0.0332
  704POPI   C3A10869   4.152   1.185   5.978 -0.1029  0.0036 -0.2240
  704POPI   C4A10870   4.000   0.855   6.167 -0.0274 -0.0737 -0.2567
  704POPI   C1B10871   4.750   1.169   5.637 -0.2865  0.1558  0.0660
  704POPI   C2B10872   4.733   1.101   6.044 -0.1559 -0.2458 -0.0071
  704POPI   C3B10873   4.504   0.899   6.367 -0.0732 -0.0685 -0.0835
  704POPI   C4B10874   4.467   0.573   6.686  0.1600  0.0915 -0.0587
  705POPI    C110875  11.253   5.928   4.747  0.2523  0.0869  0.0606
  705POPI    C210876  11.530   6.216   4.726 -0.0934  0.4117 -0.1747
  705POPI    C310877  11.261   6.176   4.433  0.0120 -0.2248 -0.1980
  705POPI   PO410878  11.260   5.903   5.031 -0.0757  0.0683  0.2213
  705POPI   GL110879  11.212   5.854   5.462  0.2063  0.0257  0.1275
  705POPI   GL210880  11.447   5.776   5.581 -0.0903  0.0051  0.2446
  705POPI   C1A10881  11.012   6.212   5.614 -0.1002 -0.3546 -0.0998
  705POPI   D2A10882  10.876   6.438   5.877 -0.0886  0.0394  0.0088
  705POPI   C3A10883  10.765   6.603   6.361  0.1147  0.1988  0.0902
  705POPI   C4A10884  10.936   6.658   6.797  0.1444 -0.0158  0.1170
  705POPI   C1B10885  11.432   5.767   5.996 -0.1034 -0.1040 -0.2858
  705POPI   C2B10886  11.397   5.915   6.487  0.0138  0.0832  0.0405
  705POPI   C3B10887  11.340   6.116   6.810  0.1975 -0.1360 -0.5426
  705POPI   C4B10888  11.450   6.559   6.896  0.2964  0.2940  0.0908
  706POPI    C110889   5.194  11.841   5.318 -0.0900  0.2050 -0.1563
  706POPI    C210890   5.240  11.461   5.204 -0.2308  0.1388  0.0016
  706POPI    C310891   4.991  11.701   5.003  0.1039  0.2433 -0.3000
  706POPI   PO410892   5.437  11.889   5.410 -0.0859 -0.4295  0.3799
  706POPI   GL110893   5.428  11.531   5.727 -0.1665 -0.4717 -0.1192
  706POPI   GL210894   5.068  11.396   5.635 -0.1255 -0.0010 -0.2088
  706POPI   C1A10895   5.596  11.399   6.108 -0.0957  0.2190  0.1187
  706POPI   D2A10896   5.740  11.224   6.490 -0.0828 -0.1588  0.0977
  706POPI   C3A10897   5.707  11.079   6.860 -0.0082 -0.0946  0.2770
  706POPI   C4A10898   5.608  10.730   7.091  0.0826  0.3540  0.1672
  706POPI   C1B10899   5.057  11.410   6.125 -0.0241  0.1224 -0.0647
  706POPI   C2B10900   5.248  11.090   6.399 -0.1009  0.0892 -0.0446
  706POPI   C3B10901   5.427  10.849   6.553  0.0000 -0.2879 -0.1386
  706POPI   C4B10902   5.685  10.531   6.598 -0.0630 -0.3545  0.0276
  707POPI    C110903   9.344  14.287   5.269 -0.0201 -0.0950  0.1757
  707POPI    C210904   9.558  14.073   5.008  0.0581  0.1324  0.0502
  707POPI    C310905   9.197  14.210   4.905 -0.0216  0.0028  0.1551
  707POPI   PO410906   9.319  14.056   5.457  0.4360  0.2789 -0.1531
  707POPI   GL110907   9.367  13.860   5.824 -0.1424  0.2849  0.0271
  707POPI   GL210908   9.549  13.689   5.936 -0.0100 -0.0882 -0.1142
  707POPI   C1A10909   9.010  13.725   6.035 -0.0309 -0.0823  0.1754
  707POPI   D2A10910   8.829  13.489   6.451  0.1801 -0.0405  0.0803
  707POPI   C3A10911   8.851  13.816   6.790  0.2920 -0.1173  0.1681
  707POPI   C4A10912   8.879  14.138   7.109  0.1043  0.2196 -0.2665
  707POPI   C1B10913   9.720  13.949   6.343 -0.1030  0.1250  0.0034
  707POPI   C2B10914   9.608  14.452   6.498 -0.2890  0.0985  0.1302
  707POPI   C3B10915   9.375  14.797   6.503  0.0622 -0.1518  0.2159
  707POPI   C4B10916   8.993  15.055   6.590  0.2343 -0.1291  0.1566
  708POPI    C110917   8.338  15.136   5.212  0.1404  0.1934  0.1823
  708POPI    C210918   8.051  14.958   4.996  0.1901  0.1963  0.1135
  708POPI    C310919   8.384  15.089   4.817  0.0624  0.5501  0.1276
  708POPI   PO410920   8.220  15.111   5.491 -0.3403  0.1562  0.2215
  708POPI   GL110921   8.432  15.062   5.833  0.1871  0.0950  0.1634
  708POPI   GL210922   8.496  14.740   5.953  0.0812  0.1329  0.1779
  708POPI   C1A10923   8.187  15.231   6.202  0.2154 -0.1820  0.0770
  708POPI   D2A10924   8.018  15.089   6.563 -0.0460 -0.1140  0.0826
  708POPI   C3A10925   8.195  14.783   6.907 -0.0741 -0.1875  0.1841
  708POPI   C4A10926   8.565  14.577   7.100  0.0435  0.1761 -0.1121
  708POPI   C1B10927   8.617  14.856   6.322 -0.1831 -0.0845 -0.3544
  708POPI   C2B10928   8.756  14.608   6.632 -0.0518  0.1905 -0.0064
  708POPI   C3B10929   9.103  14.440   6.796 -0.0870  0.1646  0.1316
  708POPI   C4B10930   9.295  14.350   7.271 -0.3018 -0.1868  0.0803
  709POPI    C110931   6.034  18.148   4.955 -0.0179  0.0011 -0.1602
  709POPI    C210932   6.251  18.365   4.699  0.0749  0.0376 -0.0515
  709POPI    C310933   5.923  18.174   4.571 -0.1306  0.4150 -0.1046
  709POPI   PO410934   6.191  18.068   5.155 -0.0025 -0.4585  0.1850
  709POPI   GL110935   6.425  18.093   5.467 -0.1606  0.1169 -0.1147
  709POPI   GL210936   6.577  18.373   5.733 -0.1480 -0.2443  0.0451
  709POPI   C1A10937   6.583  17.889   5.864  0.2013 -0.1840 -0.1465
  709POPI   D2A10938   6.732  17.899   6.305 -0.0348  0.1315 -0.2166
  709POPI   C3A10939   6.523  18.133   6.584  0.0820  0.1971  0.1154
  709POPI   C4A10940   6.176  18.351   6.726  0.1653  0.2338  0.1862
  709POPI   C1B10941   6.929  18.381   6.064 -0.2032  0.0810 -0.0562
  709POPI   C2B10942   6.966  18.318   6.527 -0.1115  0.2151  0.1162
  709POPI   C3B10943   7.371  18.464   6.610  0.0501 -0.0241 -0.0749
  709POPI   C4B10944   7.736  18.246   6.627 -0.0303 -0.0778 -0.1381
  710POPI    C110945   8.017   8.129   5.053  0.0218 -0.0828  0.1716
  710POPI    C210946   7.727   8.022   4.799 -0.0024  0.0774  0.1311
  710POPI    C310947   8.087   8.128   4.659  0.0062  0.0967  0.1676
  710POPI   PO410948   7.852   8.223   5.247 -0.0654 -0.3611  0.3891
  710POPI   GL110949   7.618   8.280   5.624 -0.1936  0.0719  0.3151
  710POPI   GL210950   7.266   8.230   5.549 -0.2509  0.2938 -0.3136
  710POPI   C1A10951   7.510   7.936   5.941  0.1107 -0.0880  0.1138
  710POPI   D2A10952   7.273   7.515   5.963 -0.2474  0.3810  0.1415
  710POPI   C3A10953   7.349   7.122   5.959 -0.1766  0.1497 -0.0953
  710POPI   C4A10954   7.344   6.666   5.851 -0.0368  0.0535 -0.2350
  710POPI   C1B10955   7.220   8.357   5.994 -0.0095  0.0035 -0.0809
  710POPI   C2B10956   7.405   8.264   6.393 -0.1391 -0.1161  0.2994
  710POPI   C3B10957   7.663   8.471   6.772  0.0349  0.1880  0.0565
  710POPI   C4B10958   8.019   8.298   6.858 -0.3457  0.2174  0.0171
  711POPI    C110959   8.876   6.348   5.008  0.0307  0.3271 -0.0510
  711POPI    C210960   8.649   6.087   4.808  0.2162 -0.0493  0.2182
  711POPI    C310961   8.514   6.457   4.877  0.0162 -0.0150 -0.3090
  711POPI   PO410962   8.885   6.296   5.216  0.1869  0.1398 -0.2111
  711POPI   GL110963   8.841   6.358   5.579 -0.1890 -0.0195  0.0332
  711POPI   GL210964   8.702   6.587   5.740  0.2987 -0.3294  0.0898
  711POPI   C1A10965   9.130   6.068   5.843  0.3325  0.0002 -0.0657
  711POPI   D2A10966   9.258   5.928   6.321 -0.1126 -0.1279 -0.0745
  711POPI   C3A10967   9.669   5.737   6.417  0.1048  0.0198  0.1620
  711POPI   C4A10968  10.084   5.896   6.592  0.0379  0.0096 -0.3317
  711POPI   C1B10969   8.745   6.276   6.030 -0.2424 -0.2515 -0.0815
  711POPI   C2B10970   8.852   6.234   6.458 -0.0165 -0.1092  0.2055
  711POPI   C3B10971   8.790   6.240   6.864 -0.0444 -0.1486  0.0713
  711POPI   C4B10972   8.840   6.462   7.357 -0.0824  0.1502 -0.1103
  712POPI    C110973  11.481  12.363   5.354  0.0941  0.0200  0.1160
  712POPI    C210974  11.778  12.350   5.087 -0.0011  0.1795  0.0000
  712POPI    C310975  11.806  12.591   5.405  0.0430  0.1088  0.0499
  712POPI   PO410976  11.456  12.143   5.412 -0.0319 -0.1105  0.0282
  712POPI   GL110977  11.774  11.860   5.742  0.4070  0.0364  0.2170
  712POPI   GL210978  11.817  12.284   5.834  0.0768  0.1453 -0.0064
  712POPI   C1A10979  11.459  12.085   6.086  0.1109 -0.0129 -0.1499
  712POPI   D2A10980  11.260  12.052   6.390  0.0276 -0.2495 -0.1119
  712POPI   C3A10981  10.792  11.985   6.621 -0.1900 -0.0223  0.1173
  712POPI   C4A10982  10.490  11.569   6.644  0.1803  0.1706 -0.0523
  712POPI   C1B10983  11.679  12.494   6.346 -0.4383  0.0767 -0.1220
  712POPI   C2B10984  11.693  12.598   6.752 -0.0008  0.4074 -0.1288
  712POPI   C3B10985  11.398  12.511   6.991  0.0994  0.0346 -0.0758
  712POPI   C4B10986  11.240  12.220   6.919 -0.0585 -0.0130 -0.3384
  713POPI    C110987   1.326  17.649   4.868  0.1456  0.2666 -0.0813
  713POPI    C210988   1.513  17.814   4.555  0.1073  0.1008 -0.1928
  713POPI    C310989   1.264  17.505   4.499 -0.1205  0.2528 -0.0333
  713POPI   PO410990   1.506  17.574   5.027  0.0125  0.0018  0.0433
  713POPI   GL110991   1.484  17.582   5.413  0.4026  0.1924  0.2082
  713POPI   GL210992   1.742  17.472   5.539  0.2648  0.0199  0.3591
  713POPI   C1A10993   1.194  17.494   5.685  0.3242  0.0798  0.1571
  713POPI   D2A10994   1.143  17.901   5.960  0.0609 -0.0455 -0.0280
  713POPI   C3A10995   1.394  17.963   6.221  0.2091 -0.1598  0.2020
  713POPI   C4A10996   1.670  18.098   6.459  0.1309  0.0121  0.0652
  713POPI   C1B10997   1.802  17.599   5.927 -0.1245 -0.0187  0.1911
  713POPI   C2B10998   1.529  17.529   6.369 -0.2539 -0.1816  0.0676
  713POPI   C3B10999   1.168  17.615   6.522  0.5058  0.1532  0.1606
  713POPI   C4B11000   0.905  17.928   6.381 -0.0891 -0.1179 -0.0728
  714POPI    C111001  17.677  15.606   5.426 -0.0992  0.1028  0.2904
  714POPI    C211002  17.417  15.856   5.252  0.1192  0.0817 -0.0770
  714POPI    C311003  17.291  15.506   5.400 -0.1086  0.2020  0.0180
  714POPI   PO411004  17.814  15.789   5.573  0.0067 -0.2569 -0.1039
  714POPI   GL111005  17.910  15.733   5.988  0.1581  0.2023  0.2614
  714POPI   GL211006  17.600  15.665   6.071  0.4621  0.1522 -0.0427
  714POPI   C1A11007  17.997  15.904   6.484  0.0879  0.0025  0.1107
  714POPI   D2A11008  17.998  16.043   6.894 -0.2263 -0.0538 -0.3547
  714POPI   C3A11009  17.726  16.456   7.139  0.1923  0.0399  0.0710
  714POPI   C4A11010  17.370  16.794   7.228 -0.0786  0.4497 -0.2205
  714POPI   C1B11011  17.539  15.554   6.467  0.2816 -0.0767 -0.0887
  714POPI   C2B11012  17.227  15.650   6.839 -0.0363 -0.1783 -0.1333
  714POPI   C3B11013  16.897  15.412   7.097  0.2790 -0.2362 -0.0848
  714POPI   C4B11014  16.626  15.393   7.417  0.2333 -0.2499  0.0047
  715POPI    C111015   3.470  13.839   4.886 -0.2002 -0.0895  0.1961
  715POPI    C211016   3.798  13.775   4.666 -0.1692  0.2271  0.1457
  715POPI    C311017   3.490  13.521   4.644  0.0324 -0.0194  0.1204
  715POPI   PO411018   3.526  13.915   5.064 -0.1005  0.5234  0.0776
  715POPI   GL111019   3.288  13.882   5.463 -0.0591 -0.0675  0.0774
  715POPI   GL211020   3.057  13.657   5.551 -0.1912  0.1282 -0.1141
  715POPI   C1A11021   2.959  14.072   5.713 -0.1488 -0.0954  0.3845
  715POPI   D2A11022   2.679  14.355   5.808  0.2821 -0.2142  0.0360
  715POPI   C3A11023   2.867  14.716   5.695  0.3428 -0.0276  0.0568
  715POPI   C4A11024   3.187  14.790   5.755  0.2108 -0.3149 -0.1260
  715POPI   C1B11025   2.986  13.552   5.915 -0.0076 -0.0750  0.2429
  715POPI   C2B11026   3.022  13.744   6.377  0.0253  0.1264 -0.3159
  715POPI   C3B11027   3.364  13.943   6.624  0.2186  0.0002  0.0312
  715POPI   C4B11028   3.740  14.147   6.874 -0.2067  0.0968  0.3306
  716POPI    C111029  10.784  16.982   5.254  0.0129  0.2014 -0.1968
  716POPI    C211030  10.390  16.917   5.229  0.0124  0.1474 -0.0574
  716POPI    C311031  10.594  17.035   4.906 -0.0802 -0.0312 -0.1832
  716POPI   PO411032  10.801  17.177   5.497 -0.1593 -0.2182 -0.0196
  716POPI   GL111033  10.862  17.273   5.933 -0.2233  0.0296  0.2838
  716POPI   GL211034  10.488  17.361   6.012 -0.3141 -0.0793 -0.0679
  716POPI   C1A11035  10.824  16.857   6.168 -0.4015 -0.3467 -0.0331
  716POPI   D2A11036  10.633  16.834   6.526 -0.0975  0.1157 -0.0529
  716POPI   C3A11037  10.237  16.801   6.581 -0.1599  0.1757 -0.0150
  716POPI   C4A11038  10.056  17.016   6.995  0.1927  0.2770 -0.1354
  716POPI   C1B11039  10.453  17.293   6.472  0.2928 -0.1772  0.0578
  716POPI   C2B11040  10.221  17.494   6.900  0.1391 -0.1717  0.0777
  716POPI   C3B11041   9.879  17.429   7.161  0.0763  0.4105 -0.0478
  716POPI   C4B11042   9.698  16.992   7.325 -0.2986  0.1369 -0.1818
  717POPI    C111043   4.638  17.530   4.729 -0.0803 -0.0571  0.0748
  717POPI    C211044   4.923  17.737   4.540 -0.3540  0.1877 -0.0790
  717POPI    C311045   4.987  17.356   4.643  0.0682  0.2733 -0.0074
  717POPI   PO411046   4.533  17.640   4.973 -0.3796  0.0463 -0.0694
  717POPI   GL111047   4.478  17.595   5.361  0.0679  0.1857 -0.0927
  717POPI   GL211048   4.829  17.710   5.367 -0.1577 -0.0416 -0.0842
  717POPI   C1A11049   4.531  17.505   5.867  0.1210  0.1599 -0.1487
  717POPI   D2A11050   4.160  17.692   6.148 -0.0584  0.0016 -0.1063
  717POPI   C3A11051   3.773  17.523   6.027  0.1044 -0.2335 -0.3984
  717POPI   C4A11052   3.449  17.155   5.870 -0.2114  0.1055  0.3094
  717POPI   C1B11053   4.927  17.440   5.631 -0.2256  0.1091 -0.2033
  717POPI   C2B11054   5.270  17.456   6.009  0.3785 -0.1163  0.0819
  717POPI   C3B11055   5.213  17.425   6.510  0.3743 -0.0173  0.0611
  717POPI   C4B11056   5.303  17.498   6.883 -0.0947 -0.0103  0.0501
  718POPI    C111057  11.195   1.556   4.989 -0.1395 -0.2283 -0.0586
  718POPI    C211058  11.548   1.739   4.950 -0.2283 -0.0283  0.0583
  718POPI    C311059  11.330   1.654   4.625 -0.2678  0.2376  0.0127
  718POPI   PO411060  11.102   1.773   5.195 -0.0172  0.4435  0.3532
  718POPI   GL111061  11.240   1.840   5.500  0.0372 -0.3586  0.1477
  718POPI   GL211062  11.072   1.974   5.696 -0.2487  0.1976 -0.1757
  718POPI   C1A11063  11.652   1.969   5.723  0.1770 -0.1022  0.0482
  718POPI   D2A11064  11.961   2.239   5.720 -0.2216  0.0311  0.3061
  718POPI   C3A11065  11.888   2.404   6.114  0.0367  0.1839  0.1779
  718POPI   C4A11066  12.148   2.448   6.456  0.2713  0.2851  0.4226
  718POPI   C1B11067  11.291   2.187   6.029  0.0360  0.0580  0.1027
  718POPI   C2B11068  11.381   2.340   6.400  0.2087 -0.4078 -0.0777
  718POPI   C3B11069  11.512   2.724   6.629 -0.2665  0.0990 -0.1298
  718POPI   C4B11070  11.782   2.971   7.017 -0.0431  0.2501  0.0512
  719POPI    C111071   8.147   3.925   4.763  0.1218 -0.1057 -0.0827
  719POPI    C211072   7.996   3.589   4.606  0.3863 -0.2659 -0.0005
  719POPI    C311073   8.217   3.834   4.380 -0.2036  0.1069 -0.1975
  719POPI   PO411074   7.950   3.918   5.008 -0.1194 -0.1362 -0.1239
  719POPI   GL111075   8.037   4.000   5.359 -0.1236  0.0229  0.1431
  719POPI   GL211076   8.399   3.976   5.225  0.0256 -0.2029  0.1887
  719POPI   C1A11077   7.636   4.016   5.591 -0.1006 -0.1878 -0.0269
  719POPI   D2A11078   7.403   4.331   5.717  0.1408  0.1880 -0.2912
  719POPI   C3A11079   7.215   4.329   6.086  0.0026 -0.4797  0.2579
  719POPI   C4A11080   7.363   4.343   6.555  0.1390  0.3847 -0.1339
  719POPI   C1B11081   8.429   4.325   5.469  0.2608  0.0427  0.1956
  719POPI   C2B11082   8.491   4.630   5.788  0.1759  0.0350 -0.0966
  719POPI   C3B11083   8.807   4.785   6.025  0.0262 -0.0127 -0.0230
  719POPI   C4B11084   9.190   5.107   6.053 -0.1191 -0.0527  0.0316
  720POPI    C111085  11.896   5.515   4.913 -0.0058  0.2397 -0.3380
  720POPI    C211086  11.587   5.511   5.167  0.1631 -0.0293 -0.1312
  720POPI    C311087  11.764   5.857   5.073  0.0546  0.0809  0.0632
  720POPI   PO411088  12.026   5.307   5.107  0.2345  0.0760 -0.0477
  720POPI   GL111089  12.306   5.262   5.400  0.0861  0.1306 -0.1809
  720POPI   GL211090  12.574   5.115   5.285  0.0626 -0.2686 -0.2504
  720POPI   C1A11091  12.018   5.017   5.774 -0.2543 -0.0276  0.2281
  720POPI   D2A11092  11.867   5.037   6.177 -0.0361 -0.1261 -0.0560
  720POPI   C3A11093  11.947   4.717   6.445 -0.1152 -0.1291  0.4172
  720POPI   C4A11094  12.250   4.344   6.493  0.0246 -0.1300  0.2776
  720POPI   C1B11095  12.857   4.929   5.559 -0.1407 -0.2196  0.1628
  720POPI   C2B11096  13.024   4.963   5.990 -0.0895  0.0733 -0.0889
  720POPI   C3B11097  13.212   4.866   6.289  0.2488 -0.0218  0.1578
  720POPI   C4B11098  13.676   4.720   6.302 -0.3161  0.0911  0.1331
  721POPI    C111099   8.990   4.949   4.587  0.1127 -0.1964 -0.1186
  721POPI    C211100   8.595   5.016   4.582  0.1262 -0.1168 -0.1219
  721POPI    C311101   8.748   4.706   4.380  0.0717 -0.1134 -0.1687
  721POPI   PO411102   9.043   5.047   4.809 -0.0791 -0.1413  0.1078
  721POPI   GL111103   9.043   4.922   5.263  0.0247 -0.0779  0.0754
  721POPI   GL211104   8.855   4.665   5.369  0.0264  0.1440  0.1394
  721POPI   C1A11105   8.710   5.117   5.590  0.1083 -0.1623 -0.0114
  721POPI   D2A11106   8.486   5.288   5.970 -0.3105  0.3095 -0.2696
  721POPI   C3A11107   8.788   5.214   6.349  0.2293 -0.0125  0.3339
  721POPI   C4A11108   9.176   5.422   6.404  0.0390 -0.1071 -0.2402
  721POPI   C1B11109   8.991   4.411   5.730 -0.0557 -0.3395 -0.1630
  721POPI   C2B11110   9.009   4.160   6.078 -0.2820 -0.1926 -0.1178
  721POPI   C3B11111   8.605   3.971   6.233  0.0300 -0.1841 -0.1270
  721POPI   C4B11112   8.209   3.950   6.464 -0.0962 -0.1733  0.0226
  722POPI    C111113  11.920  11.068   5.347  0.2828  0.2530 -0.0711
  722POPI    C211114  11.622  11.229   5.134  0.3028  0.2669 -0.0887
  722POPI    C311115  11.765  11.420   5.455  0.2129  0.2040 -0.0109
  722POPI   PO411116  11.902  10.730   5.335 -0.0321  0.0341 -0.2356
  722POPI   GL111117  11.814  10.582   5.728  0.0921  0.0128  0.3835
  722POPI   GL211118  11.873  10.253   5.864 -0.0743 -0.3133 -0.0922
  722POPI   C1A11119  11.384  10.588   5.909  0.1442  0.0065 -0.0844
  722POPI   D2A11120  10.879  10.558   5.945 -0.0400  0.2877 -0.2295
  722POPI   C3A11121  10.707  10.621   6.412 -0.1317  0.3605 -0.0351
  722POPI   C4A11122  10.591  10.582   6.847  0.1156 -0.1140  0.2992
  722POPI   C1B11123  11.555  10.142   6.168  0.0814  0.0842 -0.0113
  722POPI   C2B11124  11.513   9.870   6.530 -0.0539 -0.0394 -0.0676
  722POPI   C3B11125  11.502   9.911   7.045 -0.0137  0.1642  0.0222
  722POPI   C4B11126  11.452  10.273   7.220  0.3776  0.2291  0.3748
  723POPI    C111127   1.894  19.393   4.815  0.0093 -0.0497  0.1390
  723POPI    C211128   1.741  19.147   5.091 -0.0497 -0.0974  0.0640
  723POPI    C311129   1.589  19.152   4.721  0.0464 -0.0525  0.0248
  723POPI   PO411130   1.906  19.687   4.938  0.0074  0.0355  0.0957
  723POPI   GL111131   2.163  19.585   5.371 -0.3273 -0.1586  0.1013
  723POPI   GL211132   2.457  19.777   5.444  0.4070  0.2209  0.3064
  723POPI   C1A11133   2.146  19.550   5.820  0.1334 -0.0593 -0.0645
  723POPI   D2A11134   2.084  19.893   6.186  0.3950 -0.0634  0.0634
  723POPI   C3A11135   1.831  19.846   6.470  0.0400  0.1900  0.0222
  723POPI   C4A11136   1.553  20.256   6.715 -0.2081 -0.1809 -0.2223
  723POPI   C1B11137   2.636  19.578   5.895 -0.2922  0.4652  0.2172
  723POPI   C2B11138   2.636  19.253   6.159 -0.0206  0.0160 -0.2288
  723POPI   C3B11139   2.368  18.976   6.401  0.2534  0.0729  0.1128
  723POPI   C4B11140   2.331  18.650   6.667  0.1134 -0.1449 -0.0671
  724POPI    C111141  15.002  18.692   4.874  0.0005 -0.1236  0.1516
  724POPI    C211142  14.646  18.599   4.716 -0.0062 -0.1103  0.1591
  724POPI    C311143  14.728  18.978   4.814 -0.0747 -0.1486  0.3686
  724POPI   PO411144  15.049  18.522   4.999  0.3432  0.0923  0.0731
  724POPI   GL111145  14.987  18.478   5.476  0.2567 -0.0357  0.1490
  724POPI   GL211146  15.286  18.560   5.580 -0.1917  0.1099  0.0834
  724POPI   C1A11147  14.695  18.288   5.732 -0.0085 -0.2025 -0.0861
  724POPI   D2A11148  14.417  18.293   6.047  0.0632  0.0455 -0.1179
  724POPI   C3A11149  14.346  18.252   6.432 -0.2676  0.1851 -0.0573
  724POPI   C4A11150  13.921  18.329   6.740  0.1758 -0.2604 -0.4132
  724POPI   C1B11151  15.152  18.230   5.835 -0.0775  0.0121  0.1728
  724POPI   C2B11152  15.412  18.060   6.102 -0.3812  0.0918 -0.0746
  724POPI   C3B11153  15.539  17.919   6.487 -0.1593 -0.2250 -0.3273
  724POPI   C4B11154  15.387  17.645   6.727  0.0881  0.2090  0.1650
  725POPI    C111155  17.792  19.018   5.108 -0.1035 -0.0927  0.1123
  725POPI    C211156  17.449  19.090   4.915 -0.0481  0.1007  0.0834
  725POPI    C311157  17.543  19.301   5.242  0.0417  0.0448  0.0939
  725POPI   PO411158  17.814  18.695   5.097  0.2165  0.0198 -0.2170
  725POPI   GL111159  17.839  18.502   5.597  0.0533 -0.1158  0.0491
  725POPI   GL211160  17.975  18.078   5.600 -0.2422 -0.1140 -0.2262
  725POPI   C1A11161  18.033  18.808   5.936 -0.3699 -0.1519  0.0624
  725POPI   D2A11162  18.396  19.025   5.995  0.4005  0.2108  0.1418
  725POPI   C3A11163  18.465  19.309   6.434  0.1121 -0.2373 -0.0313
  725POPI   C4A11164  18.563  19.578   6.631 -0.1560  0.0536 -0.0443
  725POPI   C1B11165  17.877  18.299   6.010 -0.0234  0.1478  0.0448
  725POPI   C2B11166  18.104  18.523   6.505  0.0456  0.2651 -0.1356
  725POPI   C3B11167  18.273  18.477   6.850 -0.0044 -0.4362 -0.2155
  725POPI   C4B11168  18.434  18.174   7.261 -0.1356  0.2622  0.2610
  726POPI    C111169   1.331   5.192   4.962 -0.0681  0.0168  0.0032
  726POPI    C211170   1.108   5.417   5.206 -0.1917 -0.0509 -0.0463
  726POPI    C311171   1.006   5.378   4.822 -0.0570 -0.0297 -0.0851
  726POPI   PO411172   1.366   4.956   5.118 -0.1083  0.0799  0.0130
  726POPI   GL111173   1.224   5.027   5.498  0.2072 -0.0066 -0.1101
  726POPI   GL211174   1.220   4.594   5.510  0.0835  0.4001  0.2836
  726POPI   C1A11175   1.210   5.422   5.672  0.0981  0.3500 -0.3074
  726POPI   D2A11176   1.162   5.405   6.175 -0.2379  0.0106  0.0842
  726POPI   C3A11177   1.009   5.799   6.293  0.1403  0.2135 -0.0130
  726POPI   C4A11178   0.623   6.059   6.176 -0.0119  0.2673 -0.1500
  726POPI   C1B11179   1.111   4.468   5.854  0.2318  0.2097  0.0244
  726POPI   C2B11180   1.298   4.451   6.259  0.0674 -0.1580  0.0161
  726POPI   C3B11181   1.266   4.433   6.739  0.0456  0.1022  0.2238
  726POPI   C4B11182   1.032   4.443   7.102  0.0564  0.0270 -0.1482
  727POPI    C111183  10.209  11.680   5.147  0.3770  0.3076 -0.1442
  727POPI    C211184  10.116  11.597   4.767  0.3340  0.2067 -0.1119
  727POPI    C311185  10.449  11.446   4.928  0.1367 -0.1006  0.0173
  727POPI   PO411186  10.093  11.554   5.361  0.0734 -0.0020  0.0034
  727POPI   GL111187  10.125  11.380   5.715  0.1081 -0.1090 -0.1400
  727POPI   GL211188  10.094  11.639   5.947 -0.0326  0.1814  0.0272
  727POPI   C1A11189   9.986  11.133   5.911 -0.1768  0.1622 -0.1691
  727POPI   D2A11190   9.776  11.058   6.162  0.1659  0.2666  0.0650
  727POPI   C3A11191   9.813  10.922   6.620 -0.2367  0.1727  0.2170
  727POPI   C4A11192  10.110  10.788   6.975 -0.1543 -0.0018  0.2639
  727POPI   C1B11193  10.109  11.399   6.295 -0.3081  0.0585 -0.1493
  727POPI   C2B11194  10.253  11.118   6.486 -0.2298 -0.0689 -0.4096
  727POPI   C3B11195  10.485  11.077   6.808 -0.0996 -0.1613 -0.0323
  727POPI   C4B11196  10.890  11.027   6.975 -0.0501  0.3106 -0.1490
  728POPI    C111197   7.592   4.322   5.113 -0.0213  0.0528  0.0192
  728POPI    C211198   7.736   4.667   4.971 -0.2778  0.1361 -0.0432
  728POPI    C311199   7.792   4.329   4.766  0.1749  0.0986  0.1319
  728POPI   PO411200   7.334   4.451   5.255 -0.1035  0.3693  0.1091
  728POPI   GL111201   7.272   4.812   5.573  0.1859 -0.2364  0.2972
  728POPI   GL211202   7.345   5.023   5.523 -0.1393  0.0912  0.0409
  728POPI   C1A11203   7.541   4.716   5.936 -0.4136 -0.2768  0.0517
  728POPI   D2A11204   7.881   4.542   6.239 -0.1469 -0.0186  0.0957
  728POPI   C3A11205   8.038   4.480   6.648 -0.0567  0.1938 -0.1458
  728POPI   C4A11206   7.984   4.469   7.053  0.1121  0.3386  0.1672
  728POPI   C1B11207   7.476   5.389   5.787 -0.0121 -0.1189  0.1336
  728POPI   C2B11208   7.475   5.570   6.259 -0.0912  0.1337  0.1803
  728POPI   C3B11209   7.426   5.451   6.664  0.0579 -0.2408 -0.3135
  728POPI   C4B11210   6.982   5.356   6.914  0.1738 -0.0577 -0.0178
  729POPI    C111211  15.820  14.612   4.931  0.0322  0.0338  0.1850
  729POPI    C211212  16.181  14.731   5.056  0.1546  0.1945 -0.3001
  729POPI    C311213  15.871  14.983   5.073  0.0772  0.0822  0.0434
  729POPI   PO411214  15.816  14.303   5.107  0.3654  0.0667  0.0812
  729POPI   GL111215  15.478  14.127   5.318  0.1908 -0.3290  0.0336
  729POPI   GL211216  15.310  13.790   5.540 -0.2232 -0.4271  0.1569
  729POPI   C1A11217  15.128  14.287   5.700  0.0333  0.0203 -0.1204
  729POPI   D2A11218  15.040  14.135   6.043  0.1649  0.0474  0.0414
  729POPI   C3A11219  15.155  14.297   6.399 -0.1765  0.0161 -0.0437
  729POPI   C4A11220  14.936  14.108   6.646 -0.1254 -0.5589  0.1661
  729POPI   C1B11221  15.566  13.969   5.851  0.2547  0.1126 -0.0123
  729POPI   C2B11222  15.633  14.264   6.175 -0.0006 -0.2434 -0.0041
  729POPI   C3B11223  15.943  14.254   6.536  0.1421 -0.2049  0.0567
  729POPI   C4B11224  16.056  14.072   6.890 -0.4584  0.0045 -0.1136
  730POPI    C111225  12.504  10.009   5.180 -0.1629 -0.0033  0.0372
  730POPI    C211226  12.742  10.002   4.859 -0.0011  0.4547  0.1404
  730POPI    C311227  12.346  10.035   4.814 -0.0416 -0.1404 -0.0261
  730POPI   PO411228  12.641  10.171   5.326 -0.0133  0.0339  0.2551
  730POPI   GL111229  12.872  10.201   5.753  0.1341  0.1094  0.0610
  730POPI   GL211230  13.015   9.897   5.792  0.3033 -0.0302  0.2097
  730POPI   C1A11231  12.862  10.257   6.224  0.3665  0.2104  0.1528
  730POPI   D2A11232  12.856   9.934   6.485 -0.1698  0.2439  0.3212
  730POPI   C3A11233  12.657   9.947   6.882 -0.2318 -0.1010  0.1435
  730POPI   C4A11234  12.625  10.203   7.254 -0.0508  0.1264  0.1246
  730POPI   C1B11235  12.740   9.471   5.742 -0.0655  0.0147  0.1496
  730POPI   C2B11236  12.576   9.165   5.816  0.0994  0.1884 -0.1589
  730POPI   C3B11237  12.195   8.926   5.745 -0.3297  0.1595 -0.1357
  730POPI   C4B11238  12.039   8.631   6.063  0.0574  0.0962 -0.1694
  731POPI    C111239   3.114   2.074   4.842  0.0716 -0.5207  0.0548
  731POPI    C211240   3.475   2.210   4.948 -0.1935  0.1159  0.1833
  731POPI    C311241   3.393   2.137   4.563  0.1060 -0.1550  0.1672
  731POPI   PO411242   3.118   1.811   5.172  0.0192 -0.1282  0.1891
  731POPI   GL111243   3.258   1.670   5.553  0.0070 -0.1518 -0.1970
  731POPI   GL211244   3.552   1.624   5.369  0.3311 -0.1367 -0.1955
  731POPI   C1A11245   3.089   1.788   5.943 -0.4143 -0.0098  0.0031
  731POPI   D2A11246   2.801   2.000   6.152  0.3310 -0.3371  0.2118
  731POPI   C3A11247   2.978   2.294   6.292 -0.0876  0.1480 -0.0367
  731POPI   C4A11248   3.222   2.579   6.543  0.0144 -0.1399 -0.0592
  731POPI   C1B11249   3.487   1.272   5.408 -0.1921  0.0205  0.1527
  731POPI   C2B11250   3.728   1.025   5.717  0.0885 -0.2453 -0.0005
  731POPI   C3B11251   3.685   0.531   5.858 -0.2287  0.4852  0.1201
  731POPI   C4B11252   3.956   0.292   5.867  0.1329  0.0181  0.1032
  732POPI    C111253  17.097  13.633   5.154 -0.0035 -0.0308  0.1793
  732POPI    C211254  17.167  13.305   5.372 -0.0796 -0.0608  0.1592
  732POPI    C311255  16.934  13.284   5.048  0.2672 -0.0780 -0.0959
  732POPI   PO411256  17.030  13.808   5.325 -0.1127 -0.2562  0.1253
  732POPI   GL111257  17.024  13.968   5.712  0.2073  0.3397 -0.0877
  732POPI   GL211258  17.266  13.706   5.746  0.1130 -0.3279  0.2629
  732POPI   C1A11259  17.135  14.210   6.043  0.1025 -0.1134  0.0466
  732POPI   D2A11260  17.063  14.231   6.437  0.2462 -0.1506 -0.0267
  732POPI   C3A11261  17.303  14.376   6.787  0.2580  0.0401  0.0011
  732POPI   C4A11262  17.592  14.325   7.042 -0.1006  0.1046 -0.5394
  732POPI   C1B11263  17.334  13.654   6.232  0.0449  0.1468  0.1086
  732POPI   C2B11264  17.513  13.434   6.550 -0.0522 -0.0008 -0.1073
  732POPI   C3B11265  17.519  13.455   7.047 -0.2497 -0.1741  0.5813
  732POPI   C4B11266  17.638  13.832   7.244 -0.1916 -0.0112  0.1334
  733POPI    C111267  19.514  13.292   4.989 -0.2441  0.0674  0.3284
  733POPI    C211268  19.284  13.570   4.816  0.1422  0.0597 -0.2248
  733POPI    C311269  19.444  13.277   4.596  0.3900 -0.1428  0.2108
  733POPI   PO411270  19.262  13.309   5.256 -0.0339  0.1874  0.2840
  733POPI   GL111271  19.102  13.061   5.406  0.0431  0.1275 -0.0571
  733POPI   GL211272  18.730  13.198   5.582 -0.1466 -0.1130  0.0552
  733POPI   C1A11273  19.124  12.758   5.846  0.1751  0.1681  0.1876
  733POPI   D2A11274  19.281  12.690   6.254 -0.1030  0.0678  0.0577
  733POPI   C3A11275  19.672  12.663   6.423  0.0315  0.4991 -0.0787
  733POPI   C4A11276  19.896  12.863   6.732 -0.2737 -0.3486 -0.2314
  733POPI   C1B11277  18.780  13.621   5.844 -0.0139  0.0662 -0.0100
  733POPI   C2B11278  18.817  13.606   6.281 -0.4434 -0.2001 -0.3176
  733POPI   C3B11279  18.622  13.823   6.541 -0.3263 -0.2451  0.1437
  733POPI   C4B11280  18.388  13.685   6.838  0.0434 -0.1879  0.2061
  734POPI    C111281  14.835  15.694   5.236  0.0480  0.1919 -0.0587
  734POPI    C211282  14.932  15.984   5.493  0.1669  0.0820  0.0217
  734POPI    C311283  14.761  16.076   5.143  0.2051  0.2484  0.0457
  734POPI   PO411284  14.688  15.569   5.387  0.0273  0.1135  0.1677
  734POPI   GL111285  14.548  15.683   5.793 -0.1081 -0.0761  0.1770
  734POPI   GL211286  14.787  15.752   5.951  0.0350 -0.0038  0.1360
  734POPI   C1A11287  14.381  15.873   6.267 -0.0819 -0.3274 -0.1058
  734POPI   D2A11288  14.075  15.847   6.628 -0.5641  0.0560  0.1776
  734POPI   C3A11289  14.178  15.560   6.880 -0.0240  0.1487 -0.0277
  734POPI   C4A11290  14.337  15.172   6.952  0.2260  0.0337  0.0565
  734POPI   C1B11291  14.970  15.813   6.328  0.1420 -0.1865 -0.2059
  734POPI   C2B11292  14.942  16.086   6.667  0.0339 -0.0139  0.3817
  734POPI   C3B11293  14.985  16.223   7.109  0.0538  0.0760  0.1900
  734POPI   C4B11294  15.123  16.295   7.426  0.1327 -0.1623 -0.0967
  735POPI    C111295   3.898   2.967   4.477  0.3844  0.1908  0.0360
  735POPI    C211296   4.062   2.668   4.268 -0.0603  0.1569 -0.2804
  735POPI    C311297   4.167   3.047   4.192  0.0825  0.1191 -0.2755
  735POPI   PO411298   3.860   2.868   4.752  0.0680 -0.4512  0.0196
  735POPI   GL111299   3.655   2.719   5.103 -0.2127  0.1386 -0.0273
  735POPI   GL211300   3.987   2.541   5.256  0.2850 -0.3760 -0.1939
  735POPI   C1A11301   3.425   2.510   5.448 -0.1454 -0.1132  0.2158
  735POPI   D2A11302   3.546   2.039   5.618 -0.0298 -0.2917 -0.5569
  735POPI   C3A11303   3.504   2.085   5.955 -0.1510 -0.4658 -0.0688
  735POPI   C4A11304   3.397   2.070   6.295 -0.0290 -0.0148 -0.1678
  735POPI   C1B11305   3.827   2.431   5.679  0.1233 -0.1568 -0.2800
  735POPI   C2B11306   4.045   2.439   6.065  0.0183 -0.0155 -0.1931
  735POPI   C3B11307   4.388   2.672   6.181 -0.2436  0.0257 -0.1795
  735POPI   C4B11308   4.916   2.583   6.264  0.1643  0.0115  0.4050
  736POPI    C111309  10.273   4.632   4.732 -0.0566 -0.0719 -0.0828
  736POPI    C211310  10.075   4.504   5.055 -0.0389  0.0012 -0.0427
  736POPI    C311311   9.880   4.565   4.711 -0.0792  0.0373 -0.0135
  736POPI   PO411312  10.547   4.477   4.805  0.5231  0.3287 -0.0898
  736POPI   GL111313  10.582   4.548   5.206  0.1179 -0.0857  0.1870
  736POPI   GL211314  10.351   4.653   5.474 -0.1108 -0.1925  0.3875
  736POPI   C1A11315  10.861   4.716   5.513  0.2758  0.3968 -0.1245
  736POPI   D2A11316  11.008   4.640   5.918  0.0118 -0.3287  0.2416
  736POPI   C3A11317  10.979   4.389   6.195 -0.0589 -0.1003  0.1348
  736POPI   C4A11318  10.789   4.143   6.461 -0.0077 -0.0917  0.1892
  736POPI   C1B11319  10.473   4.769   5.952 -0.2323  0.1598 -0.2376
  736POPI   C2B11320  10.496   4.596   6.322 -0.0825  0.1438 -0.0739
  736POPI   C3B11321  10.474   4.677   6.680 -0.0293  0.0338 -0.3221
  736POPI   C4B11322  10.691   4.873   7.030 -0.0166  0.1051  0.1698
  737POPI    C111323  12.475   8.763   4.614 -0.2669  0.0690  0.1758
  737POPI    C211324  12.693   9.097   4.598 -0.1040 -0.0424  0.0289
  737POPI    C311325  12.389   9.044   4.343 -0.0651 -0.0507 -0.0160
  737POPI   PO411326  12.519   8.796   4.982 -0.2130  0.1044  0.0972
  737POPI   GL111327  12.430   8.581   5.393  0.2015  0.1212  0.0064
  737POPI   GL211328  12.049   8.532   5.288 -0.0621  0.0921 -0.2361
  737POPI   C1A11329  12.563   8.521   5.834 -0.4294 -0.1097  0.3779
  737POPI   D2A11330  12.587   8.562   6.295  0.0447 -0.2008 -0.1252
  737POPI   C3A11331  12.346   8.451   6.534 -0.1994  0.0003 -0.0532
  737POPI   C4A11332  11.955   8.453   6.614 -0.2851 -0.2008  0.1104
  737POPI   C1B11333  12.033   8.354   5.674  0.1802 -0.1191  0.0830
  737POPI   C2B11334  12.180   8.115   5.973  0.0735 -0.3093 -0.4515
  737POPI   C3B11335  12.489   7.929   6.201  0.2174  0.0544 -0.1572
  737POPI   C4B11336  12.564   7.831   6.702 -0.0515 -0.3492  0.1454
  738POPI    C111337  13.285   1.227   5.096 -0.1736 -0.0222 -0.0597
  738POPI    C211338  13.172   1.345   4.732 -0.1502 -0.0572 -0.0785
  738POPI    C311339  13.443   1.054   4.772  0.0530  0.1348 -0.0356
  738POPI   PO411340  13.287   1.456   5.266 -0.1316 -0.0778  0.2310
  738POPI   GL111341  13.016   1.694   5.497  0.1428  0.4242  0.0767
  738POPI   GL211342  12.670   1.624   5.473  0.3227 -0.1337  0.2242
  738POPI   C1A11343  13.021   1.940   5.949 -0.0170  0.1309  0.2107
  738POPI   D2A11344  12.910   2.375   6.091 -0.2041 -0.0351  0.3648
  738POPI   C3A11345  12.668   2.641   6.486 -0.0031  0.2791  0.1280
  738POPI   C4A11346  12.693   2.940   6.868 -0.1248  0.1182  0.0633
  738POPI   C1B11347  12.703   1.512   5.926  0.1234  0.1043  0.0953
  738POPI   C2B11348  12.933   1.360   6.308 -0.3622  0.1568  0.1105
  738POPI   C3B11349  13.269   1.262   6.580 -0.2153 -0.1430  0.0597
  738POPI   C4B11350  13.510   1.412   6.861  0.1338  0.1595 -0.0080
  739POPI    C111351  17.813   7.456   5.370 -0.0621  0.0643  0.0654
  739POPI    C211352  17.670   7.824   5.305  0.0540  0.1098  0.0663
  739POPI    C311353  17.946   7.671   5.060 -0.2411 -0.1097 -0.1346
  739POPI   PO411354  17.558   7.283   5.405  0.1544 -0.1825 -0.2468
  739POPI   GL111355  17.514   7.133   5.815 -0.1341 -0.0932  0.0549
  739POPI   GL211356  17.830   7.279   5.853  0.0980 -0.0864 -0.0447
  739POPI   C1A11357  17.543   7.026   6.283  0.0085  0.1967 -0.2808
  739POPI   D2A11358  17.231   7.164   6.641 -0.2311  0.0228 -0.2330
  739POPI   C3A11359  17.401   7.407   7.066 -0.1872 -0.3150 -0.1083
  739POPI   C4A11360  17.550   7.305   7.438 -0.0064  0.0957 -0.1306
  739POPI   C1B11361  17.910   7.453   6.256 -0.0179 -0.2216 -0.0225
  739POPI   C2B11362  17.929   7.620   6.716  0.1872  0.0105 -0.0427
  739POPI   C3B11363  18.294   7.384   7.016 -0.3370 -0.1643 -0.1748
  739POPI   C4B11364  18.408   7.203   7.385  0.0259 -0.0704  0.2024
  740POPI    C111365   7.271  16.531   4.804 -0.2468  0.3285  0.0971
  740POPI    C211366   7.274  16.727   4.455 -0.0844  0.1109 -0.0263
  740POPI    C311367   7.570  16.782   4.719  0.0877 -0.1403 -0.1620
  740POPI   PO411368   7.044  16.444   4.976  0.0656 -0.1064 -0.0687
  740POPI   GL111369   7.143  16.261   5.404 -0.1511 -0.1485  0.3628
  740POPI   GL211370   7.087  16.604   5.474  0.3265  0.1537 -0.1695
  740POPI   C1A11371   7.170  16.339   5.886 -0.2447 -0.0825 -0.1995
  740POPI   D2A11372   7.402  16.380   6.234 -0.1683 -0.1543  0.1177
  740POPI   C3A11373   7.308  16.684   6.517  0.0474 -0.1701  0.1077
  740POPI   C4A11374   7.225  16.810   6.721 -0.1274  0.1667 -0.2560
  740POPI   C1B11375   6.670  16.451   5.608 -0.1204  0.1438  0.2934
  740POPI   C2B11376   6.436  16.433   6.035 -0.3487  0.1409 -0.3970
  740POPI   C3B11377   6.402  16.718   6.459  0.0291 -0.0122 -0.0649
  740POPI   C4B11378   6.391  16.555   6.939  0.3320 -0.1212  0.1820
  741POPS   CNO11379   6.271  17.321   4.608  0.0576 -0.2048  0.1329
  741POPS   PO411380   6.500  17.261   4.964 -0.3133 -0.0943 -0.0077
  741POPS   GL111381   6.401  17.019   5.357 -0.2401  0.3075  0.1523
  741POPS   GL211382   6.723  17.031   5.507  0.5020 -0.0690 -0.1348
  741POPS   C1A11383   6.291  16.772   5.669  0.0861 -0.0698 -0.1737
  741POPS   D2A11384   6.229  16.862   6.041  0.0007  0.1475  0.0907
  741POPS   C3A11385   5.919  16.868   6.436 -0.4789  0.1012  0.5626
  741POPS   C4A11386   5.921  16.731   6.956  0.0612 -0.0572  0.3061
  741POPS   C1B11387   6.715  16.885   6.001  0.0538 -0.0949  0.1430
  741POPS   C2B11388   6.873  16.670   6.290  0.0688  0.0831 -0.1826
  741POPS   C3B11389   6.832  16.494   6.753  0.1568  0.0153 -0.0204
  741POPS   C4B11390   6.881  16.674   7.149  0.2452 -0.1664 -0.1676
  742POPS   CNO11391  12.269  11.737   5.514 -0.1549 -0.1980  0.3556
  742POPS   PO411392  12.370  11.396   5.533  0.0186 -0.1522  0.1884
  742POPS   GL111393  12.089  11.244   5.802  0.0517 -0.2518 -0.0834
  742POPS   GL211394  11.723  11.397   5.946  0.1008  0.2306  0.2084
  742POPS   C1A11395  12.065  11.237   6.272 -0.0625  0.1276  0.1477
  742POPS   D2A11396  12.320  11.572   6.552  0.1778 -0.2172  0.4489
  742POPS   C3A11397  12.484  11.362   6.878 -0.0366 -0.5734 -0.2862
  742POPS   C4A11398  12.480  11.107   7.307  0.0816 -0.0168 -0.0081
  742POPS   C1B11399  11.631  11.612   6.285 -0.2797 -0.0233  0.0033
  742POPS   C2B11400  11.568  11.659   6.664 -0.2760  0.0224  0.0266
  742POPS   C3B11401  11.375  11.677   7.003 -0.3673 -0.2557 -0.3368
  742POPS   C4B11402  11.217  11.659   7.368 -0.2977 -0.0931  0.0802
  743POPS   CNO11403   8.291   0.672   5.341 -0.1770  0.0357  0.2474
  743POPS   PO411404   8.688   0.832   5.225 -0.4142 -0.2902 -0.3764
  743POPS   GL111405   8.678   0.764   5.688  0.1989  0.2145 -0.1884
  743POPS   GL211406   8.939   0.995   5.843 -0.0387  0.1249  0.4464
  743POPS   C1A11407   8.362   0.816   6.094  0.3401 -0.1862 -0.2211
  743POPS   D2A11408   7.988   0.736   6.290  0.0472  0.0024  0.0871
  743POPS   C3A11409   7.904   0.671   6.723  0.2556  0.1108  0.2095
  743POPS   C4A11410   7.660   0.668   7.123  0.1132 -0.0003  0.0428
  743POPS   C1B11411   9.176   1.013   6.248  0.0242 -0.1712 -0.0742
  743POPS   C2B11412   9.298   1.135   6.645 -0.0789  0.1275  0.0546
  743POPS   C3B11413   9.134   1.504   6.781 -0.0372  0.0302  0.0277
  743POPS   C4B11414   8.691   1.590   6.973  0.0628 -0.2557 -0.0095
  744POPS   CNO11415  11.409  16.444   5.102 -0.0960  0.0574  0.2553
  744POPS   PO411416  11.439  16.288   5.461 -0.0219  0.3060 -0.2367
  744POPS   GL111417  11.540  16.206   5.891  0.3103 -0.0181  0.1103
  744POPS   GL211418  11.638  15.870   5.739 -0.4570 -0.2543  0.1495
  744POPS   C1A11419  11.551  16.240   6.368 -0.0169 -0.1028  0.0210
  744POPS   D2A11420  11.516  16.229   6.817 -0.1510  0.0498 -0.0450
  744POPS   C3A11421  11.310  16.407   7.078  0.1243  0.3645 -0.2156
  744POPS   C4A11422  10.951  16.589   7.177  0.3441 -0.0045  0.3810
  744POPS   C1B11423  11.722  15.816   6.119 -0.0088 -0.1082 -0.0358
  744POPS   C2B11424  11.662  15.667   6.572 -0.2530 -0.1749  0.2072
  744POPS   C3B11425  11.554  15.713   6.914 -0.0179 -0.2172 -0.2323
  744POPS   C4B11426  11.618  16.000   7.224  0.1949  0.2600 -0.0770
  745POPS   CNO11427  12.113  17.315   4.852  0.2039  0.0741 -0.0026
  745POPS   PO411428  12.075  17.065   5.397  0.6324 -0.3453  0.2061
  745POPS   GL111429  12.129  17.020   5.833  0.0058 -0.3967  0.1786
  745POPS   GL211430  11.978  17.217   6.014  0.0028  0.0007 -0.1910
  745POPS   C1A11431  12.501  16.918   5.947 -0.2722  0.4448  0.0137
  745POPS   D2A11432  12.880  17.008   6.130 -0.0649 -0.1141 -0.3523
  745POPS   C3A11433  13.013  17.351   6.131 -0.0454  0.0725 -0.1350
  745POPS   C4A11434  13.118  17.700   6.160 -0.1783  0.0703 -0.1446
  745POPS   C1B11435  11.933  17.357   6.421  0.1700 -0.1639  0.1826
  745POPS   C2B11436  11.728  17.576   6.716  0.1141  0.1229 -0.0191
  745POPS   C3B11437  11.422  17.534   7.102  0.1009  0.1122  0.1991
  745POPS   C4B11438  11.008  17.624   7.286 -0.1190  0.2037 -0.2839
  746POPS   CNO11439  18.788   7.591   4.864 -0.3037  0.2455  0.2410
  746POPS   PO411440  18.730   7.749   5.248 -0.1258  0.0292 -0.0420
  746POPS   GL111441  18.811   7.862   5.658 -0.1869  0.4429 -0.0218
  746POPS   GL211442  18.488   7.771   5.788  0.0977  0.1022 -0.3750
  746POPS   C1A11443  18.740   8.111   5.975  0.2399  0.0557 -0.0217
  746POPS   D2A11444  18.786   8.145   6.351 -0.3494 -0.3232  0.0101
  746POPS   C3A11445  18.827   8.048   6.802 -0.2272  0.0117  0.1961
  746POPS   C4A11446  19.120   8.261   7.113 -0.0931  0.1176 -0.2223
  746POPS   C1B11447  18.556   7.709   6.252  0.1488 -0.1324 -0.0813
  746POPS   C2B11448  19.046   7.567   6.418  0.0224  0.0966 -0.1833
  746POPS   C3B11449  19.355   7.300   6.572 -0.3784  0.1765  0.1677
  746POPS   C4B11450  19.346   7.000   6.820 -0.0318 -0.0014 -0.4158
  747POPS   CNO11451   0.723   7.556   5.574  0.2079  0.3945 -0.0581
  747POPS   PO411452   1.018   7.691   5.237 -0.1524 -0.3400 -0.1512
  747POPS   GL111453   1.194   7.670   5.669  0.2680 -0.1413 -0.0295
  747POPS   GL211454   1.400   8.002   5.678 -0.1832  0.1628 -0.0985
  747POPS   C1A11455   1.347   7.649   6.104  0.3626 -0.3076  0.0379
  747POPS   D2A11456   1.499   7.569   6.510  0.0439 -0.2178  0.2229
  747POPS   C3A11457   1.420   7.757   6.887 -0.2057 -0.1778 -0.3650
  747POPS   C4A11458   1.324   8.139   7.022  0.0331 -0.1119 -0.0372
  747POPS   C1B11459   1.659   8.002   5.972 -0.2406  0.2383 -0.0693
  747POPS   C2B11460   1.603   8.036   6.399 -0.0462 -0.0128 -0.1075
  747POPS   C3B11461   1.734   8.378   6.738 -0.0610  0.1890 -0.2462
  747POPS   C4B11462   1.880   8.368   7.174 -0.1113  0.0867 -0.0955
  748POPS   CNO11463   2.685   4.748   5.266  0.0309  0.0117 -0.1260
  748POPS   PO411464   2.775   4.431   4.967  0.1843 -0.2333  0.1550
  748POPS   GL111465   2.958   4.229   5.309 -0.1839  0.0822  0.0512
  748POPS   GL211466   2.829   3.836   5.325 -0.1521 -0.2772  0.3778
  748POPS   C1A11467   3.044   4.062   5.740  0.0674  0.0517 -0.1479
  748POPS   D2A11468   3.190   4.036   6.054  0.1727 -0.1468  0.0373
  748POPS   C3A11469   3.063   3.957   6.493  0.1088  0.0435  0.1844
  748POPS   C4A11470   3.210   3.805   6.871  0.2312  0.1206 -0.2011
  748POPS   C1B11471   2.611   3.438   5.529  0.0388  0.2002 -0.0912
  748POPS   C2B11472   2.144   3.415   5.526  0.3521 -0.0132  0.0488
  748POPS   C3B11473   1.899   3.088   5.758  0.2127 -0.1243 -0.3884
  748POPS   C4B11474   1.935   2.722   5.910  0.2653  0.1983 -0.0081
  749POPS   CNO11475   2.400  11.174   4.690 -0.1218  0.3354  0.1231
  749POPS   PO411476   2.444  11.020   5.157  0.1104  0.0255 -0.0154
  749POPS   GL111477   2.315  11.091   5.520  0.1622  0.1611  0.0288
  749POPS   GL211478   2.234  11.392   5.522 -0.2883 -0.0910 -0.0712
  749POPS   C1A11479   1.977  11.078   5.824  0.0443 -0.0564  0.0624
  749POPS   D2A11480   1.691  11.154   6.155 -0.1679 -0.0056 -0.1118
  749POPS   C3A11481   1.257  10.949   6.324 -0.0769  0.0604 -0.0709
  749POPS   C4A11482   0.968  10.705   6.628 -0.0849 -0.0787  0.1069
  749POPS   C1B11483   2.151  11.551   5.947  0.0542  0.1302  0.3448
  749POPS   C2B11484   2.100  11.489   6.383 -0.0884  0.0151  0.3412
  749POPS   C3B11485   1.835  11.651   6.683 -0.3891 -0.0366 -0.1240
  749POPS   C4B11486   1.860  11.777   7.052 -0.2250  0.1702 -0.0505
  750POPS   CNO11487  10.128  14.468   5.731  0.3197  0.1470  0.2740
  750POPS   PO411488  10.521  14.252   5.499  0.0130  0.0018 -0.0276
  750POPS   GL111489  10.462  13.906   5.729  0.1992  0.1278  0.3079
  750POPS   GL211490  10.261  13.538   5.969 -0.0298 -0.1027  0.0750
  750POPS   C1A11491  10.627  13.823   6.111  0.3576 -0.2309 -0.2084
  750POPS   D2A11492  10.690  13.630   6.501 -0.1803 -0.0211  0.0849
  750POPS   C3A11493  10.417  13.720   6.732  0.1011  0.0555  0.1021
  750POPS   C4A11494  10.175  13.465   7.009  0.0274  0.1085 -0.2003
  750POPS   C1B11495  10.354  13.339   6.379 -0.3051  0.2124  0.2713
  750POPS   C2B11496  10.137  13.087   6.679 -0.2082 -0.0815  0.0413
  750POPS   C3B11497  10.045  12.914   7.083  0.2007 -0.2684 -0.4964
  750POPS   C4B11498   9.608  12.938   7.295 -0.2745 -0.3594  0.1736
  751POPS   CNO11499  11.315  15.845   5.188  0.0661  0.2348  0.1065
  751POPS   PO411500  11.335  15.529   5.551 -0.3247  0.1552  0.1655
  751POPS   GL111501  11.157  15.294   5.876  0.1430  0.0051  0.3282
  751POPS   GL211502  11.310  15.541   6.128  0.1533 -0.0387 -0.3737
  751POPS   C1A11503  11.145  15.077   6.266 -0.1299  0.0010  0.1730
  751POPS   D2A11504  11.209  14.905   6.660  0.1123  0.0183 -0.1015
  751POPS   C3A11505  10.908  14.890   7.036  0.2220 -0.1087 -0.0729
  751POPS   C4A11506  10.635  14.785   7.298 -0.2982 -0.1974  0.1717
  751POPS   C1B11507  11.217  15.463   6.560 -0.3511  0.1048 -0.0903
  751POPS   C2B11508  10.805  15.376   6.834 -0.1876 -0.0142 -0.1449
  751POPS   C3B11509  10.608  15.289   7.216  0.1901  0.0510  0.1966
  751POPS   C4B11510  10.616  15.373   7.629 -0.0459 -0.0231 -0.1165
  752POPS   CNO11511  19.458   4.455   4.504  0.1993 -0.1026  0.1394
  752POPS   PO411512  19.719   4.270   4.764  0.1194  0.1578  0.0218
  752POPS   GL111513  19.608   4.531   5.108  0.0382 -0.2055 -0.1183
  752POPS   GL211514  19.723   4.425   5.307 -0.1454  0.0265  0.1140
  752POPS   C1A11515  19.370   4.899   5.265  0.1599  0.0174  0.0358
  752POPS   D2A11516  19.212   4.910   5.678 -0.1270 -0.0541 -0.1275
  752POPS   C3A11517  18.887   5.039   5.800  0.0727 -0.0661 -0.1372
  752POPS   C4A11518  18.704   5.145   6.174 -0.2185 -0.0198  0.1208
  752POPS   C1B11519  20.112   4.415   5.513  0.4012 -0.0772  0.1021
  752POPS   C2B11520  20.233   4.373   5.880 -0.0950  0.0196  0.3785
  752POPS   C3B11521  20.020   4.429   6.261  0.3625  0.1354  0.1317
  752POPS   C4B11522  19.808   4.210   6.606  0.0606 -0.4339  0.1638
  753POPS   CNO11523   0.029   8.057   4.636  0.0632 -0.0589 -0.1886
  753POPS   PO411524  -0.047   8.086   5.077  0.2724 -0.0380 -0.1496
  753POPS   GL111525  -0.102   8.197   5.515 -0.0744  0.0398 -0.2649
  753POPS   GL211526  -0.353   8.181   5.714 -0.0526 -0.0114  0.3094
  753POPS   C1A11527   0.023   8.261   5.952 -0.0617  0.2040 -0.0461
  753POPS   D2A11528   0.139   8.317   6.445 -0.0611  0.1807  0.0182
  753POPS   C3A11529   0.320   8.700   6.587  0.3147 -0.2102  0.0058
  753POPS   C4A11530   0.607   8.935   6.845  0.0434 -0.0841  0.2524
  753POPS   C1B11531  -0.427   7.955   6.141  0.0285  0.2185  0.1374
  753POPS   C2B11532  -0.049   7.758   6.286 -0.1414 -0.3916 -0.1471
  753POPS   C3B11533   0.110   7.773   6.661  0.1911 -0.0061 -0.3405
  753POPS   C4B11534   0.058   7.479   6.939  0.1179 -0.2342 -0.1509
  754POPS   CNO11535  18.311   1.286   4.307 -0.2185  0.1994  0.3238
  754POPS   PO411536  18.533   1.081   4.602 -0.1090 -0.1086 -0.2730
  754POPS   GL111537  18.864   1.196   4.964  0.2087  0.1144 -0.0066
  754POPS   GL211538  19.135   0.901   5.133 -0.3539  0.1123  0.0807
  754POPS   C1A11539  18.739   1.295   5.365 -0.0731  0.1894  0.0275
  754POPS   D2A11540  18.417   1.483   5.682  0.1031  0.0642  0.0326
  754POPS   C3A11541  18.542   1.548   6.142 -0.2860  0.1421 -0.3584
  754POPS   C4A11542  18.965   1.749   6.239  0.0768 -0.2099  0.2084
  754POPS   C1B11543  19.086   0.763   5.561 -0.2772  0.0980  0.0299
  754POPS   C2B11544  19.310   0.837   5.927  0.2524  0.1322 -0.1081
  754POPS   C3B11545  19.519   0.739   6.358  0.1925 -0.1618 -0.0311
  754POPS   C4B11546  19.295   0.433   6.689  0.1329  0.0057  0.0456
  755POPS   CNO11547   4.835   7.624   5.204  0.3690  0.4870 -0.1304
  755POPS   PO411548   5.201   7.380   5.137  0.0837  0.1691 -0.1144
  755POPS   GL111549   5.118   7.147   5.521  0.0839  0.1666 -0.0340
  755POPS   GL211550   5.126   6.934   5.718 -0.0369 -0.1986 -0.0707
  755POPS   C1A11551   5.136   7.315   5.959 -0.3128 -0.4691 -0.0058
  755POPS   D2A11552   4.898   7.066   6.290  0.1208  0.0957 -0.0160
  755POPS   C3A11553   5.082   6.793   6.568 -0.2628  0.4675  0.2943
  755POPS   C4A11554   5.419   6.694   6.808 -0.0351  0.0525  0.2054
  755POPS   C1B11555   5.323   6.885   6.097 -0.2525  0.1000 -0.0705
  755POPS   C2B11556   5.792   6.775   6.236 -0.1771  0.1194 -0.2139
  755POPS   C3B11557   6.140   7.036   6.273 -0.1848  0.1860  0.0835
  755POPS   C4B11558   6.473   7.299   6.291 -0.5335  0.1688 -0.1393
  756POPS   CNO11559  15.193   4.048   5.124  0.0800 -0.2414 -0.0117
  756POPS   PO411560  15.280   4.575   5.121  0.3204  0.0946 -0.0495
  756POPS   GL111561  15.398   4.488   5.494  0.3723 -0.0795  0.0557
  756POPS   GL211562  15.298   4.683   5.688  0.1652  0.0674 -0.0039
  756POPS   C1A11563  15.779   4.416   5.832  0.1653  0.0173  0.4751
  756POPS   D2A11564  15.708   4.356   6.364  0.2684 -0.0651  0.4441
  756POPS   C3A11565  15.844   4.032   6.623 -0.0499 -0.0340 -0.1453
  756POPS   C4A11566  15.836   4.013   7.078 -0.1546 -0.0259  0.1689
  756POPS   C1B11567  15.560   4.816   6.062 -0.0807  0.0376  0.1100
  756POPS   C2B11568  15.659   5.000   6.407  0.0805  0.5402 -0.2925
  756POPS   C3B11569  15.827   5.100   6.785 -0.0684 -0.2435  0.1380
  756POPS   C4B11570  16.082   5.304   7.044 -0.1072  0.3637  0.0245
  757POPS   CNO11571  12.689  14.236   5.448  0.1034  0.1387  0.4850
  757POPS   PO411572  13.090  14.125   5.571  0.3491 -0.0596 -0.1764
  757POPS   GL111573  13.176  13.992   5.958 -0.1041 -0.3081  0.1023
  757POPS   GL211574  13.214  13.617   6.109  0.3312 -0.0828  0.2316
  757POPS   C1A11575  13.242  14.108   6.414 -0.0551  0.4700  0.1499
  757POPS   D2A11576  13.193  14.393   6.790 -0.4889 -0.1281  0.1398
  757POPS   C3A11577  13.199  14.549   7.074 -0.0515 -0.2006 -0.1086
  757POPS   C4A11578  13.146  15.028   7.234 -0.3108 -0.1334  0.3384
  757POPS   C1B11579  13.170  13.525   6.581 -0.1697  0.6360 -0.0066
  757POPS   C2B11580  13.139  13.330   7.057  0.0357 -0.0004 -0.2650
  757POPS   C3B11581  12.941  12.986   7.095 -0.1699 -0.0343  0.0253
  757POPS   C4B11582  12.989  12.680   7.386 -0.0586  0.1024  0.0475
  758POPS   CNO11583   3.673  11.550   5.242  0.3836  0.0409  0.0904
  758POPS   PO411584   3.355  11.788   5.010 -0.1405 -0.0258 -0.3220
  758POPS   GL111585   3.539  12.089   5.282  0.0676 -0.3368  0.2609
  758POPS   GL211586   3.332  12.340   5.394 -0.1806 -0.2508 -0.2011
  758POPS   C1A11587   3.861  12.301   5.492  0.2318  0.3392 -0.1556
  758POPS   D2A11588   3.817  12.692   5.646 -0.0387 -0.0832 -0.2815
  758POPS   C3A11589   3.918  12.699   6.087 -0.0606 -0.1502 -0.3238
  758POPS   C4A11590   3.909  12.727   6.471 -0.1421 -0.2605  0.1642
  758POPS   C1B11591   3.325  12.064   5.784 -0.2044 -0.0720 -0.1242
  758POPS   C2B11592   3.323  11.691   5.955 -0.3954  0.2371  0.0489
  758POPS   C3B11593   3.234  11.480   6.349  0.2045 -0.0738 -0.1327
  758POPS   C4B11594   3.013  11.295   6.693  0.0442 -0.2804  0.0519
  759POPS   CNO11595   9.047   1.581   5.072 -0.0965 -0.0708 -0.0163
  759POPS   PO411596   8.993   1.267   5.254  0.0448 -0.1432 -0.0408
  759POPS   GL111597   8.627   1.248   5.536  0.3161 -0.0476  0.2137
  759POPS   GL211598   8.354   1.162   5.443  0.0133 -0.0287  0.0487
  759POPS   C1A11599   8.517   1.461   5.823 -0.0349  0.1631  0.1767
  759POPS   D2A11600   8.588   1.918   6.065  0.2338  0.1554 -0.2022
  759POPS   C3A11601   8.413   2.238   6.315 -0.0269  0.0685 -0.0234
  759POPS   C4A11602   8.113   2.577   6.388 -0.1422  0.2430 -0.1761
  759POPS   C1B11603   8.073   1.145   5.753 -0.1440  0.1823 -0.0029
  759POPS   C2B11604   8.066   1.301   6.278 -0.3680  0.3038  0.1495
  759POPS   C3B11605   7.849   1.246   6.674  0.0765  0.4051  0.0949
  759POPS   C4B11606   7.665   1.233   7.132 -0.1844 -0.2222  0.0305
  760POPS   CNO11607   7.693  14.072   5.720 -0.0208 -0.2578 -0.2749
  760POPS   PO411608   7.509  14.502   5.628  0.1246  0.0096 -0.1799
  760POPS   GL111609   7.577  14.502   6.040 -0.2453  0.2172 -0.1516
  760POPS   GL211610   7.208  14.458   6.047  0.3183 -0.2132 -0.2218
  760POPS   C1A11611   7.803  14.477   6.369  0.1585  0.1782  0.1132
  760POPS   D2A11612   7.955  14.171   6.614 -0.1442 -0.4109 -0.1014
  760POPS   C3A11613   7.678  13.803   6.751  0.1830  0.3761 -0.6583
  760POPS   C4A11614   7.293  13.603   6.907 -0.3316 -0.0727 -0.0632
  760POPS   C1B11615   7.282  14.642   6.442  0.1474  0.1426 -0.1891
  760POPS   C2B11616   7.091  14.904   6.766  0.2356 -0.0459  0.2340
  760POPS   C3B11617   6.909  15.333   6.725 -0.2166 -0.0642  0.1046
  760POPS   C4B11618   6.570  15.508   6.949  0.1582  0.0132 -0.1400
  761POPS   CNO11619  19.531  15.157   5.418  0.3875  0.4579 -0.1414
  761POPS   PO411620  19.713  14.856   5.083 -0.0230  0.2746  0.1411
  761POPS   GL111621  19.884  14.851   5.556 -0.0511  0.3392  0.3214
  761POPS   GL211622  19.822  14.597   5.619 -0.0491 -0.2035 -0.0112
  761POPS   C1A11623  19.929  15.188   5.835  0.0014  0.2384  0.0106
  761POPS   D2A11624  20.040  15.231   6.309  0.0269 -0.1955  0.0564
  761POPS   C3A11625  19.596  15.462   6.538 -0.3777  0.0659 -0.2399
  761POPS   C4A11626  19.281  15.772   6.725  0.3652 -0.1454 -0.3033
  761POPS   C1B11627  20.120  14.343   5.808 -0.2891  0.1593 -0.2043
  761POPS   C2B11628  20.432  14.059   5.958 -0.2921 -0.1214  0.1740
  761POPS   C3B11629  20.575  14.005   6.351  0.1830 -0.1779 -0.4312
  761POPS   C4B11630  20.551  14.335   6.634  0.0617 -0.0200 -0.0647
  762POPS   CNO11631   7.708   2.462   5.087 -0.0485 -0.1821 -0.2556
  762POPS   PO411632   7.596   2.765   5.535 -0.0920  0.0665  0.1806
  762POPS   GL111633   7.543   2.552   5.852 -0.0451 -0.0282  0.2175
  762POPS   GL211634   7.209   2.428   5.938 -0.1603  0.0239  0.0110
  762POPS   C1A11635   7.692   2.232   6.288 -0.0593  0.1550  0.0780
  762POPS   D2A11636   7.724   1.786   6.510  0.0021  0.0341 -0.2967
  762POPS   C3A11637   7.407   1.562   6.656  0.0980 -0.2837  0.1930
  762POPS   C4A11638   6.963   1.610   6.691  0.2640  0.4037 -0.1956
  762POPS   C1B11639   7.356   2.572   6.315  0.0995  0.2452  0.1985
  762POPS   C2B11640   7.651   2.524   6.659  0.0799 -0.2065  0.3916
  762POPS   C3B11641   8.015   2.148   6.734  0.1608  0.0569  0.0450
  762POPS   C4B11642   8.394   2.063   7.036 -0.2456  0.1569  0.1298
  763POPS   CNO11643  12.354  18.335   5.245 -0.0893  0.2108 -0.1514
  763POPS   PO411644  12.426  17.978   5.507  0.2002  0.2294 -0.0095
  763POPS   GL111645  12.516  18.132   5.936 -0.2175 -0.1769 -0.1837
  763POPS   GL211646  12.310  18.415   5.803 -0.0781  0.1191 -0.2093
  763POPS   C1A11647  12.402  18.270   6.458  0.0176  0.0046  0.3575
  763POPS   D2A11648  12.210  18.507   6.718 -0.0511 -0.1162 -0.0207
  763POPS   C3A11649  12.235  19.038   6.782  0.2520 -0.1150  0.0988
  763POPS   C4A11650  12.234  19.253   6.531  0.1519  0.0693 -0.0489
  763POPS   C1B11651  11.976  18.293   6.115  0.0956 -0.2954  0.0244
  763POPS   C2B11652  11.849  18.109   6.449  0.0729 -0.0510  0.1106
  763POPS   C3B11653  11.984  18.036   6.765 -0.0530  0.6119  0.0440
  763POPS   C4B11654  12.358  17.814   6.869 -0.2153  0.1154  0.0804
  764POPS   CNO11655  14.921  13.531   5.226  0.4077 -0.1920  0.1253
  764POPS   PO411656  14.877  13.178   5.488  0.0422 -0.0860  0.0037
  764POPS   GL111657  15.039  13.328   5.805  0.2870  0.0500  0.1186
  764POPS   GL211658  15.455  13.420   5.822 -0.1017 -0.0511 -0.0542
  764POPS   C1A11659  15.062  13.563   6.134 -0.0011 -0.1415 -0.2287
  764POPS   D2A11660  15.202  13.692   6.501  0.0528  0.1819 -0.1345
  764POPS   C3A11661  15.153  13.666   6.888 -0.2458 -0.0569 -0.0250
  764POPS   C4A11662  14.912  13.671   7.173 -0.1485  0.0381 -0.1845
  764POPS   C1B11663  15.729  13.634   6.175  0.0304  0.0406 -0.1553
  764POPS   C2B11664  15.723  13.847   6.552  0.0426 -0.0508  0.2960
  764POPS   C3B11665  15.433  14.107   6.829  0.2397 -0.0536  0.1866
  764POPS   C4B11666  15.234  14.528   6.949 -0.1707  0.0046 -0.0713
  765POPS   CNO11667  19.361  19.431   5.235  0.1018  0.1200 -0.1780
  765POPS   PO411668  19.503  19.577   4.937  0.2363 -0.1351 -0.1320
  765POPS   GL111669  19.843  19.567   5.140  0.2356  0.2342 -0.0715
  765POPS   GL211670  19.810  19.790   5.288  0.1988  0.0933  0.0168
  765POPS   C1A11671  20.099  19.515   5.543 -0.0375 -0.1169  0.0049
  765POPS   D2A11672  20.217  19.620   6.039  0.1532  0.2651  0.1717
  765POPS   C3A11673  20.577  19.432   6.377 -0.0460 -0.0464 -0.1151
  765POPS   C4A11674  20.704  19.287   6.745 -0.0544 -0.0656 -0.0723
  765POPS   C1B11675  19.683  19.796   5.766 -0.1641  0.0623 -0.0327
  765POPS   C2B11676  19.286  19.884   6.048  0.1121  0.0561  0.0977
  765POPS   C3B11677  18.828  19.721   6.186  0.0198  0.1187 -0.4283
  765POPS   C4B11678  18.759  19.422   5.907  0.0634  0.1816 -0.0024
  766POPS   CNO11679  11.781  13.865   5.894 -0.0709 -0.1342 -0.0832
  766POPS   PO411680  12.176  13.974   5.648  0.0671 -0.0354  0.0539
  766POPS   GL111681  12.464  14.264   5.951 -0.2199 -0.0401  0.0754
  766POPS   GL211682  12.805  14.318   5.977  0.2070 -0.1169 -0.2065
  766POPS   C1A11683  12.405  14.187   6.323 -0.0756 -0.0410  0.0072
  766POPS   D2A11684  12.414  14.478   6.695  0.1376  0.3225 -0.1313
  766POPS   C3A11685  12.221  14.388   6.931  0.2642 -0.0554  0.1658
  766POPS   C4A11686  11.965  14.240   7.133 -0.0219 -0.0847 -0.1474
  766POPS   C1B11687  12.954  14.505   6.344 -0.2586  0.1693 -0.0588
  766POPS   C2B11688  12.830  14.783   6.679 -0.0058 -0.0656 -0.0043
  766POPS   C3B11689  12.693  14.810   7.133  0.1685 -0.2768  0.1578
  766POPS   C4B11690  12.697  14.988   7.484 -0.0378 -0.1019  0.3083
  767POPS   CNO11691   2.989  19.622   5.005  0.1499  0.2758  0.1061
  767POPS   PO411692   2.535  19.539   5.050 -0.1854  0.1107 -0.0811
  767POPS   GL111693   2.706  19.358   5.376 -0.1853 -0.1035  0.0860
  767POPS   GL211694   2.457  19.245   5.531  0.0790  0.1486  0.3073
  767POPS   C1A11695   3.069  19.555   5.481 -0.2889  0.2189 -0.0677
  767POPS   D2A11696   3.206  19.904   5.855 -0.3316  0.0449  0.1442
  767POPS   C3A11697   3.035  19.707   6.217  0.0858  0.1292  0.0620
  767POPS   C4A11698   3.338  19.738   6.643 -0.0681  0.0394  0.2030
  767POPS   C1B11699   2.912  19.122   5.729  0.1430 -0.1433  0.3840
  767POPS   C2B11700   3.162  19.248   6.086  0.0625  0.2117  0.2894
  767POPS   C3B11701   3.066  19.224   6.569 -0.0381  0.3219  0.0738
  767POPS   C4B11702   3.148  19.397   6.974  0.0260  0.3929  0.1299
  768POPS   CNO11703   7.101   7.748   5.362 -0.2897  0.1480 -0.0743
  768POPS   PO411704   6.956   7.432   5.488  0.1287  0.1769 -0.2223
  768POPS   GL111705   6.589   7.129   5.562 -0.2468 -0.1984  0.1912
  768POPS   GL211706   6.827   6.895   5.712 -0.1154 -0.2912 -0.1441
  768POPS   C1A11707   6.402   7.178   5.815 -0.2409 -0.0139  0.1270
  768POPS   D2A11708   6.060   7.377   5.911  0.1070  0.1232  0.1393
  768POPS   C3A11709   5.926   7.462   6.306  0.2524  0.0496  0.3841
  768POPS   C4A11710   6.111   7.460   6.731  0.0915 -0.3693  0.3603
  768POPS   C1B11711   6.851   7.033   6.004 -0.4427 -0.2136 -0.0810
  768POPS   C2B11712   6.933   7.137   6.373  0.0918  0.2893  0.2284
  768POPS   C3B11713   7.154   7.093   6.787 -0.1383 -0.1065  0.0628
  768POPS   C4B11714   7.451   6.983   7.059 -0.1097 -0.1138 -0.1781
  769POPS   CNO11715  16.415   5.845   4.613 -0.0240  0.0061 -0.0125
  769POPS   PO411716  16.524   5.814   5.030 -0.0123 -0.2175  0.1051
  769POPS   GL111717  16.701   5.640   5.434 -0.1098  0.2325  0.5272
  769POPS   GL211718  16.417   5.615   5.508 -0.0669 -0.1784 -0.0405
  769POPS   C1A11719  16.966   5.559   5.804 -0.0175 -0.1907  0.0834
  769POPS   D2A11720  17.295   5.285   5.880  0.2826  0.0818 -0.0359
  769POPS   C3A11721  17.288   5.260   6.286 -0.2806 -0.1302  0.1708
  769POPS   C4A11722  17.311   5.087   6.745 -0.2968 -0.1626 -0.2713
  769POPS   C1B11723  16.486   5.526   5.925  0.2735  0.2022 -0.2655
  769POPS   C2B11724  16.728   5.372   6.279 -0.1440 -0.0101 -0.0358
  769POPS   C3B11725  16.910   5.606   6.583 -0.2322  0.5588 -0.0915
  769POPS   C4B11726  16.913   5.746   6.973 -0.2424 -0.1711  0.2391
  770POPS   CNO11727   2.676  14.958   5.197  0.4107  0.2620  0.1918
  770POPS   PO411728   2.335  15.104   5.499  0.1374 -0.3261  0.1564
  770POPS   GL111729   1.985  15.081   5.831  0.2358 -0.0862 -0.0015
  770POPS   GL211730   1.553  15.022   5.779  0.1594  0.0771 -0.4028
  770POPS   C1A11731   1.927  15.077   6.366 -0.1061 -0.2139  0.0508
  770POPS   D2A11732   1.722  15.525   6.513  0.0317 -0.0202 -0.0504
  770POPS   C3A11733   1.798  15.882   6.889  0.2123  0.2000 -0.0035
  770POPS   C4A11734   1.854  16.292   6.754 -0.1284  0.0065 -0.0479
  770POPS   C1B11735   1.589  14.762   6.207  0.0346  0.0739  0.1689
  770POPS   C2B11736   1.755  14.590   6.663 -0.0842 -0.0029 -0.1787
  770POPS   C3B11737   2.013  14.282   6.837  0.0402 -0.0684 -0.0477
  770POPS   C4B11738   2.165  14.028   7.043  0.1917 -0.0826 -0.0340
  771POPS   CNO11739   0.323   0.964   4.878 -0.1490 -0.2309  0.1901
  771POPS   PO411740   0.279   0.659   5.107  0.2645  0.0462  0.2906
  771POPS   GL111741   0.250   0.591   5.578 -0.0772  0.1337  0.2672
  771POPS   GL211742   0.521   0.484   5.801  0.1420  0.3308  0.3662
  771POPS   C1A11743   0.267   0.856   5.955 -0.0496  0.2271  0.1363
  771POPS   D2A11744   0.396   0.789   6.455  0.0038 -0.0426  0.1155
  771POPS   C3A11745   0.747   0.923   6.520 -0.0900  0.0394  0.0743
  771POPS   C4A11746   0.955   1.256   6.231  0.0626  0.1540 -0.1664
  771POPS   C1B11747   0.258   0.351   6.200 -0.3195 -0.1230  0.2489
  771POPS   C2B11748  -0.038  -0.014   6.363 -0.3412 -0.2175 -0.3883
  771POPS   C3B11749  -0.475   0.007   6.596 -0.0942 -0.1169 -0.0950
  771POPS   C4B11750  -0.680   0.100   6.948 -0.2360  0.0826  0.0029
  772POPS   CNO11751   7.949  11.810   5.038 -0.2346 -0.4354 -0.5271
  772POPS   PO411752   7.921  11.410   5.229  0.2561 -0.0813  0.1926
  772POPS   GL111753   7.630  11.356   5.616  0.2406 -0.1511 -0.0198
  772POPS   GL211754   7.287  11.526   5.693 -0.0007  0.1447  0.0708
  772POPS   C1A11755   7.710  11.136   6.009  0.0152 -0.1882  0.1201
  772POPS   D2A11756   7.818  10.961   6.409  0.1022  0.0854  0.0774
  772POPS   C3A11757   7.732  11.115   6.805  0.0757  0.0603  0.1212
  772POPS   C4A11758   7.639  11.317   7.202  0.2432  0.0969  0.2814
  772POPS   C1B11759   7.491  11.696   6.032 -0.5266  0.3165 -0.0064
  772POPS   C2B11760   7.702  11.930   6.391  0.2110 -0.3437 -0.1237
  772POPS   C3B11761   7.720  11.807   6.800 -0.1652 -0.0900  0.1912
  772POPS   C4B11762   7.857  11.815   7.184 -0.0325 -0.0721 -0.0299
  773POPS   CNO11763   3.081  12.821   4.711 -0.2342  0.6670 -0.0749
  773POPS   PO411764   3.099  13.006   5.137  0.3585  0.0649 -0.0061
  773POPS   GL111765   3.294  12.919   5.557  0.0401  0.2323  0.1808
  773POPS   GL211766   3.178  13.118   5.731 -0.1503  0.0650 -0.0426
  773POPS   C1A11767   3.393  12.629   5.947 -0.1637 -0.1861  0.1067
  773POPS   D2A11768   3.322  12.390   6.187  0.1119 -0.2962  0.2815
  773POPS   C3A11769   3.102  12.519   6.696  0.0849 -0.0726 -0.2336
  773POPS   C4A11770   2.750  12.159   6.828 -0.2863  0.1664 -0.0452
  773POPS   C1B11771   3.347  13.295   6.221  0.0802  0.0748  0.0126
  773POPS   C2B11772   3.352  13.376   6.643  0.0862  0.1823  0.1059
  773POPS   C3B11773   3.561  13.557   6.993  0.1891  0.0295  0.3155
  773POPS   C4B11774   3.465  13.841   7.143  0.0106 -0.0524 -0.0957
  774POPS   CNO11775  10.186   2.029   5.273  0.1206 -0.0187  0.1353
  774POPS   PO411776   9.835   1.815   5.171 -0.0199  0.2126 -0.0622
  774POPS   GL111777   9.896   1.634   5.566  0.0585 -0.3430  0.1833
  774POPS   GL211778  10.234   1.567   5.580  0.1392  0.0943 -0.2086
  774POPS   C1A11779   9.748   1.795   5.868  0.1425  0.0639  0.1574
  774POPS   D2A11780   9.837   2.090   6.112  0.1606  0.4265 -0.0564
  774POPS   C3A11781   9.783   2.515   6.008 -0.2588 -0.2570 -0.0252
  774POPS   C4A11782   9.526   2.709   5.850  0.1877  0.0174 -0.1794
  774POPS   C1B11783  10.304   1.799   5.970  0.0033 -0.2648 -0.0815
  774POPS   C2B11784  10.365   1.798   6.430  0.1364  0.1245 -0.0778
  774POPS   C3B11785  10.525   2.062   6.769 -0.0864 -0.2374  0.0274
  774POPS   C4B11786  10.904   2.347   6.715  0.0910  0.0638 -0.0212
  775POPS   CNO11787  14.876   6.996   5.716 -0.1147 -0.0083 -0.4749
  775POPS   PO411788  14.445   7.082   5.681 -0.0160  0.2493 -0.1328
  775POPS   GL111789  14.139   7.406   5.914 -0.0908  0.2183  0.0014
  775POPS   GL211790  14.200   7.700   5.632 -0.0555 -0.0557  0.0653
  775POPS   C1A11791  13.907   7.395   6.245  0.0321  0.0923  0.2777
  775POPS   D2A11792  13.847   7.786   6.357 -0.1846  0.1236 -0.2142
  775POPS   C3A11793  13.399   7.977   6.302  0.1530 -0.1341 -0.4832
  775POPS   C4A11794  12.963   8.068   6.205  0.0902  0.2283 -0.2538
  775POPS   C1B11795  14.397   7.868   6.057 -0.1276  0.4018 -0.0069
  775POPS   C2B11796  14.339   7.755   6.426 -0.1326  0.0247 -0.0777
  775POPS   C3B11797  14.083   7.481   6.793  0.0568 -0.1809  0.0490
  775POPS   C4B11798  13.860   7.106   6.672  0.1711 -0.5151 -0.1501
  776POPS   CNO11799   2.911  19.301   4.603 -0.0315 -0.1685 -0.2300
  776POPS   PO411800   2.748  19.030   4.960 -0.1259  0.1442  0.2024
  776POPS   GL111801   2.890  18.824   5.378  0.3548 -0.0002  0.1636
  776POPS   GL211802   2.821  18.537   5.475  0.1448  0.2055  0.1858
  776POPS   C1A11803   3.199  18.752   5.813 -0.1166 -0.0910  0.2443
  776POPS   D2A11804   3.638  18.916   5.988  0.0857 -0.3169 -0.0145
  776POPS   C3A11805   3.905  18.820   6.411 -0.0394  0.0970  0.1655
  776POPS   C4A11806   3.908  18.910   6.902  0.0692  0.0850 -0.2605
  776POPS   C1B11807   2.586  18.776   5.829  0.2440 -0.0824  0.1131
  776POPS   C2B11808   2.428  18.505   6.153 -0.3099  0.1006 -0.4956
  776POPS   C3B11809   2.473  18.111   6.280 -0.0134 -0.0910  0.1039
  776POPS   C4B11810   2.548  17.867   6.604 -0.0348  0.1121  0.1478
  777POPS   CNO11811   8.559   1.726   5.332  0.1560  0.0721  0.1859
  777POPS   PO411812   8.473   2.159   5.515 -0.1813 -0.3441  0.0018
  777POPS   GL111813   8.854   2.239   5.770  0.1508  0.1596 -0.0322
  777POPS   GL211814   9.042   2.613   5.733  0.0265  0.1110 -0.2674
  777POPS   C1A11815   8.961   2.316   6.191  0.0697  0.2522 -0.2788
  777POPS   D2A11816   8.901   2.461   6.582 -0.2650 -0.1660  0.1066
  777POPS   C3A11817   8.901   2.243   7.003  0.0867  0.2939 -0.1669
  777POPS   C4A11818   9.046   2.312   7.434 -0.2683 -0.1188  0.1118
  777POPS   C1B11819   9.194   2.770   6.184  0.1129 -0.2387 -0.2257
  777POPS   C2B11820   9.625   2.808   6.429 -0.1530 -0.1857  0.2188
  777POPS   C3B11821  10.075   2.683   6.374 -0.1140 -0.1914 -0.1274
  777POPS   C4B11822  10.457   2.604   6.568 -0.0789 -0.2348 -0.2170
  778POPS   CNO11823  16.665   6.805   5.530  0.0891 -0.0521 -0.3045
  778POPS   PO411824  16.907   6.578   5.508  0.0689 -0.0550 -0.0300
  778POPS   GL111825  16.689   6.287   5.781  0.1190 -0.0484 -0.0227
  778POPS   GL211826  16.736   6.020   5.722 -0.2133  0.3698 -0.3748
  778POPS   C1A11827  16.399   6.196   6.148 -0.2134  0.3524  0.0161
  778POPS   D2A11828  16.228   6.208   6.558 -0.1530  0.0078 -0.0580
  778POPS   C3A11829  16.008   6.563   6.618  0.0572 -0.2335  0.0151
  778POPS   C4A11830  15.919   6.931   6.331 -0.1470  0.1597  0.2129
  778POPS   C1B11831  16.760   5.893   6.169  0.1647  0.2975  0.1713
  778POPS   C2B11832  16.377   5.720   6.477 -0.1685 -0.2802 -0.0078
  778POPS   C3B11833  15.976   5.651   6.729 -0.1838  0.3638 -0.1420
  778POPS   C4B11834  15.643   5.630   6.945  0.1820  0.1042 -0.2064
  779POPS   CNO11835   5.740  15.774   4.719  0.3284 -0.1964  0.0594
  779POPS   PO411836   6.096  15.840   4.803  0.0831 -0.1398  0.0296
  779POPS   GL111837   6.199  15.948   5.186  0.0182 -0.1396  0.0183
  779POPS   GL211838   6.418  15.607   5.266  0.4037 -0.3985  0.1572
  779POPS   C1A11839   6.224  16.094   5.677 -0.4084  0.1386  0.1126
  779POPS   D2A11840   6.314  15.894   6.108  0.1293  0.1690 -0.3562
  779POPS   C3A11841   5.950  15.781   6.355 -0.1226  0.2986 -0.1967
  779POPS   C4A11842   5.977  16.007   6.795 -0.1148 -0.0245  0.3726
  779POPS   C1B11843   6.592  15.735   5.626  0.0180 -0.2275 -0.2446
  779POPS   C2B11844   6.747  15.975   5.896  0.2213 -0.1012  0.0578
  779POPS   C3B11845   6.805  16.131   6.261  0.2573 -0.3131  0.1124
  779POPS   C4B11846   6.467  16.190   6.588 -0.3396  0.0079  0.2828
  780POPS   CNO11847   9.857  19.480   5.046 -0.0966  0.1490 -0.2282
  780POPS   PO411848   9.508  19.623   5.052 -0.0612  0.0382  0.0491
  780POPS   GL111849   9.571  19.605   5.481  0.3354 -0.3090  0.1200
  780POPS   GL211850   9.388  19.781   5.745  0.0767 -0.0280  0.0373
  780POPS   C1A11851   9.828  19.346   5.825  0.1377  0.0564 -0.0385
  780POPS   D2A11852   9.844  19.150   6.138  0.0990  0.2684 -0.1828
  780POPS   C3A11853   9.922  19.347   6.551 -0.3183  0.4259 -0.1117
  780POPS   C4A11854  10.110  19.711   6.612  0.0284 -0.0130  0.4333
  780POPS   C1B11855   9.412  19.693   6.147 -0.0087 -0.0710 -0.2745
  780POPS   C2B11856   9.485  19.712   6.508  0.0107  0.0121 -0.3181
  780POPS   C3B11857   9.329  19.878   6.983  0.2182  0.2348  0.0947
  780POPS   C4B11858   8.926  19.885   7.152 -0.1897 -0.2201 -0.0799
  781POPS   CNO11859  17.959   5.944   4.967  0.1896  0.0554 -0.6388
  781POPS   PO411860  17.699   5.601   5.294 -0.2280  0.0640 -0.1283
  781POPS   GL111861  17.899   5.521   5.580  0.1819  0.1612  0.2387
  781POPS   GL211862  17.967   5.804   5.930  0.2577 -0.0873  0.0151
  781POPS   C1A11863  17.796   5.301   5.959 -0.3043 -0.1311 -0.0157
  781POPS   D2A11864  17.858   5.160   6.369 -0.2890 -0.0388 -0.2384
  781POPS   C3A11865  17.890   5.518   6.675 -0.1495 -0.0196 -0.1685
  781POPS   C4A11866  17.812   5.805   6.926 -0.0591 -0.0453  0.0793
  781POPS   C1B11867  18.104   5.566   6.225 -0.3561  0.1110  0.2804
  781POPS   C2B11868  18.328   5.293   6.464  0.1642  0.3407  0.2102
  781POPS   C3B11869  18.753   5.075   6.741 -0.2850 -0.2570  0.3196
  781POPS   C4B11870  18.892   4.718   7.106  0.0812 -0.1141 -0.0239
  782POPS   CNO11871   1.183  13.953   5.565  0.1369  0.1213 -0.0205
  782POPS   PO411872   1.076  13.585   5.414 -0.2548 -0.1809  0.1989
  782POPS   GL111873   0.872  13.604   5.841 -0.0080 -0.1574 -0.0607
  782POPS   GL211874   0.699  13.456   5.751  0.0126 -0.2238  0.1259
  782POPS   C1A11875   1.061  13.515   6.228  0.0526 -0.0128  0.0229
  782POPS   D2A11876   1.029  13.388   6.769 -0.1278  0.3544  0.1665
  782POPS   C3A11877   1.229  13.689   6.977 -0.2132 -0.0613  0.1951
  782POPS   C4A11878   1.665  13.811   7.066 -0.1516  0.2200 -0.0789
  782POPS   C1B11879   0.476  13.411   6.074 -0.1885 -0.2330 -0.0504
  782POPS   C2B11880   0.319  13.050   6.119  0.2288  0.1343 -0.1090
  782POPS   C3B11881   0.557  12.626   6.261  0.2298 -0.4939  0.3197
  782POPS   C4B11882   0.646  12.297   6.365  0.1520  0.3226  0.0244
  783POPS   CNO11883   1.652  10.668   4.664 -0.2865 -0.0613 -0.2558
  783POPS   PO411884   1.689  10.659   5.138  0.2580  0.1536  0.3439
  783POPS   GL111885   1.746  10.616   5.611  0.1510 -0.0004  0.1272
  783POPS   GL211886   1.483  10.430   5.562 -0.0356  0.2707  0.2918
  783POPS   C1A11887   1.630  10.696   6.126  0.0908  0.1790 -0.3375
  783POPS   D2A11888   1.624  10.690   6.596  0.0280 -0.1377 -0.0655
  783POPS   C3A11889   1.719  10.359   6.788 -0.1777  0.1555  0.0219
  783POPS   C4A11890   1.639  10.150   7.177 -0.3000 -0.1311 -0.0544
  783POPS   C1B11891   1.467  10.155   5.904 -0.0157  0.0328 -0.2442
  783POPS   C2B11892   1.506   9.906   6.242 -0.3540 -0.2348  0.0445
  783POPS   C3B11893   1.724   9.810   6.567 -0.2800 -0.3674  0.2753
  783POPS   C4B11894   1.789   9.710   6.973 -0.2300  0.0427 -0.0446
  784POPS   CNO11895   9.393   6.857   4.686 -0.1062  0.0223 -0.0771
  784POPS   PO411896   9.241   7.129   5.102 -0.3340  0.2003  0.5091
  784POPS   GL111897   9.340   7.153   5.550 -0.1776  0.0221 -0.1201
  784POPS   GL211898   9.426   6.959   5.659 -0.1237 -0.2697  0.1288
  784POPS   C1A11899   9.480   7.341   5.993  0.2787  0.1042 -0.0516
  784POPS   D2A11900   9.453   7.670   6.295 -0.0379 -0.1022 -0.0045
  784POPS   C3A11901   9.336   8.083   6.193  0.1234 -0.0026  0.0253
  784POPS   C4A11902   9.001   8.309   6.332 -0.1067 -0.1066  0.0577
  784POPS   C1B11903   9.238   6.865   5.976 -0.1261 -0.2338  0.4561
  784POPS   C2B11904   8.896   6.836   6.168  0.3434  0.2631 -0.1281
  784POPS   C3B11905   8.479   6.620   6.431 -0.3190  0.0464  0.0138
  784POPS   C4B11906   8.304   6.511   6.745 -0.4469  0.2802 -0.0320
  785POPS   CNO11907  14.091  11.032   5.378  0.1008 -0.1221 -0.0129
  785POPS   PO411908  14.476  10.797   5.295 -0.1383 -0.2512  0.2367
  785POPS   GL111909  14.313  10.615   5.658  0.1344  0.0937  0.1043
  785POPS   GL211910  14.399  10.872   5.793 -0.0198 -0.1988 -0.1490
  785POPS   C1A11911  14.046  10.556   6.047  0.3226  0.2661 -0.1260
  785POPS   D2A11912  13.781  10.243   6.184  0.3793  0.1250  0.0513
  785POPS   C3A11913  13.797  10.245   6.572  0.2841 -0.1176 -0.1244
  785POPS   C4A11914  14.070  10.372   6.942  0.3375 -0.0942 -0.0809
  785POPS   C1B11915  14.416  11.082   6.175  0.1894  0.4153 -0.0710
  785POPS   C2B11916  14.608  11.166   6.596 -0.2994 -0.2709 -0.0730
  785POPS   C3B11917  14.638  11.350   7.120 -0.5037 -0.0848 -0.0425
  785POPS   C4B11918  14.582  11.063   7.522 -0.1305  0.0773 -0.0495
  786POPS   CNO11919   4.784   5.741   4.865  0.1787 -0.1538  0.2405
  786POPS   PO411920   5.204   5.388   4.620  0.3089 -0.0096 -0.4967
  786POPS   GL111921   5.333   5.102   4.959 -0.1315  0.3115  0.2487
  786POPS   GL211922   5.189   4.874   5.095  0.0402  0.0719 -0.1294
  786POPS   C1A11923   5.560   5.134   5.315 -0.2864  0.3527 -0.3732
  786POPS   D2A11924   5.742   5.465   5.548  0.0543  0.0560 -0.4960
  786POPS   C3A11925   5.537   5.915   5.471 -0.0023  0.1396  0.0295
  786POPS   C4A11926   5.084   5.993   5.303 -0.0383  0.4024 -0.0670
  786POPS   C1B11927   4.927   4.928   5.412 -0.1887  0.0541 -0.1362
  786POPS   C2B11928   4.907   4.831   5.834 -0.2707  0.0781  0.1238
  786POPS   C3B11929   5.211   4.898   6.135  0.0359  0.0169 -0.3225
  786POPS   C4B11930   5.604   4.923   6.336  0.1535 -0.3506 -0.0331
  787POPS   CNO11931   9.737  18.210   5.486 -0.0530  0.0979 -0.0115
  787POPS   PO411932   9.669  17.723   5.656 -0.0477 -0.1591  0.0030
  787POPS   GL111933   9.740  18.010   5.960  0.1888  0.1248  0.2198
  787POPS   GL211934   9.665  18.308   5.980 -0.3505 -0.1075 -0.2666
  787POPS   C1A11935   9.791  17.961   6.468 -0.1198  0.0372  0.1841
  787POPS   D2A11936   9.786  18.129   6.734  0.0917  0.2769 -0.1602
  787POPS   C3A11937   9.696  17.937   7.150  0.1144 -0.0363 -0.0364
  787POPS   C4A11938   9.850  17.792   7.488  0.1236 -0.3073 -0.0782
  787POPS   C1B11939   9.732  18.683   6.275 -0.3097 -0.0940 -0.0590
  787POPS   C2B11940   9.549  19.076   6.545 -0.2973  0.1415 -0.2271
  787POPS   C3B11941   9.458  19.373   6.874 -0.1539 -0.2654 -0.0582
  787POPS   C4B11942   9.358  19.380   7.367 -0.0078 -0.1022  0.4413
  788POPS   CNO11943  16.917   5.417   5.023 -0.4827  0.1071  0.1238
  788POPS   PO411944  16.889   4.944   5.233  0.1219  0.1676  0.3337
  788POPS   GL111945  16.885   5.050   5.674 -0.2014 -0.1081 -0.0844
  788POPS   GL211946  16.526   5.146   5.562  0.4583  0.2537  0.0150
  788POPS   C1A11947  17.023   4.823   6.072  0.0123 -0.3453  0.3342
  788POPS   D2A11948  17.229   4.744   6.357 -0.0953 -0.0812 -0.4226
  788POPS   C3A11949  17.132   4.333   6.479  0.2662  0.3359  0.0360
  788POPS   C4A11950  16.751   4.307   6.670 -0.0578 -0.1715  0.0431
  788POPS   C1B11951  16.518   4.989   6.112 -0.0465  0.1114  0.1419
  788POPS   C2B11952  16.733   4.884   6.477 -0.3486  0.2805 -0.0236
  788POPS   C3B11953  17.021   4.717   6.831  0.0972  0.0349  0.0048
  788POPS   C4B11954  17.141   4.444   7.115  0.0514  0.1725  0.0423
  789POPS   CNO11955   6.680   5.231   4.467  0.1377  0.3898  0.1404
  789POPS   PO411956   6.770   5.106   4.935 -0.0935 -0.1304 -0.2774
  789POPS   GL111957   6.800   5.110   5.418  0.0059  0.0584 -0.1307
  789POPS   GL211958   6.602   4.888   5.459 -0.0490 -0.1017  0.2206
  789POPS   C1A11959   6.942   5.041   5.919  0.2724  0.0919 -0.1344
  789POPS   D2A11960   7.121   5.245   6.182 -0.1617  0.4248 -0.2140
  789POPS   C3A11961   6.937   5.657   6.434  0.0962  0.0545  0.1121
  789POPS   C4A11962   6.989   6.160   6.328 -0.1558 -0.5145 -0.3218
  789POPS   C1B11963   6.395   4.859   5.989  0.0455 -0.1379 -0.0551
  789POPS   C2B11964   5.969   4.625   6.188  0.1010  0.2222  0.0139
  789POPS   C3B11965   5.511   4.473   6.116  0.2540 -0.0840 -0.3217
  789POPS   C4B11966   5.073   4.409   6.125 -0.1499  0.0169 -0.2665
  790POPS   CNO11967   8.615  14.271   5.676 -0.1123 -0.0388  0.0384
  790POPS   PO411968   8.196  14.201   5.800 -0.0579 -0.0465  0.1635
  790POPS   GL111969   8.145  14.175   6.152 -0.0723 -0.0456  0.0717
  790POPS   GL211970   8.423  14.328   6.255 -0.3505  0.0404 -0.0518
  790POPS   C1A11971   7.695  14.002   6.229  0.0224 -0.3222  0.0149
  790POPS   D2A11972   7.382  14.158   6.474 -0.3296  0.1204  0.0704
  790POPS   C3A11973   7.277  14.058   6.821 -0.1582 -0.1361  0.0842
  790POPS   C4A11974   7.331  13.926   7.296 -0.2824 -0.1773 -0.0429
  790POPS   C1B11975   8.483  14.202   6.647 -0.0519 -0.3364  0.5740
  790POPS   C2B11976   8.238  14.262   6.985 -0.1832  0.2385  0.1469
  790POPS   C3B11977   8.309  14.178   7.446  0.0054  0.1376  0.0521
  790POPS   C4B11978   8.068  13.905   7.686 -0.0490 -0.0979  0.0367
  791POPS   CNO11979  16.542   0.002   4.842  0.0681 -0.0112  0.2885
  791POPS   PO411980  17.018   0.123   5.025  0.2180 -0.0566 -0.0817
  791POPS   GL111981  16.926   0.360   5.471 -0.3166  0.2125 -0.1455
  791POPS   GL211982  17.174   0.561   5.514  0.1828 -0.2722 -0.0748
  791POPS   C1A11983  17.030   0.448   5.954  0.0353  0.0192 -0.0854
  791POPS   D2A11984  16.820   0.589   6.341  0.0711  0.1649 -0.1070
  791POPS   C3A11985  16.891   0.668   6.795 -0.2771  0.0885 -0.2444
  791POPS   C4A11986  16.647   0.869   7.122  0.0520 -0.4042 -0.0141
  791POPS   C1B11987  17.425   0.308   5.759 -0.0309  0.0878 -0.0331
  791POPS   C2B11988  17.320   0.230   6.255  0.1232 -0.2210 -0.2217
  791POPS   C3B11989  17.086  -0.238   6.361 -0.0829 -0.0099 -0.0133
  791POPS   C4B11990  16.945  -0.659   6.380  0.0498  0.0530  0.1280
  792POPS   CNO11991  10.202   6.589   5.104 -0.1626  0.0624 -0.1779
  792POPS   PO411992  10.287   6.130   5.056  0.2728 -0.0087  0.1134
  792POPS   GL111993  10.013   6.120   5.354 -0.0607  0.1211 -0.1005
  792POPS   GL211994   9.630   6.204   5.217  0.0326 -0.0066 -0.2179
  792POPS   C1A11995   9.726   6.061   5.729  0.0150  0.0661 -0.1200
  792POPS   D2A11996   9.571   5.892   5.973 -0.0215 -0.0034 -0.0991
  792POPS   C3A11997   9.270   5.577   5.847  0.0606  0.4366 -0.1562
  792POPS   C4A11998   9.433   5.185   5.539  0.5116  0.0492  0.2516
  792POPS   C1B11999   9.400   6.465   5.674  0.1223 -0.0991 -0.3188
  792POPS   C2B12000   9.285   6.414   6.183 -0.2317  0.0790 -0.1378
  792POPS   C3B12001   9.134   6.696   6.577 -0.0624  0.2235 -0.0510
  792POPS   C4B12002   9.080   6.989   6.914  0.0146 -0.0166 -0.5117
  793POPS   CNO12003  15.958  17.982   5.251  0.1661  0.0104  0.3213
  793POPS   PO412004  15.516  17.827   5.064  0.3875 -0.4204  0.2443
  793POPS   GL112005  15.622  17.704   5.555  0.0757 -0.1754  0.1982
  793POPS   GL212006  15.251  17.660   5.627  0.1042  0.1563 -0.0590
  793POPS   C1A12007  15.526  17.562   6.027  0.0866 -0.0118 -0.4066
  793POPS   D2A12008  15.696  17.404   6.393 -0.4329  0.2321 -0.0342
  793POPS   C3A12009  15.873  17.651   6.645 -0.1778  0.0001  0.0825
  793POPS   C4A12010  15.963  17.833   6.989  0.2079 -0.0062  0.2730
  793POPS   C1B12011  15.033  17.704   6.037  0.0214  0.1373 -0.2009
  793POPS   C2B12012  14.836  17.844   6.425  0.1207  0.0355  0.2359
  793POPS   C3B12013  14.602  17.925   6.757  0.0148  0.0788  0.0644
  793POPS   C4B12014  14.480  18.096   7.160  0.5370 -0.1808 -0.1230
  794POPS   CNO12015   2.273   4.438   4.833  0.1762 -0.1485 -0.0158
  794POPS   PO412016   2.250   4.888   4.841  0.0479 -0.0484 -0.0930
  794POPS   GL112017   2.118   4.745   5.228 -0.1760 -0.1053  0.1754
  794POPS   GL212018   1.722   4.655   5.217 -0.2236 -0.1107  0.1789
  794POPS   C1A12019   2.242   4.552   5.584 -0.0441 -0.0594 -0.0539
  794POPS   D2A12020   2.240   4.531   6.070  0.1474  0.5412  0.1187
  794POPS   C3A12021   2.049   4.271   6.415  0.1835 -0.1257  0.1922
  794POPS   C4A12022   2.203   4.375   6.806  0.0528  0.3498  0.3668
  794POPS   C1B12023   1.685   4.586   5.628 -0.1006 -0.2289  0.1391
  794POPS   C2B12024   1.775   4.581   6.132 -0.2842 -0.4836 -0.0706
  794POPS   C3B12025   1.727   4.531   6.687  0.0958  0.0106  0.2900
  794POPS   C4B12026   1.464   4.718   7.122 -0.4108  0.4052  0.1508
  795POPS   CNO12027   7.646  13.271   5.446  0.0082  0.2712 -0.3462
  795POPS   PO412028   7.521  13.664   5.349 -0.1209  0.0530  0.1629
  795POPS   GL112029   7.428  13.634   5.731  0.2880 -0.1481 -0.2854
  795POPS   GL212030   7.564  13.556   5.986 -0.0876 -0.1865  0.1980
  795POPS   C1A12031   7.257  13.934   5.959 -0.1225  0.0269 -0.1729
  795POPS   D2A12032   6.862  14.075   6.137  0.0184 -0.0933 -0.0773
  795POPS   C3A12033   6.555  13.882   6.444 -0.0932 -0.1820  0.0552
  795POPS   C4A12034   6.370  13.688   6.786 -0.1925 -0.1455  0.4149
  795POPS   C1B12035   7.335  13.622   6.345  0.0054  0.0396  0.1238
  795POPS   C2B12036   6.997  13.740   6.549 -0.0411 -0.1909  0.0756
  795POPS   C3B12037   6.831  13.979   6.959 -0.1583 -0.1238 -0.0458
  795POPS   C4B12038   6.893  13.994   7.441 -0.4013  0.1383 -0.1556
  796POPS   CNO12039  14.035  13.379   4.832  0.2263 -0.0563  0.2094
  796POPS   PO412040  14.270  13.287   5.201 -0.1446  0.0072  0.1874
  796POPS   GL112041  14.413  13.558   5.563 -0.2095 -0.1636 -0.1155
  796POPS   GL212042  14.436  13.331   5.845  0.0263 -0.0087 -0.1971
  796POPS   C1A12043  14.688  13.808   5.918 -0.1757  0.1021 -0.2066
  796POPS   D2A12044  14.570  13.818   6.296  0.3490  0.2414 -0.0798
  796POPS   C3A12045  14.573  13.778   6.699  0.2462 -0.0523 -0.0883
  796POPS   C4A12046  14.458  13.991   6.912  0.1031 -0.1867  0.0830
  796POPS   C1B12047  14.310  13.412   6.260  0.5076  0.0867  0.3792
  796POPS   C2B12048  14.105  13.466   6.701  0.1599  0.0685 -0.0535
  796POPS   C3B12049  13.903  13.697   6.949 -0.1778 -0.0193  0.3944
  796POPS   C4B12050  13.561  13.865   6.697  0.0906  0.0601 -0.2345
  797POPS   CNO12051  12.613   6.643   4.966  0.0200 -0.3931  0.2822
  797POPS   PO412052  12.503   6.256   5.172  0.1590 -0.0212  0.2737
  797POPS   GL112053  12.641   6.265   5.467 -0.0395 -0.0518 -0.2190
  797POPS   GL212054  12.975   6.389   5.282  0.0198  0.1017  0.2297
  797POPS   C1A12055  12.559   6.246   5.916  0.0957  0.2741  0.0331
  797POPS   D2A12056  12.480   6.408   6.392 -0.1043 -0.0771  0.2040
  797POPS   C3A12057  12.869   6.619   6.626 -0.0132  0.0435  0.0733
  797POPS   C4A12058  12.834   7.082   6.747 -0.1384  0.0395  0.2006
  797POPS   C1B12059  13.169   6.046   5.516 -0.1323  0.0048 -0.0150
  797POPS   C2B12060  12.849   5.831   5.823  0.1858 -0.1349  0.0438
  797POPS   C3B12061  12.816   5.679   6.227  0.1548 -0.1141 -0.1543
  797POPS   C4B12062  12.554   5.705   6.486  0.2670 -0.0385 -0.1052
  798POPS   CNO12063  12.104   6.932   4.364  0.2237  0.0091  0.1768
  798POPS   PO412064  12.153   6.665   4.737  0.2709  0.0848  0.3713
  798POPS   GL112065  11.983   6.730   5.128 -0.3032 -0.2398  0.0344
  798POPS   GL212066  12.301   6.777   5.438 -0.0138  0.0516  0.0608
  798POPS   C1A12067  11.850   6.675   5.489  0.0759  0.0481 -0.1567
  798POPS   D2A12068  11.924   6.542   5.921  0.0517  0.2185 -0.1257
  798POPS   C3A12069  12.246   6.782   6.161  0.0831 -0.0274 -0.0025
  798POPS   C4A12070  12.419   6.927   6.508  0.1535 -0.0936 -0.2190
  798POPS   C1B12071  12.569   6.796   5.723 -0.3167  0.0624 -0.1179
  798POPS   C2B12072  12.817   6.647   6.044  0.0751  0.0162 -0.0083
  798POPS   C3B12073  13.252   6.621   6.277 -0.0209  0.0657  0.0750
  798POPS   C4B12074  13.615   6.460   6.618 -0.2006  0.2553 -0.1616
  799POPS   CNO12075   6.575  14.154   5.378  0.1938 -0.0978  0.2964
  799POPS   PO412076   6.111  14.159   5.213  0.0890 -0.1541 -0.1110
  799POPS   GL112077   6.140  14.268   5.677 -0.3979  0.6389 -0.2659
  799POPS   GL212078   5.885  14.444   5.735 -0.0059  0.1249  0.1036
  799POPS   C1A12079   6.394  14.115   6.033 -0.3538 -0.0755  0.3544
  799POPS   D2A12080   6.462  13.603   5.980 -0.1053 -0.1061  0.0470
  799POPS   C3A12081   6.737  13.333   6.240  0.1428 -0.0996  0.1655
  799POPS   C4A12082   6.751  13.271   6.697 -0.2299  0.2776  0.1494
  799POPS   C1B12083   5.945  14.323   6.165  0.2169 -0.1360 -0.0625
  799POPS   C2B12084   6.150  14.141   6.492  0.1931 -0.1215 -0.2863
  799POPS   C3B12085   6.361  14.333   6.783 -0.4047  0.1632  0.2128
  799POPS   C4B12086   6.593  14.611   7.027  0.1602  0.0981  0.0614
  800POPS   CNO12087   0.312   9.208   5.423 -0.1520  0.0728 -0.2376
  800POPS   PO412088  -0.043   9.369   5.227 -0.3180 -0.1914 -0.0445
  800POPS   GL112089  -0.060   9.569   5.637  0.2451  0.3159  0.1433
  800POPS   GL212090  -0.044   9.885   5.628 -0.1899 -0.1732 -0.4965
  800POPS   C1A12091  -0.127   9.613   6.071 -0.0282  0.0786 -0.0624
  800POPS   D2A12092  -0.225   9.516   6.397 -0.0588  0.3010 -0.3590
  800POPS   C3A12093  -0.223   9.714   6.836 -0.0023  0.2481  0.0788
  800POPS   C4A12094  -0.030   9.525   7.224 -0.1326 -0.2618 -0.1019
  800POPS   C1B12095  -0.214  10.070   5.967 -0.0805  0.1292  0.1199
  800POPS   C2B12096  -0.188  10.506   6.056 -0.3608 -0.1736  0.1690
  800POPS   C3B12097  -0.146  10.918   6.046 -0.2797  0.0080  0.0298
  800POPS   C4B12098   0.174  11.292   6.212 -0.0353 -0.2640 -0.1327
  801POPS   CNO12099   7.070   9.130   4.558 -0.3960  0.5202 -0.0939
  801POPS   PO412100   7.008   9.371   4.905 -0.2677 -0.1515  0.2751
  801POPS   GL112101   7.087   9.478   5.282  0.2150  0.0718 -0.1765
  801POPS   GL212102   7.349   9.247   5.391 -0.0347  0.0214  0.1049
  801POPS   C1A12103   7.135   9.624   5.704  0.0080 -0.0370  0.1232
  801POPS   D2A12104   6.899   9.742   6.077 -0.0026  0.1323  0.0598
  801POPS   C3A12105   7.189   9.843   6.393 -0.0270  0.0404 -0.2247
  801POPS   C4A12106   7.435   9.968   6.703  0.1874 -0.2157  0.3039
  801POPS   C1B12107   7.082   9.106   5.825  0.1065  0.0949 -0.0662
  801POPS   C2B12108   7.402   9.022   6.099  0.2364  0.0609 -0.0859
  801POPS   C3B12109   7.359   8.956   6.416  0.1165  0.0988 -0.0632
  801POPS   C4B12110   7.223   9.000   6.902 -0.1234 -0.2977  0.1003
  802POPS   CNO12111   0.837   7.013   4.693  0.1083 -0.0910 -0.2163
  802POPS   PO412112   0.733   6.635   5.130  0.4139 -0.2480  0.0023
  802POPS   GL112113   1.021   6.644   5.488 -0.1942  0.0429 -0.4007
  802POPS   GL212114   1.296   6.465   5.350  0.0097  0.2977 -0.2634
  802POPS   C1A12115   0.941   6.410   5.950  0.2023  0.0100 -0.1535
  802POPS   D2A12116   0.951   6.448   6.372 -0.2851 -0.2957 -0.0611
  802POPS   C3A12117   0.830   6.144   6.680 -0.0940 -0.0137 -0.0496
  802POPS   C4A12118   0.874   5.761   6.938 -0.1769  0.0354  0.1002
  802POPS   C1B12119   1.432   6.659   5.682 -0.0216 -0.1961  0.1507
  802POPS   C2B12120   1.340   6.752   6.150 -0.0433 -0.0137  0.0023
  802POPS   C3B12121   1.247   6.927   6.505 -0.1214 -0.1099  0.0857
  802POPS   C4B12122   1.188   7.278   6.978  0.1762 -0.1415  0.0082
  803POPS   CNO12123   2.635   1.980   5.051  0.0580  0.1414 -0.0928
  803POPS   PO412124   2.208   2.259   4.952 -0.0508 -0.2580 -0.1285
  803POPS   GL112125   2.298   2.224   5.344 -0.0287 -0.0654 -0.3641
  803POPS   GL212126   2.554   2.346   5.368 -0.1139 -0.3294  0.0755
  803POPS   C1A12127   2.079   2.071   5.699  0.0574  0.0094 -0.1433
  803POPS   D2A12128   1.879   1.785   5.929  0.2473  0.2720  0.0747
  803POPS   C3A12129   1.936   1.310   5.695 -0.4646 -0.1350  0.2173
  803POPS   C4A12130   1.875   0.890   5.610  0.0180 -0.1180  0.3385
  803POPS   C1B12131   2.562   2.226   5.763 -0.2674  0.0262  0.1999
  803POPS   C2B12132   2.329   2.371   6.051  0.0726  0.0935 -0.1825
  803POPS   C3B12133   2.510   2.359   6.419  0.1516  0.0299 -0.0701
  803POPS   C4B12134   2.720   2.419   6.767 -0.1087  0.1461 -0.0087
  804POPS   CNO12135  10.696  18.381   5.030 -0.2051  0.1182 -0.1511
  804POPS   PO412136  10.498  18.042   5.353 -0.1743 -0.0337 -0.0778
  804POPS   GL112137  10.241  17.820   5.725 -0.0375 -0.2710 -0.1067
  804POPS   GL212138  10.166  18.111   5.768  0.1289  0.2923  0.0658
  804POPS   C1A12139  10.237  17.741   6.091  0.3131 -0.2335 -0.1492
  804POPS   D2A12140  10.507  17.963   6.158 -0.0294  0.0952  0.3156
  804POPS   C3A12141  10.734  17.733   6.384 -0.1344 -0.0547  0.0830
  804POPS   C4A12142  11.031  17.324   6.389 -0.1020  0.1061 -0.0444
  804POPS   C1B12143  10.192  18.306   5.962 -0.4354  0.0539 -0.4223
  804POPS   C2B12144  10.219  18.356   6.449 -0.2065 -0.0309  0.1584
  804POPS   C3B12145  10.363  18.484   6.858 -0.0595  0.0644 -0.0162
  804POPS   C4B12146  10.543  18.355   7.305  0.2832 -0.3563 -0.4614
  805POPS   CNO12147   8.195  17.519   4.841 -0.0145 -0.1367 -0.3167
  805POPS   PO412148   8.051  17.272   5.273 -0.1242 -0.2825  0.0016
  805POPS   GL112149   7.831  17.228   5.651  0.0795 -0.0553  0.0746
  805POPS   GL212150   7.889  16.946   5.797 -0.2552  0.0686  0.1879
  805POPS   C1A12151   7.677  17.566   6.072 -0.5237  0.0760 -0.0180
  805POPS   D2A12152   7.657  17.742   6.529 -0.2264 -0.1138  0.4889
  805POPS   C3A12153   7.331  17.972   6.722  0.3589 -0.1374 -0.1617
  805POPS   C4A12154   7.028  18.034   6.971 -0.2265  0.0236  0.2856
  805POPS   C1B12155   7.631  17.000   6.158 -0.0670 -0.0941 -0.2927
  805POPS   C2B12156   7.608  17.123   6.595  0.3530 -0.1325  0.1177
  805POPS   C3B12157   7.682  16.932   6.828 -0.2517  0.0276  0.4476
  805POPS   C4B12158   7.887  16.763   7.039 -0.0618  0.2044  0.2715
  806POPS   CNO12159  10.903   2.414   4.931  0.1289  0.1529 -0.0308
  806POPS   PO412160  10.549   2.218   5.003 -0.0913  0.2888  0.1938
  806POPS   GL112161  10.635   2.436   5.409 -0.0327  0.1787 -0.2144
  806POPS   GL212162  11.047   2.416   5.400  0.2419 -0.1253  0.0754
  806POPS   C1A12163  10.777   2.419   5.878  0.2015 -0.0572  0.2840
  806POPS   D2A12164  10.945   2.555   6.259  0.3547  0.1327  0.1654
  806POPS   C3A12165  11.024   2.839   6.471  0.0904 -0.0798 -0.0725
  806POPS   C4A12166  10.856   3.204   6.496 -0.3639 -0.0323 -0.1014
  806POPS   C1B12167  11.361   2.407   5.634 -0.3527 -0.2254  0.2059
  806POPS   C2B12168  11.675   2.670   5.747 -0.1701  0.1487  0.0132
  806POPS   C3B12169  11.598   3.140   5.771  0.0384 -0.1432 -0.1094
  806POPS   C4B12170  11.742   3.430   6.130  0.3254 -0.2111  0.0652
  807POPS   CNO12171  14.198   9.308   4.819  0.1615  0.1280 -0.0638
  807POPS   PO412172  13.863   9.342   5.148  0.2386  0.1085 -0.0733
  807POPS   GL112173  13.815   9.197   5.574 -0.0038 -0.2563 -0.2162
  807POPS   GL212174  14.095   9.309   5.687 -0.0414 -0.1199 -0.2536
  807POPS   C1A12175  13.769   9.175   6.028 -0.0072  0.1139  0.0301
  807POPS   D2A12176  13.443   9.221   6.355 -0.1163  0.1025  0.4815
  807POPS   C3A12177  13.548   8.977   6.654 -0.0502 -0.0860  0.1766
  807POPS   C4A12178  13.687   8.751   6.799 -0.1237  0.1097 -0.1332
  807POPS   C1B12179  14.455   9.417   5.955 -0.1795  0.1019 -0.0774
  807POPS   C2B12180  14.861   9.258   6.063  0.0440  0.0792  0.1150
  807POPS   C3B12181  14.933   8.854   6.276 -0.2124  0.1415 -0.1500
  807POPS   C4B12182  15.107   8.481   6.452  0.1336  0.2147  0.3433
  808POPS   CNO12183   3.753   4.578   5.179  0.0601 -0.1586  0.0584
  808POPS   PO412184   4.181   4.970   5.109 -0.0734  0.1642  0.0137
  808POPS   GL112185   4.322   5.154   5.486 -0.2067  0.2024 -0.0817
  808POPS   GL212186   4.404   4.873   5.678 -0.1089  0.1522 -0.2350
  808POPS   C1A12187   4.197   5.370   5.833  0.1760  0.0897 -0.1798
  808POPS   D2A12188   3.940   5.278   6.162  0.2498 -0.3433 -0.0225
  808POPS   C3A12189   3.928   5.450   6.543 -0.0896 -0.1100 -0.3202
  808POPS   C4A12190   4.164   5.511   6.834 -0.0288 -0.0171 -0.0123
  808POPS   C1B12191   4.508   4.825   6.087 -0.3297 -0.4103  0.3087
  808POPS   C2B12192   4.784   4.863   6.308  0.1367  0.0819 -0.1247
  808POPS   C3B12193   4.847   4.981   6.715 -0.1763 -0.0188  0.0870
  808POPS   C4B12194   4.790   5.408   6.637 -0.0254 -0.0143  0.1105
  809POPS   CNO12195  17.522   8.435   4.797 -0.2550 -0.0571 -0.4040
  809POPS   PO412196  17.832   8.245   4.893  0.2918  0.0291  0.0786
  809POPS   GL112197  17.987   8.194   5.287 -0.0486 -0.0502 -0.2367
  809POPS   GL212198  18.194   7.940   5.356 -0.2839 -0.1750  0.1253
  809POPS   C1A12199  17.760   8.290   5.686  0.0283  0.3274  0.2753
  809POPS   D2A12200  17.629   8.489   5.946 -0.0413 -0.3383 -0.2090
  809POPS   C3A12201  17.522   8.392   6.316  0.2016 -0.2515 -0.0029
  809POPS   C4A12202  17.501   8.602   6.673  0.2208  0.0515  0.0286
  809POPS   C1B12203  18.271   8.219   5.741  0.1080 -0.0064 -0.1308
  809POPS   C2B12204  18.043   8.149   6.080 -0.1184 -0.1094 -0.1351
  809POPS   C3B12205  17.724   7.956   6.315  0.0095  0.1554  0.0230
  809POPS   C4B12206  17.466   7.708   6.635 -0.0964 -0.0062 -0.0929
  810POPS   CNO12207  17.125  16.691   5.387 -0.0796  0.1784 -0.1496
  810POPS   PO412208  17.525  16.825   5.483 -0.0823 -0.3028 -0.1550
  810POPS   GL112209  17.855  16.578   5.811 -0.0503 -0.2334 -0.2443
  810POPS   GL212210  17.976  16.197   5.812 -0.5488  0.0681  0.0507
  810POPS   C1A12211  17.929  16.760   6.208 -0.2416  0.0346  0.3125
  810POPS   D2A12212  17.706  17.099   6.415 -0.0428 -0.0941 -0.0338
  810POPS   C3A12213  17.555  17.076   6.863 -0.0547  0.1587 -0.1991
  810POPS   C4A12214  17.448  17.244   7.434 -0.0414 -0.0801  0.1839
  810POPS   C1B12215  17.722  16.148   6.187 -0.0963  0.2072 -0.2062
  810POPS   C2B12216  17.541  16.041   6.631  0.1151  0.2860  0.3388
  810POPS   C3B12217  17.338  16.184   6.948  0.2185 -0.3702 -0.0694
  810POPS   C4B12218  17.053  16.424   7.236 -0.0469 -0.0082  0.1580
  811YOPS   CNO12219  13.943   6.489   4.979  0.0374  0.3076  0.0244
  811YOPS   PO412220  13.623   6.656   5.266  0.0304 -0.0447  0.0383
  811YOPS   GL112221  13.507   6.390   5.624  0.1448  0.5375 -0.3663
  811YOPS   GL212222  13.498   6.572   5.854  0.1049 -0.1409 -0.1093
  811YOPS   C1A12223  13.186   6.173   5.989  0.0043  0.2879 -0.1836
  811YOPS   D2A12224  12.962   6.156   6.380  0.0937 -0.3861  0.2387
  811YOPS   C3A12225  12.754   6.030   6.788 -0.0637  0.0274  0.2142
  811YOPS   C4A12226  12.362   5.710   7.054  0.0923  0.1367 -0.2400
  811YOPS   C1B12227  13.154   6.761   5.741  0.1247  0.0441 -0.1652
  811YOPS   C2B12228  12.977   7.155   5.679 -0.0721 -0.0717  0.1746
  811YOPS   D3B12229  12.906   7.478   5.935  0.2177 -0.0307 -0.0182
  811YOPS   C4B12230  12.680   7.884   5.655  0.0053  0.0219 -0.0087
  812YOPS   CNO12231  15.210  19.623   4.796 -0.2537 -0.1307 -0.1359
  812YOPS   PO412232  15.032  19.284   5.045 -0.0425 -0.0106  0.1522
  812YOPS   GL112233  15.017  19.087   5.388  0.1970  0.2234  0.1705
  812YOPS   GL212234  15.310  19.070   5.474  0.3498  0.1214  0.0709
  812YOPS   C1A12235  14.873  18.920   5.724  0.1472 -0.2858  0.2658
  812YOPS   D2A12236  14.817  18.689   6.023  0.0547  0.0911  0.0674
  812YOPS   C3A12237  14.756  18.765   6.504 -0.0229 -0.1183 -0.1515
  812YOPS   C4A12238  14.791  19.241   6.655  0.2296  0.1246  0.0218
  812YOPS   C1B12239  15.414  18.984   5.876  0.0829 -0.1143  0.1785
  812YOPS   C2B12240  15.179  18.861   6.260  0.1042  0.2503  0.0957
  812YOPS   D3B12241  15.237  19.062   6.537 -0.1311 -0.1398 -0.0480
  812YOPS   C4B12242  15.597  18.908   6.669 -0.2026  0.1159 -0.2005
  813YOPS   CNO12243   9.827   2.947   4.910  0.2203 -0.1054  0.2795
  813YOPS   PO412244  10.160   3.149   5.047  0.1119  0.1558 -0.0931
  813YOPS   GL112245  10.355   3.085   5.396 -0.3725  0.0672  0.0666
  813YOPS   GL212246  10.613   3.256   5.231  0.1375 -0.0118 -0.1717
  813YOPS   C1A12247  10.636   2.918   5.620 -0.1140 -0.1360 -0.0822
  813YOPS   D2A12248  11.150   2.810   5.766 -0.0299  0.0135 -0.1183
  813YOPS   C3A12249  11.371   2.710   6.106  0.0374  0.1260 -0.0407
  813YOPS   C4A12250  11.773   2.970   6.305 -0.0371  0.0770  0.2734
  813YOPS   C1B12251  10.960   3.314   5.612  0.0201 -0.1320 -0.0752
  813YOPS   C2B12252  10.872   3.212   5.932  0.2175 -0.1733 -0.0035
  813YOPS   D3B12253  10.603   2.950   6.107  0.3698  0.1908 -0.2749
  813YOPS   C4B12254  10.187   2.767   5.871  0.1054  0.1597  0.3454
  814YOPS   CNO12255  10.494  16.438   5.463 -0.1912 -0.1686 -0.2534
  814YOPS   PO412256  10.131  16.521   5.359 -0.1279  0.0552  0.1415
  814YOPS   GL112257   9.992  16.543   5.802  0.0178  0.0796  0.1403
  814YOPS   GL212258  10.320  16.389   5.971  0.5414  0.2305 -0.0479
  814YOPS   C1A12259   9.819  16.730   6.232  0.3956  0.1500  0.3579
  814YOPS   D2A12260   9.541  16.636   6.604 -0.0921  0.2037  0.0540
  814YOPS   C3A12261   9.557  16.678   6.978  0.0673  0.1788  0.0627
  814YOPS   C4A12262   9.169  16.598   7.196 -0.1158 -0.1866  0.0794
  814YOPS   C1B12263  10.275  16.402   6.376 -0.3668 -0.1214  0.1988
  814YOPS   C2B12264  10.018  16.432   6.768  0.0403 -0.1796 -0.3714
  814YOPS   D3B12265  10.004  16.455   7.126 -0.2768 -0.3113 -0.1880
  814YOPS   C4B12266  10.325  16.386   7.359  0.0935  0.1649  0.1167
  815YOPS   CNO12267  16.167  19.299   5.269 -0.1580 -0.0968  0.1083
  815YOPS   PO412268  15.996  19.569   5.024  0.0001 -0.1871  0.1165
  815YOPS   GL112269  15.835  19.720   5.398  0.0288  0.0519 -0.0664
  815YOPS   GL212270  15.810  19.474   5.600 -0.2895 -0.4807 -0.0652
  815YOPS   C1A12271  15.578  19.979   5.559  0.0374  0.1627 -0.1196
  815YOPS   D2A12272  15.339  20.249   5.897  0.1626  0.0182  0.4066
  815YOPS   C3A12273  15.356  20.117   6.214  0.0187 -0.0068 -0.0352
  815YOPS   C4A12274  15.067  20.126   6.564 -0.2244 -0.0584  0.2612
  815YOPS   C1B12275  15.583  19.475   5.881  0.1364  0.0646  0.2674
  815YOPS   C2B12276  15.398  19.635   6.273 -0.2755  0.0317  0.3053
  815YOPS   D3B12277  15.146  19.611   6.569 -0.0236  0.1406  0.0407
  815YOPS   C4B12278  15.195  19.394   7.042  0.0432  0.0502  0.4921
  816YOPS   CNO12279  15.657   8.186   4.995 -0.2034 -0.0055  0.3178
  816YOPS   PO412280  15.513   8.189   5.425  0.1417  0.1009  0.0967
  816YOPS   GL112281  15.082   8.098   5.794  0.0209  0.1117  0.1084
  816YOPS   GL212282  15.135   8.390   5.936  0.1463 -0.1057 -0.0814
  816YOPS   C1A12283  15.094   7.923   6.162  0.2411  0.2232 -0.0492
  816YOPS   D2A12284  15.323   8.000   6.587  0.0094  0.1229 -0.0647
  816YOPS   C3A12285  15.627   7.930   6.964  0.0703 -0.2026  0.0614
  816YOPS   C4A12286  15.614   7.605   7.265 -0.1714 -0.0115 -0.0381
  816YOPS   C1B12287  15.366   8.694   5.999 -0.2060 -0.0793 -0.2590
  816YOPS   C2B12288  15.790   8.826   6.258 -0.0146  0.0165 -0.4615
  816YOPS   D3B12289  15.931   9.126   6.604 -0.0230  0.0200  0.1002
  816YOPS   C4B12290  16.229   9.004   6.967 -0.2826  0.1734 -0.3266
  817YOPS   CNO12291   6.684   8.431   4.575 -0.1091  0.0870 -0.0511
  817YOPS   PO412292   6.383   8.470   4.947 -0.0955 -0.1522  0.0030
  817YOPS   GL112293   6.333   8.385   5.387  0.0512  0.2310 -0.1409
  817YOPS   GL212294   6.094   8.558   5.340  0.0622 -0.0958  0.0991
  817YOPS   C1A12295   6.103   8.102   5.573 -0.0317  0.0619  0.1657
  817YOPS   D2A12296   5.987   7.893   6.000 -0.1982  0.0298 -0.1050
  817YOPS   C3A12297   6.338   7.752   6.315 -0.1571 -0.3156  0.0263
  817YOPS   C4A12298   6.707   7.962   6.403  0.0751  0.2400  0.4153
  817YOPS   C1B12299   5.705   8.440   5.556  0.1667  0.1922  0.0564
  817YOPS   C2B12300   5.549   8.169   5.961 -0.2792  0.1871 -0.2031
  817YOPS   D3B12301   5.480   8.286   6.414  0.1683 -0.0961 -0.2877
  817YOPS   C4B12302   5.398   8.083   6.792 -0.0037  0.1505  0.2185
  818YOPS   CNO12303   0.851   9.128   5.330 -0.0622  0.0639  0.2190
  818YOPS   PO412304   1.091   9.389   5.324 -0.3301  0.1914 -0.0586
  818YOPS   GL112305   1.064   9.348   5.762 -0.2592  0.3126 -0.1138
  818YOPS   GL212306   0.901   9.548   5.770  0.2890  0.0655 -0.0655
  818YOPS   C1A12307   1.411   9.510   5.971  0.3349 -0.0485  0.2359
  818YOPS   D2A12308   1.787   9.402   6.196 -0.3102  0.1277 -0.0833
  818YOPS   C3A12309   2.095   9.783   6.275 -0.2037  0.2323 -0.3910
  818YOPS   C4A12310   1.837  10.249   6.303 -0.3303  0.2755  0.2388
  818YOPS   C1B12311   0.874   9.297   6.194  0.1288 -0.0511  0.1150
  818YOPS   C2B12312   0.779   8.903   6.379 -0.3618  0.1108 -0.2325
  818YOPS   D3B12313   0.870   8.523   6.654  0.1669 -0.0007 -0.2210
  818YOPS   C4B12314   1.285   8.440   6.532 -0.0265  0.0553  0.1374
  819YOPS   CNO12315  16.588   2.184   5.253  0.3749  0.0700  0.0821
  819YOPS   PO412316  16.733   2.625   5.104 -0.2279  0.1952 -0.2557
  819YOPS   GL112317  16.642   2.622   5.568  0.0664  0.1581 -0.1275
  819YOPS   GL212318  16.744   2.854   5.726  0.3892 -0.2307 -0.2441
  819YOPS   C1A12319  16.433   2.408   5.930  0.0804  0.1286  0.1109
  819YOPS   D2A12320  16.392   2.468   6.333  0.1082 -0.0973 -0.1236
  819YOPS   C3A12321  16.682   2.598   6.751 -0.0684 -0.3781 -0.1106
  819YOPS   C4A12322  16.702   2.270   7.082  0.4007 -0.0090 -0.0941
  819YOPS   C1B12323  16.549   2.911   6.048 -0.2156 -0.0760  0.0341
  819YOPS   C2B12324  16.326   2.994   6.390 -0.0929 -0.0621 -0.1458
  819YOPS   D3B12325  16.293   3.080   6.887  0.0059  0.1496 -0.2388
  819YOPS   C4B12326  16.670   3.145   7.226  0.2677  0.3149  0.0277
  820YOPS   CNO12327  18.895  16.082   5.281 -0.1509 -0.0081 -0.1054
  820YOPS   PO412328  18.851  16.470   5.276 -0.0326  0.1589  0.2446
  820YOPS   GL112329  18.926  16.378   5.756 -0.0292  0.1826 -0.0282
  820YOPS   GL212330  18.676  16.525   5.885 -0.2368  0.0666 -0.2743
  820YOPS   C1A12331  19.277  16.528   5.951 -0.1215 -0.2154  0.1482
  820YOPS   D2A12332  19.484  16.564   6.292 -0.1752 -0.2766 -0.2947
  820YOPS   C3A12333  19.631  16.500   6.639 -0.0509 -0.3810  0.2231
  820YOPS   C4A12334  20.082  16.437   6.712 -0.2407 -0.2495 -0.0080
  820YOPS   C1B12335  18.396  16.429   6.133  0.2632 -0.4967  0.0557
  820YOPS   C2B12336  18.506  16.050   6.400 -0.0288  0.0160 -0.0443
  820YOPS   D3B12337  18.798  15.883   6.596  0.2176 -0.2467  0.1326
  820YOPS   C4B12338  18.737  16.120   6.957  0.0838 -0.2099 -0.0491
  821YOPS   CNO12339   2.105  11.626   5.023  0.0760  0.1695 -0.1182
  821YOPS   PO412340   2.315  11.743   4.961 -0.0091 -0.1127 -0.0350
  821YOPS   GL112341   2.465  11.848   5.347  0.1052 -0.0517  0.0651
  821YOPS   GL212342   2.164  11.929   5.620 -0.1613  0.0142  0.0666
  821YOPS   C1A12343   2.651  11.780   5.732 -0.0919 -0.0490  0.1545
  821YOPS   D2A12344   2.650  11.654   6.140  0.0330  0.0122 -0.1300
  821YOPS   C3A12345   2.757  11.302   6.215 -0.1815 -0.3336 -0.0788
  821YOPS   C4A12346   2.450  11.052   5.985 -0.0670 -0.1619  0.0926
  821YOPS   C1B12347   2.146  12.048   6.139  0.1251  0.1783  0.0990
  821YOPS   C2B12348   2.016  12.186   6.608  0.1585 -0.0121  0.1760
  821YOPS   D3B12349   1.855  12.434   6.955 -0.0323 -0.2992  0.0642
  821YOPS   C4B12350   1.694  12.822   7.132  0.1789  0.0914 -0.1894
  822YOPS   CNO12351   6.666   2.939   4.815  0.0715  0.4784 -0.3117
  822YOPS   PO412352   6.387   3.097   5.186  0.1084 -0.0970 -0.1581
  822YOPS   GL112353   6.519   3.384   5.562 -0.3349  0.0649  0.2873
  822YOPS   GL212354   6.568   3.724   5.474 -0.0641 -0.1701 -0.1349
  822YOPS   C1A12355   6.420   3.622   5.982 -0.1379 -0.0808  0.3073
  822YOPS   D2A12356   6.070   3.639   6.374  0.2754  0.1447  0.0843
  822YOPS   C3A12357   5.671   3.741   6.510 -0.3366  0.1290  0.0627
  822YOPS   C4A12358   5.191   3.409   6.472 -0.0679 -0.2059  0.1703
  822YOPS   C1B12359   6.364   4.009   5.673 -0.0535  0.1044  0.3637
  822YOPS   C2B12360   6.286   4.107   6.091  0.2252 -0.1151 -0.1158
  822YOPS   D3B12361   6.462   4.396   6.397 -0.2337  0.0975 -0.1589
  822YOPS   C4B12362   6.738   4.585   6.170 -0.4348  0.4013 -0.0268
  823YOPS   CNO12363  12.548   2.457   4.520 -0.1243  0.2092  0.1722
  823YOPS   PO412364  12.326   2.235   4.829 -0.1749  0.0706 -0.0305
  823YOPS   GL112365  12.324   2.324   5.271 -0.2116 -0.0333  0.2159
  823YOPS   GL212366  12.385   2.184   5.473 -0.0760 -0.0794 -0.1765
  823YOPS   C1A12367  12.344   2.747   5.573  0.0108 -0.0623  0.0087
  823YOPS   D2A12368  12.474   3.108   5.627  0.2619 -0.2078  0.0303
  823YOPS   C3A12369  12.646   3.460   5.697  0.0072  0.3676 -0.1242
  823YOPS   C4A12370  12.634   3.510   6.107  0.3110  0.0421  0.0503
  823YOPS   C1B12371  12.619   2.017   5.758  0.0403  0.1409  0.0805
  823YOPS   C2B12372  12.665   1.960   6.291  0.0340  0.0895  0.0966
  823YOPS   D3B12373  12.497   2.104   6.667 -0.0313  0.0357 -0.1425
  823YOPS   C4B12374  12.920   2.080   7.012 -0.0624  0.3306  0.3316
  824YOPS   CNO12375   2.891   3.212   4.959  0.0229 -0.1985  0.2528
  824YOPS   PO412376   3.197   3.471   4.804  0.1474  0.2402 -0.0096
  824YOPS   GL112377   3.524   3.198   5.131  0.1095  0.1442  0.0745
  824YOPS   GL212378   3.307   3.105   5.401  0.0305  0.2252 -0.0360
  824YOPS   C1A12379   3.838   3.031   5.476  0.1930  0.0495 -0.1502
  824YOPS   D2A12380   4.016   2.995   5.896  0.1199  0.0475  0.2871
  824YOPS   C3A12381   4.271   3.138   6.262  0.0392  0.2161 -0.0249
  824YOPS   C4A12382   4.056   3.191   6.739  0.0438  0.2317  0.0238
  824YOPS   C1B12383   3.500   2.998   5.874  0.3275 -0.2931  0.2927
  824YOPS   C2B12384   3.298   2.962   6.225  0.1546  0.3365 -0.0374
  824YOPS   D3B12385   2.882   2.909   6.409  0.3515 -0.0185 -0.0076
  824YOPS   C4B12386   2.717   2.650   6.036 -0.1326 -0.0782  0.0071
  825YOPS   CNO12387   4.753  11.279   5.286  0.3355 -0.0346  0.1759
  825YOPS   PO412388   4.706  11.765   5.429  0.1882  0.0317 -0.1745
  825YOPS   GL112389   4.870  11.752   5.833 -0.2681 -0.1185  0.2362
  825YOPS   GL212390   5.058  11.981   5.821 -0.1093 -0.1759  0.1556
  825YOPS   C1A12391   4.901  11.807   6.350  0.3254  0.0262 -0.0031
  825YOPS   D2A12392   4.705  11.874   6.748 -0.2230  0.0136  0.0715
  825YOPS   C3A12393   4.471  11.779   7.157 -0.1375 -0.1277  0.0267
  825YOPS   C4A12394   4.701  11.749   7.530 -0.0466  0.0995 -0.1473
  825YOPS   C1B12395   5.304  11.810   6.084 -0.1572 -0.3526  0.2343
  825YOPS   C2B12396   5.377  11.736   6.474  0.2334 -0.0519  0.2066
  825YOPS   D3B12397   5.644  11.551   6.899 -0.1495 -0.0196 -0.0877
  825YOPS   C4B12398   6.140  11.509   6.918  0.2782  0.4651  0.0910
  826YOPS   CNO12399   6.657   4.253   4.546 -0.1852 -0.0998 -0.2037
  826YOPS   PO412400   6.384   3.840   4.714  0.2152 -0.2614  0.0441
  826YOPS   GL112401   6.217   3.830   5.133  0.0288 -0.0245  0.1834
  826YOPS   GL212402   6.057   3.548   5.079 -0.2175  0.1258 -0.5115
  826YOPS   C1A12403   6.021   4.208   5.420  0.0787  0.2438  0.0681
  826YOPS   D2A12404   5.814   4.417   5.677  0.0697 -0.0499  0.0229
  826YOPS   C3A12405   5.954   4.904   5.649 -0.0070 -0.1309 -0.0748
  826YOPS   C4A12406   5.835   5.126   5.929  0.1319 -0.3392 -0.0202
  826YOPS   C1B12407   6.025   3.644   5.560  0.0511 -0.0065 -0.3808
  826YOPS   C2B12408   5.887   3.854   5.892 -0.0609 -0.0680 -0.0569
  826YOPS   D3B12409   5.804   4.171   6.342 -0.0155  0.3650  0.2462
  826YOPS   C4B12410   5.490   4.123   6.711 -0.2057  0.0713 -0.0519
  827YOPS   CNO12411   7.729   6.351   5.068 -0.1608 -0.1382  0.1509
  827YOPS   PO412412   7.862   6.130   5.439  0.0709 -0.3616  0.1255
  827YOPS   GL112413   7.819   6.278   5.829  0.1150  0.0065 -0.1915
  827YOPS   GL212414   8.171   6.526   5.905  0.0706 -0.3436  0.2114
  827YOPS   C1A12415   7.800   6.056   6.317  0.2727  0.0591  0.0815
  827YOPS   D2A12416   7.866   5.758   6.640  0.1601 -0.0981 -0.2069
  827YOPS   C3A12417   7.949   5.524   6.833 -0.3023  0.1655 -0.1283
  827YOPS   C4A12418   8.001   5.006   6.773 -0.0573 -0.0296 -0.0570
  827YOPS   C1B12419   8.010   6.658   6.243 -0.0220 -0.1171  0.0348
  827YOPS   C2B12420   7.864   6.594   6.630  0.2216  0.1112  0.0532
  827YOPS   D3B12421   7.901   6.255   6.814  0.1805  0.0202 -0.0772
  827YOPS   C4B12422   7.491   6.099   6.715  0.1489 -0.0622 -0.0983
  828YOPS   CNO12423  14.627   0.406   4.843 -0.2613 -0.2525  0.0867
  828YOPS   PO412424  14.313   0.181   4.988 -0.1536  0.0373  0.2476
  828YOPS   GL112425  14.132   0.425   5.325 -0.2380  0.4086  0.2286
  828YOPS   GL212426  14.365   0.470   5.560 -0.2140  0.0506  0.0392
  828YOPS   C1A12427  13.937   0.773   5.583 -0.1064  0.3047 -0.1105
  828YOPS   D2A12428  13.929   0.926   5.931 -0.2442  0.0661 -0.2726
  828YOPS   C3A12429  14.099   0.808   6.331 -0.3100  0.3107  0.0692
  828YOPS   C4A12430  14.020   0.518   6.517 -0.0211 -0.1835  0.0294
  828YOPS   C1B12431  14.127   0.452   5.975  0.2094  0.0222  0.0290
  828YOPS   C2B12432  14.096   0.109   6.214 -0.0142 -0.0736 -0.2804
  828YOPS   D3B12433  14.011   0.048   6.650  0.0641 -0.3098 -0.0034
  828YOPS   C4B12434  14.152   0.378   6.989 -0.2389 -0.2768 -0.2057
  829YOPS   CNO12435  10.829   0.365   5.182 -0.0350 -0.0299 -0.4108
  829YOPS   PO412436  10.447   0.190   5.136 -0.0691 -0.1401 -0.0897
  829YOPS   GL112437  10.390   0.515   5.467 -0.1376 -0.3060 -0.0318
  829YOPS   GL212438  10.111   0.707   5.587  0.0055  0.2001  0.0971
  829YOPS   C1A12439  10.635   0.724   5.684  0.0586 -0.2005 -0.2484
  829YOPS   D2A12440  10.810   0.826   6.121 -0.0454 -0.1257 -0.0732
  829YOPS   C3A12441  10.725   0.588   6.574  0.2136 -0.0349 -0.1794
  829YOPS   C4A12442  10.731   0.634   6.994 -0.1528 -0.0171  0.1285
  829YOPS   C1B12443  10.158   0.848   5.996 -0.0464 -0.1079 -0.3073
  829YOPS   C2B12444  10.237   0.778   6.409  0.3756  0.1485 -0.0280
  829YOPS   D3B12445  10.454   1.001   6.799 -0.1931  0.3045 -0.2351
  829YOPS   C4B12446  10.874   1.059   6.635 -0.0433  0.0506 -0.1374
  830YOPS   CNO12447  11.573  19.332   5.616 -0.3204 -0.1647 -0.2529
  830YOPS   PO412448  11.778  18.938   5.705  0.0211 -0.3262  0.2579
  830YOPS   GL112449  12.003  18.960   6.054  0.2128  0.3433  0.1097
  830YOPS   GL212450  12.247  19.040   5.943 -0.2144  0.1047 -0.1101
  830YOPS   C1A12451  11.885  18.729   6.412 -0.2511  0.2284 -0.1941
  830YOPS   D2A12452  11.616  18.555   6.689  0.1699 -0.0456  0.1363
  830YOPS   C3A12453  11.393  18.678   7.105 -0.1769 -0.4191  0.0427
  830YOPS   C4A12454  11.355  19.084   7.351  0.2034  0.1925  0.0443
  830YOPS   C1B12455  12.439  18.702   6.276 -0.2070 -0.1546  0.0404
  830YOPS   C2B12456  12.616  18.727   6.688 -0.1528  0.0597 -0.2608
  830YOPS   D3B12457  12.424  18.693   7.134  0.0021  0.1280  0.2425
  830YOPS   C4B12458  12.359  18.303   7.145 -0.1679 -0.0037  0.1284
  831YOPS   CNO12459   4.739  18.562   5.279 -0.0084 -0.0821  0.0591
  831YOPS   PO412460   5.045  18.616   4.949 -0.1553 -0.0153 -0.0554
  831YOPS   GL112461   5.360  18.617   5.292 -0.0024 -0.0288  0.3116
  831YOPS   GL212462   5.266  18.647   5.580 -0.2848 -0.0437 -0.3380
  831YOPS   C1A12463   5.763  18.620   5.657  0.3520  0.3326 -0.2533
  831YOPS   D2A12464   5.872  18.483   6.015  0.2436  0.4457 -0.2381
  831YOPS   C3A12465   6.337  18.494   6.236  0.1298 -0.1393 -0.1763
  831YOPS   C4A12466   6.627  18.835   6.003 -0.1057  0.1428 -0.0390
  831YOPS   C1B12467   5.345  18.862   5.887  0.2276  0.5053 -0.0532
  831YOPS   C2B12468   5.647  19.200   5.952  0.2739  0.2885 -0.2213
  831YOPS   D3B12469   5.984  19.335   5.656  0.2496  0.1129  0.0408
  831YOPS   C4B12470   6.380  19.322   5.845 -0.3613 -0.2091 -0.4489
  832YOPS   CNO12471  13.751   5.874   4.706 -0.2400  0.0675  0.1820
  832YOPS   PO412472  13.499   5.755   5.033  0.0409 -0.2008 -0.1703
  832YOPS   GL112473  13.244   5.574   5.357  0.0728  0.1642  0.0499
  832YOPS   GL212474  13.201   5.244   5.461  0.0247  0.2634  0.0275
  832YOPS   C1A12475  12.805   5.530   5.452  0.1815 -0.0296 -0.2235
  832YOPS   D2A12476  12.558   5.484   5.830 -0.2463  0.1854  0.1659
  832YOPS   C3A12477  12.230   5.721   5.962 -0.0277  0.2705  0.1229
  832YOPS   C4A12478  11.847   5.541   5.983 -0.5230  0.4135 -0.0183
  832YOPS   C1B12479  13.117   5.422   5.868 -0.1016 -0.0826 -0.1477
  832YOPS   C2B12480  13.340   5.761   6.226  0.1657 -0.1836 -0.1989
  832YOPS   D3B12481  13.501   5.847   6.613 -0.2604 -0.3327 -0.2353
  832YOPS   C4B12482  13.330   5.550   6.956  0.0671 -0.1595 -0.0516
  833YOPS   CNO12483   4.947   4.149   4.829 -0.0608  0.1106  0.2477
  833YOPS   PO412484   5.148   4.470   4.837  0.1479  0.2148 -0.0855
  833YOPS   GL112485   5.011   4.321   5.303 -0.1758  0.1326 -0.0353
  833YOPS   GL212486   4.733   4.316   5.244 -0.1241  0.0223  0.0399
  833YOPS   C1A12487   5.205   4.436   5.647  0.0530 -0.1022  0.2227
  833YOPS   D2A12488   5.430   4.830   5.675  0.0251 -0.2149 -0.1929
  833YOPS   C3A12489   5.303   5.256   5.777 -0.1541  0.1444 -0.2603
  833YOPS   C4A12490   5.218   5.488   5.449 -0.3972  0.1325 -0.2448
  833YOPS   C1B12491   4.631   4.364   5.725  0.3422  0.3193  0.0151
  833YOPS   C2B12492   4.614   4.275   6.194  0.2771  0.2521 -0.2796
  833YOPS   D3B12493   4.888   4.425   6.660  0.1405 -0.0096  0.0279
  833YOPS   C4B12494   5.298   4.641   6.568  0.0536  0.1907  0.0919
  834YOPS   CNO12495  17.645   9.204   5.041 -0.2378  0.1535  0.1832
  834YOPS   PO412496  17.337   8.841   5.081 -0.0754  0.2355 -0.2560
  834YOPS   GL112497  17.454   8.931   5.451  0.1315 -0.1521 -0.1097
  834YOPS   GL212498  17.701   8.853   5.601  0.3205  0.2049 -0.0209
  834YOPS   C1A12499  17.329   9.228   5.839 -0.2257  0.4767 -0.0302
  834YOPS   D2A12500  17.080   9.395   6.155  0.0902  0.1300  0.2263
  834YOPS   C3A12501  16.801   9.566   6.401 -0.2598  0.0041 -0.1871
  834YOPS   C4A12502  16.618   9.366   6.807 -0.0997 -0.3390  0.0850
  834YOPS   C1B12503  17.754   9.019   6.056  0.3696 -0.4133  0.0802
  834YOPS   C2B12504  17.788   9.030   6.516  0.0417 -0.2352 -0.2128
  834YOPS   D3B12505  17.703   8.997   6.914  0.0354  0.1969 -0.3234
  834YOPS   C4B12506  17.459   9.299   7.182  0.0554  0.3701 -0.0338
  835YOPS   CNO12507   1.275   4.465   4.960  0.0146  0.2485 -0.3165
  835YOPS   PO412508   0.916   4.211   5.044 -0.2158  0.3526 -0.1191
  835YOPS   GL112509   0.887   4.124   5.443 -0.2547  0.0735  0.0987
  835YOPS   GL212510   0.766   3.733   5.526  0.2241  0.1577  0.0554
  835YOPS   C1A12511   1.037   3.970   5.849 -0.2468  0.1229 -0.0686
  835YOPS   D2A12512   0.843   4.154   6.269 -0.0385 -0.2972  0.4036
  835YOPS   C3A12513   0.831   4.249   6.556 -0.0861 -0.1936  0.1892
  835YOPS   C4A12514   1.109   3.937   6.741 -0.0092  0.0205  0.3080
  835YOPS   C1B12515   0.585   3.872   5.882 -0.0572  0.3354 -0.0925
  835YOPS   C2B12516   0.383   3.883   6.223 -0.0626  0.0614 -0.0129
  835YOPS   D3B12517   0.548   3.806   6.663  0.2538 -0.1847  0.2037
  835YOPS   C4B12518   0.914   3.508   6.720 -0.0777  0.1591 -0.0727
  836YOPS   CNO12519   9.151   0.806   5.410 -0.0003  0.3066  0.1922
  836YOPS   PO412520   9.440   0.463   5.382 -0.3287  0.0297 -0.0061
  836YOPS   GL112521   9.498   0.767   5.790 -0.1256 -0.1552 -0.3287
  836YOPS   GL212522   9.389   1.132   5.675 -0.2260  0.2039 -0.0459
  836YOPS   C1A12523   9.638   0.908   6.213 -0.0742  0.0440  0.0008
  836YOPS   D2A12524   9.831   1.148   6.570  0.3358 -0.0189 -0.5409
  836YOPS   C3A12525   9.689   1.447   6.873  0.2140 -0.1469 -0.0638
  836YOPS   C4A12526   9.509   1.935   6.696 -0.1891 -0.1339 -0.0394
  836YOPS   C1B12527   9.473   1.320   5.968 -0.5160  0.1408 -0.0888
  836YOPS   C2B12528   9.412   1.544   6.367  0.1121  0.1504  0.1809
  836YOPS   D3B12529   9.869   1.667   6.381  0.4336  0.1489 -0.1605
  836YOPS   C4B12530  10.001   1.319   6.096 -0.0735 -0.0853  0.0694
  837YOPS   CNO12531  18.147  10.126   5.041  0.2554 -0.1232  0.3625
  837YOPS   PO412532  17.777  10.028   5.268  0.0100 -0.2165 -0.1698
  837YOPS   GL112533  18.053  10.356   5.639  0.2109 -0.1729 -0.0611
  837YOPS   GL212534  18.441  10.268   5.598  0.3004 -0.0336  0.1838
  837YOPS   C1A12535  17.963  10.746   5.717  0.0932 -0.2050  0.0851
  837YOPS   D2A12536  18.224  11.158   5.922  0.0353  0.2106  0.4116
  837YOPS   C3A12537  18.492  11.242   6.373  0.3450 -0.0522  0.0400
  837YOPS   C4A12538  18.386  11.095   6.809 -0.0671  0.2022 -0.1684
  837YOPS   C1B12539  18.280  10.276   5.976 -0.4290  0.1208  0.2203
  837YOPS   C2B12540  18.130  10.224   6.392 -0.3195  0.3370  0.1153
  837YOPS   D3B12541  17.797  10.376   6.715 -0.1077 -0.0315 -0.1908
  837YOPS   C4B12542  17.860  10.842   6.787  0.0604  0.0317  0.0246
  838YOPS   CNO12543  16.593  12.553   5.001 -0.0507 -0.1036  0.1679
  838YOPS   PO412544  16.854  12.835   5.245  0.0794  0.3583 -0.3302
  838YOPS   GL112545  16.840  12.945   5.627 -0.1425 -0.1333 -0.1650
  838YOPS   GL212546  16.718  12.728   5.910  0.3412 -0.1899 -0.0359
  838YOPS   C1A12547  16.883  13.322   6.034  0.2346  0.0618 -0.0684
  838YOPS   D2A12548  16.968  13.397   6.484  0.0351 -0.0476  0.1752
  838YOPS   C3A12549  17.050  13.465   6.909  0.3317  0.2248  0.1728
  838YOPS   C4A12550  16.789  13.533   7.208  0.0084 -0.0431  0.2487
  838YOPS   C1B12551  16.923  12.894   6.228 -0.0776 -0.1157  0.1407
  838YOPS   C2B12552  16.982  12.540   6.502 -0.0437 -0.0060 -0.1320
  838YOPS   D3B12553  17.253  12.217   6.526  0.0412 -0.0531  0.1295
  838YOPS   C4B12554  17.393  12.039   6.039  0.1515 -0.1336 -0.1517
  839YOPS   CNO12555  17.630  13.123   4.569  0.1767 -0.0080  0.2802
  839YOPS   PO412556  17.565  13.336   5.088  0.1747  0.2100  0.4041
  839YOPS   GL112557  17.658  13.332   5.502  0.2459  0.0487 -0.3980
  839YOPS   GL212558  17.954  13.582   5.522  0.2408 -0.2538  0.0655
  839YOPS   C1A12559  17.911  13.127   5.678 -0.1697  0.1099 -0.1330
  839YOPS   D2A12560  18.255  12.937   5.550 -0.1629  0.0079  0.2341
  839YOPS   C3A12561  18.366  12.364   5.620  0.0213  0.3343 -0.1084
  839YOPS   C4A12562  18.189  11.984   5.439  0.3772  0.0416 -0.3106
  839YOPS   C1B12563  17.795  13.583   5.901 -0.1329  0.3763  0.0993
  839YOPS   C2B12564  17.804  13.434   6.155 -0.2732 -0.1854  0.1990
  839YOPS   D3B12565  18.056  13.202   6.484  0.1886 -0.1511 -0.2933
  839YOPS   C4B12566  17.935  12.883   6.571 -0.2295  0.1632 -0.0142
  840YOPS   CNO12567  16.315  11.614   5.454  0.1568 -0.0130 -0.1780
  840YOPS   PO412568  15.924  11.933   5.553 -0.0470 -0.0917  0.3772
  840YOPS   GL112569  16.251  12.225   5.647  0.0125 -0.4854 -0.4754
  840YOPS   GL212570  16.498  12.098   5.735  0.0785  0.2148 -0.1832
  840YOPS   C1A12571  16.212  12.508   6.024  0.1024 -0.3235  0.1233
  840YOPS   D2A12572  16.407  12.843   6.288 -0.1845  0.0329  0.0169
  840YOPS   C3A12573  16.518  13.218   6.372 -0.2571 -0.0080 -0.3235
  840YOPS   C4A12574  16.472  13.430   6.790  0.1126  0.0333  0.0546
  840YOPS   C1B12575  16.416  12.094   6.160  0.1155 -0.0019  0.3203
  840YOPS   C2B12576  16.705  12.082   6.504 -0.0351  0.0278 -0.2754
  840YOPS   D3B12577  16.826  12.015   6.955  0.2172  0.0605 -0.0489
  840YOPS   C4B12578  16.783  11.598   7.129 -0.3477  0.0358 -0.1913
  841POPE   NH312579  12.962  15.472   4.677 -0.2659  0.3673 -0.0204
  841POPE   PO412580  12.934  15.699   5.087  0.0393  0.1014  0.0739
  841POPE   GL112581  13.201  15.634   5.527  0.3129  0.3303 -0.2305
  841POPE   GL212582  13.038  15.873   5.847 -0.1147 -0.0534 -0.0127
  841POPE   C1A12583  13.443  15.582   5.891 -0.1080  0.0688  0.0916
  841POPE   D2A12584  13.431  15.783   6.367  0.0225  0.1747 -0.0082
  841POPE   C3A12585  13.221  15.530   6.697  0.2674  0.0256 -0.1205
  841POPE   C4A12586  12.978  15.249   6.830 -0.0833 -0.0661 -0.1653
  841POPE   C1B12587  13.005  15.430   6.171 -0.0508 -0.3645  0.3300
  841POPE   C2B12588  12.683  15.356   6.487 -0.2563  0.0484  0.1906
  841POPE   C3B12589  12.450  15.340   6.869 -0.2199 -0.0442 -0.1845
  841POPE   C4B12590  12.362  15.269   7.296  0.1908  0.2382  0.0195
  842POPE   NH312591  15.585   5.307   5.007 -0.2157 -0.0791  0.0052
  842POPE   PO412592  15.402   5.575   5.199 -0.3108 -0.1353  0.0191
  842POPE   GL112593  15.327   5.692   5.603  0.0153  0.0157  0.0461
  842POPE   GL212594  15.537   5.816   5.721  0.1433 -0.0323 -0.0533
  842POPE   C1A12595  15.114   5.611   5.953  0.2254  0.0416 -0.0297
  842POPE   D2A12596  14.733   5.411   5.860 -0.4751  0.0381 -0.0566
  842POPE   C3A12597  14.396   5.428   6.184  0.0748  0.0027 -0.0041
  842POPE   C4A12598  13.993   5.160   6.151 -0.0673 -0.4798  0.3224
  842POPE   C1B12599  15.344   6.034   6.052 -0.2465 -0.1654  0.4336
  842POPE   C2B12600  15.102   5.952   6.435  0.1542  0.0753 -0.0076
  842POPE   C3B12601  15.103   5.678   6.819  0.1090 -0.0997  0.1115
  842POPE   C4B12602  14.853   5.687   7.188  0.0761 -0.1401  0.0604
  843POPE   NH312603   0.029   3.909   5.118 -0.0543 -0.1063 -0.1366
  843POPE   PO412604  -0.096   3.616   5.025  0.0717  0.0554  0.1254
  843POPE   GL112605  -0.134   3.622   5.476  0.2209 -0.3612  0.1471
  843POPE   GL212606  -0.403   3.456   5.652 -0.0412  0.0856 -0.0875
  843POPE   C1A12607   0.150   3.514   5.800  0.3388 -0.0236  0.0467
  843POPE   D2A12608   0.320   3.418   6.139  0.1480  0.3001  0.1708
  843POPE   C3A12609   0.503   3.215   6.392 -0.3136 -0.0144 -0.5065
  843POPE   C4A12610   0.605   3.031   6.679  0.1880  0.0846 -0.3338
  843POPE   C1B12611  -0.426   3.178   5.918  0.2631  0.4353  0.0680
  843POPE   C2B12612  -0.188   3.169   6.285  0.2590 -0.4791  0.2109
  843POPE   C3B12613   0.084   3.133   6.657  0.2889  0.1022 -0.1036
  843POPE   C4B12614   0.221   2.746   6.763  0.1552 -0.2269  0.0209
  844POPE   NH312615   9.236  15.234   5.657 -0.1622  0.1705  0.1020
  844POPE   PO412616   9.581  15.209   5.446 -0.1156  0.0102 -0.0879
  844POPE   GL112617   9.623  15.387   5.885 -0.0569  0.0984 -0.2720
  844POPE   GL212618   9.911  15.566   6.006 -0.0017  0.0657  0.1747
  844POPE   C1A12619   9.410  15.295   6.339 -0.0073 -0.1809 -0.1087
  844POPE   D2A12620   9.310  15.530   6.630  0.0381 -0.0226  0.1288
  844POPE   C3A12621   9.291  15.198   6.928 -0.4837  0.0534  0.0866
  844POPE   C4A12622   9.041  14.867   7.054 -0.3053  0.2419  0.0570
  844POPE   C1B12623   9.849  15.526   6.495  0.2098  0.1569 -0.1744
  844POPE   C2B12624   9.664  15.588   6.943 -0.2187 -0.1388  0.0881
  844POPE   C3B12625   9.510  15.447   7.306  0.0686 -0.0385  0.0218
  844POPE   C4B12626   9.830  15.191   7.599  0.1500 -0.0852  0.0551
  845POPE   NH312627   8.395  11.020   5.227  0.0828  0.1773  0.1214
  845POPE   PO412628   8.205  10.587   5.127 -0.0564  0.2723  0.0939
  845POPE   GL112629   8.032  10.541   5.471  0.2819  0.1547 -0.3367
  845POPE   GL212630   7.903  10.913   5.478 -0.1158 -0.1841  0.1446
  845POPE   C1A12631   7.955  10.600   5.887 -0.0600  0.0505 -0.0150
  845POPE   D2A12632   7.630  10.526   6.250 -0.2280  0.2835 -0.0169
  845POPE   C3A12633   7.614  10.384   6.627  0.0371  0.1491  0.1551
  845POPE   C4A12634   7.627  10.386   7.030 -0.0830  0.2753  0.1404
  845POPE   C1B12635   7.566  10.747   5.664 -0.0381 -0.1370 -0.0775
  845POPE   C2B12636   7.228  10.630   5.979  0.0756  0.0207  0.5324
  845POPE   C3B12637   7.143  10.321   6.274  0.1720  0.1496  0.0140
  845POPE   C4B12638   6.718  10.095   6.388 -0.2827 -0.2158  0.0877
  846POPE   NH312639   6.699  14.878   5.456 -0.0940  0.0653 -0.0763
  846POPE   PO412640   6.469  15.069   5.258 -0.3656 -0.2419 -0.2517
  846POPE   GL112641   6.372  15.244   5.615  0.0908  0.0907 -0.0751
  846POPE   GL212642   6.550  15.183   5.905  0.1255  0.4083 -0.0818
  846POPE   C1A12643   6.113  15.538   5.847  0.2641 -0.2089 -0.2370
  846POPE   D2A12644   5.801  15.875   5.924 -0.0862  0.1373 -0.0740
  846POPE   C3A12645   5.840  16.184   6.082 -0.2246 -0.1026 -0.0816
  846POPE   C4A12646   5.999  16.377   6.457 -0.2966 -0.0655 -0.0432
  846POPE   C1B12647   6.331  14.760   5.951 -0.0784  0.1257  0.0759
  846POPE   C2B12648   6.613  14.400   6.318  0.1660 -0.0384  0.1440
  846POPE   C3B12649   6.900  14.370   6.560 -0.1589 -0.2311 -0.2133
  846POPE   C4B12650   7.051  14.457   7.040  0.1928  0.0387 -0.0798
  847POPE   NH312651  13.039   4.362   4.781 -0.3888 -0.0074  0.0322
  847POPE   PO412652  12.794   3.944   4.781  0.0790 -0.0267  0.1789
  847POPE   GL112653  12.904   4.029   5.262  0.1026 -0.1413  0.1005
  847POPE   GL212654  12.936   4.309   5.412  0.0933  0.2410 -0.1652
  847POPE   C1A12655  13.332   4.006   5.571  0.0817 -0.0519 -0.0390
  847POPE   D2A12656  13.631   3.592   5.752  0.0474  0.0451 -0.0480
  847POPE   C3A12657  13.485   3.211   5.660 -0.1348 -0.3142  0.1596
  847POPE   C4A12658  13.494   2.742   5.829  0.3876  0.0330  0.0823
  847POPE   C1B12659  12.766   4.497   5.791  0.1029  0.1582  0.3779
  847POPE   C2B12660  12.838   4.490   6.285 -0.0330 -0.2702  0.1153
  847POPE   C3B12661  13.251   4.398   6.475  0.3165 -0.1862  0.1923
  847POPE   C4B12662  13.636   4.137   6.548  0.1679 -0.0867 -0.1414
  848POPE   NH312663  13.930  18.076   4.604 -0.0560 -0.3556 -0.1736
  848POPE   PO412664  14.090  18.381   4.979 -0.4169 -0.0142  0.1965
  848POPE   GL112665  14.204  18.446   5.447  0.0893  0.0336 -0.2186
  848POPE   GL212666  14.005  18.597   5.681 -0.3050  0.2103  0.0201
  848POPE   C1A12667  14.432  18.772   5.776  0.1310  0.2362  0.0124
  848POPE   D2A12668  14.376  18.756   6.194 -0.1063  0.1989  0.4019
  848POPE   C3A12669  14.369  18.646   6.705  0.4128  0.0503  0.2722
  848POPE   C4A12670  14.388  18.604   7.093  0.0247  0.0030 -0.2100
  848POPE   C1B12671  13.832  18.838   6.028 -0.1914  0.2338  0.2089
  848POPE   C2B12672  13.951  18.896   6.482 -0.3415 -0.0322  0.1639
  848POPE   C3B12673  13.946  18.793   6.861 -0.0930  0.4090  0.2292
  848POPE   C4B12674  13.875  18.927   7.331  0.0487 -0.0288 -0.0395
  849POPE   NH312675  13.139  10.191   5.212  0.3663  0.1529  0.0514
  849POPE   PO412676  13.411   9.981   5.460 -0.0202  0.0710 -0.0072
  849POPE   GL112677  13.382   9.526   5.614 -0.4254  0.1412  0.0941
  849POPE   GL212678  13.585   9.695   5.931  0.1168 -0.1057  0.3771
  849POPE   C1A12679  13.171   9.229   5.923 -0.3221 -0.2285 -0.4001
  849POPE   D2A12680  12.947   9.327   6.251 -0.2796 -0.2702 -0.1742
  849POPE   C3A12681  12.535   9.050   6.311 -0.0049  0.0432 -0.0022
  849POPE   C4A12682  12.250   8.976   6.629 -0.2480  0.2879 -0.0579
  849POPE   C1B12683  13.311   9.686   6.368  0.0844  0.1967 -0.1266
  849POPE   C2B12684  13.060   9.589   6.800  0.0812 -0.3400 -0.2484
  849POPE   C3B12685  12.870   9.293   7.069 -0.0991 -0.1044  0.0469
  849POPE   C4B12686  12.547   9.143   7.295 -0.3020 -0.2110  0.3396
  850POPE   NH312687  12.144  19.161   5.460  0.1016  0.1741  0.0728
  850POPE   PO412688  12.135  19.577   5.323 -0.1194  0.1194 -0.0101
  850POPE   GL112689  11.980  19.544   5.783 -0.1454  0.2564  0.0055
  850POPE   GL212690  12.048  19.520   6.151  0.2456  0.2101 -0.0660
  850POPE   C1A12691  11.580  19.652   5.999  0.2867 -0.0339 -0.6236
  850POPE   D2A12692  11.290  19.968   6.120 -0.1693  0.0405 -0.2003
  850POPE   C3A12693  10.919  19.945   6.111  0.1793 -0.1463 -0.1841
  850POPE   C4A12694  10.419  20.070   6.059 -0.1847 -0.2441  0.0345
  850POPE   C1B12695  11.859  19.762   6.444  0.4385  0.1401 -0.3455
  850POPE   C2B12696  11.593  19.746   6.723  0.5328 -0.3290  0.3283
  850POPE   C3B12697  11.269  19.529   6.900  0.2853  0.1331 -0.0078
  850POPE   C4B12698  11.135  19.180   6.939 -0.0527  0.0726 -0.0734
  851POPE   NH312699  14.283   2.940   5.147  0.0335  0.1282 -0.1436
  851POPE   PO412700  14.106   2.974   4.802 -0.0796 -0.2650  0.1760
  851POPE   GL112701  14.013   3.359   5.111 -0.3633  0.0228 -0.2045
  851POPE   GL212702  13.717   3.439   5.205 -0.1086 -0.1039 -0.0865
  851POPE   C1A12703  14.023   3.307   5.631 -0.0375  0.4402  0.1611
  851POPE   D2A12704  14.052   3.579   6.022 -0.3205 -0.2824 -0.2545
  851POPE   C3A12705  14.101   3.452   6.470 -0.1355 -0.0075  0.0969
  851POPE   C4A12706  14.473   3.312   6.707  0.0012  0.1626 -0.3016
  851POPE   C1B12707  13.800   3.844   5.315  0.2392  0.1242  0.0646
  851POPE   C2B12708  14.194   3.847   5.665  0.0330  0.0043  0.1681
  851POPE   C3B12709  14.508   3.662   5.754  0.0572 -0.0192  0.2009
  851POPE   C4B12710  14.845   3.794   5.602  0.1346  0.3127  0.0747
  852POPE   NH312711  12.259  16.546   5.196 -0.2754  0.0159 -0.0805
  852POPE   PO412712  12.486  16.296   5.512 -0.1621 -0.2000 -0.1491
  852POPE   GL112713  12.242  16.475   5.819 -0.2394 -0.0341  0.1931
  852POPE   GL212714  12.094  16.090   6.005 -0.1155  0.1022  0.2193
  852POPE   C1A12715  12.358  16.538   6.214  0.3239 -0.1807 -0.1398
  852POPE   D2A12716  12.770  16.586   6.416 -0.0842 -0.2446  0.4388
  852POPE   C3A12717  12.798  16.300   6.746 -0.1564  0.1381  0.2469
  852POPE   C4A12718  12.936  15.949   6.474  0.0969  0.1696 -0.1111
  852POPE   C1B12719  12.046  16.204   6.451  0.1657  0.1311 -0.2393
  852POPE   C2B12720  12.352  16.412   6.722 -0.2366 -0.2276 -0.0572
  852POPE   C3B12721  12.283  16.923   6.936  0.1156  0.1933  0.1156
  852POPE   C4B12722  12.283  17.321   6.824 -0.1480  0.0327 -0.0666
  853POPE   NH312723   8.673  12.325   5.544  0.2190 -0.2675  0.0232
  853POPE   PO412724   9.047  12.606   5.683 -0.2138  0.1551 -0.1575
  853POPE   GL112725   8.670  12.715   5.897 -0.0474  0.2235  0.2358
  853POPE   GL212726   8.707  12.447   6.014  0.0552  0.2441 -0.1624
  853POPE   C1A12727   8.383  12.930   5.778  0.1883  0.2098  0.2721
  853POPE   D2A12728   8.041  13.202   5.971 -0.1446 -0.0955 -0.0938
  853POPE   C3A12729   7.828  13.256   6.294 -0.3211 -0.3362 -0.1501
  853POPE   C4A12730   7.761  13.267   6.710  0.1032  0.0105  0.0285
  853POPE   C1B12731   9.079  12.353   6.330 -0.0232  0.0048  0.2417
  853POPE   C2B12732   9.442  12.407   6.458  0.0565 -0.2761 -0.1012
  853POPE   C3B12733   9.921  12.391   6.315  0.1661  0.3062  0.1569
  853POPE   C4B12734  10.268  12.326   6.150  0.3666  0.0632 -0.0453
  854POPE   NH312735  10.759   4.841   4.547 -0.0236 -0.1567  0.3946
  854POPE   PO412736  10.864   5.206   4.839 -0.2958  0.1112 -0.2215
  854POPE   GL112737  10.843   5.174   5.208  0.1876 -0.3761  0.1104
  854POPE   GL212738  11.149   5.324   5.384 -0.2272 -0.2128  0.2407
  854POPE   C1A12739  10.573   5.213   5.525 -0.0718 -0.1348  0.2607
  854POPE   D2A12740  10.349   5.292   5.877  0.0410 -0.2907 -0.1134
  854POPE   C3A12741  10.248   5.043   6.304 -0.0536 -0.0379  0.1967
  854POPE   C4A12742  10.044   4.910   6.712 -0.1011  0.0969  0.0226
  854POPE   C1B12743  11.076   5.092   5.713  0.2574  0.0893 -0.2505
  854POPE   C2B12744  10.847   5.152   6.108  0.1096  0.2797 -0.2771
  854POPE   C3B12745  10.690   5.235   6.561 -0.7571 -0.1738 -0.1084
  854POPE   C4B12746  10.710   5.430   6.959 -0.0684 -0.2153 -0.0874
  855POPE   NH312747  13.535  12.881   5.613  0.0869  0.0465  0.2161
  855POPE   PO412748  13.285  12.588   5.725  0.1262  0.0218 -0.0741
  855POPE   GL112749  13.458  12.804   6.111  0.1582  0.2138  0.3153
  855POPE   GL212750  13.737  12.893   6.072 -0.0096 -0.1567  0.2420
  855POPE   C1A12751  13.381  12.893   6.588  0.1833 -0.1357  0.1126
  855POPE   D2A12752  13.276  12.636   6.978 -0.1664 -0.1443  0.1251
  855POPE   C3A12753  13.568  12.598   7.287 -0.2147 -0.0452  0.0218
  855POPE   C4A12754  13.734  12.780   7.679  0.1024 -0.0405 -0.2137
  855POPE   C1B12755  13.891  13.020   6.485 -0.1829  0.0178 -0.0925
  855POPE   C2B12756  14.219  12.981   6.658 -0.3281  0.3688 -0.2343
  855POPE   C3B12757  14.283  13.010   7.036 -0.0336 -0.0008 -0.0948
  855POPE   C4B12758  14.717  12.852   7.238 -0.0296 -0.2017  0.1208
  856POPE   NH312759   1.832   5.127   5.034 -0.2438  0.0869  0.1794
  856POPE   PO412760   1.763   5.509   4.956 -0.0007 -0.1104 -0.0472
  856POPE   GL112761   1.600   5.530   5.295  0.2435 -0.1228  0.0514
  856POPE   GL212762   1.609   5.308   5.461 -0.3207  0.0817  0.1761
  856POPE   C1A12763   1.654   5.618   5.804 -0.1500  0.2069 -0.0195
  856POPE   D2A12764   1.828   5.653   6.183  0.0119  0.3308  0.1042
  856POPE   C3A12765   1.498   5.799   6.461 -0.2709  0.0049  0.3656
  856POPE   C4A12766   1.314   5.499   6.706 -0.0930 -0.0065  0.1597
  856POPE   C1B12767   1.600   5.042   5.867 -0.2510 -0.1332 -0.2629
  856POPE   C2B12768   1.269   4.869   6.070 -0.1275  0.0101  0.0296
  856POPE   C3B12769   1.097   4.897   6.541  0.1041  0.1374  0.1684
  856POPE   C4B12770   0.840   5.278   6.619  0.0873  0.1326 -0.1059
  857POPE   NH312771   9.532   3.562   4.881  0.3497 -0.0411 -0.2869
  857POPE   PO412772   9.657   3.304   5.202 -0.1971  0.1591  0.0284
  857POPE   GL112773   9.608   3.204   5.621  0.1795  0.0007  0.3484
  857POPE   GL212774   9.900   3.109   5.592 -0.0531  0.1745  0.0425
  857POPE   C1A12775   9.452   3.214   6.082  0.0270  0.0409 -0.1298
  857POPE   D2A12776   9.384   3.443   6.456  0.1308 -0.3769  0.2226
  857POPE   C3A12777   9.544   3.320   6.874  0.0938 -0.4403  0.1114
  857POPE   C4A12778   9.779   3.343   7.272 -0.0091 -0.1100  0.2524
  857POPE   C1B12779   9.909   3.136   6.044 -0.1688 -0.0755  0.0205
  857POPE   C2B12780   9.860   3.342   6.488 -0.1011 -0.0865 -0.1472
  857POPE   C3B12781   9.925   3.530   6.641 -0.1278  0.1421 -0.0610
  857POPE   C4B12782  10.098   3.760   6.980 -0.0412 -0.2711 -0.1276
  858POPE   NH312783  16.324  15.214   5.339  0.1207  0.1457 -0.2183
  858POPE   PO412784  16.030  15.545   5.185 -0.4321  0.1125 -0.0130
  858POPE   GL112785  15.759  15.436   5.426  0.1744  0.3461 -0.0622
  858POPE   GL212786  15.699  15.144   5.584 -0.1075 -0.0760  0.0521
  858POPE   C1A12787  15.949  15.449   5.868  0.0608 -0.3792 -0.1265
  858POPE   D2A12788  16.049  15.571   6.330  0.1122 -0.1871 -0.3430
  858POPE   C3A12789  15.958  15.415   6.653 -0.3406  0.3052  0.2435
  858POPE   C4A12790  15.916  14.930   6.735 -0.1635 -0.0595  0.2561
  858POPE   C1B12791  15.634  15.121   6.017  0.0037  0.0018  0.1347
  858POPE   C2B12792  15.571  15.136   6.513  0.0973  0.2152 -0.1761
  858POPE   C3B12793  15.255  15.099   6.699 -0.1362  0.1207  0.1725
  858POPE   C4B12794  14.854  14.864   6.946  0.0244 -0.3559 -0.2709
  859POPE   NH312795   4.639   7.171   5.302 -0.3584 -0.0460 -0.0901
  859POPE   PO412796   4.387   6.648   5.263 -0.0319  0.1784  0.1642
  859POPE   GL112797   4.579   6.761   5.699 -0.3585  0.0654  0.1146
  859POPE   GL212798   4.470   6.978   5.891  0.0882  0.2662  0.2344
  859POPE   C1A12799   4.844   6.630   6.075 -0.0486  0.0467  0.1387
  859POPE   D2A12800   5.084   6.337   6.364 -0.3388  0.1256 -0.0222
  859POPE   C3A12801   5.227   5.842   6.367 -0.2076 -0.1415 -0.2777
  859POPE   C4A12802   5.166   5.367   6.309  0.1316  0.0705  0.1060
  859POPE   C1B12803   4.372   7.161   6.206  0.1945  0.0717 -0.3240
  859POPE   C2B12804   4.164   7.298   6.509  0.1024 -0.4590  0.0453
  859POPE   C3B12805   3.838   7.333   6.742  0.2531  0.0777 -0.5449
  859POPE   C4B12806   3.383   7.561   6.773  0.4307 -0.1175  0.0015
  860POPE   NH312807   1.242  10.849   5.387  0.0325  0.0433 -0.0563
  860POPE   PO412808   0.839  10.741   5.196  0.0135 -0.2416  0.0583
  860POPE   GL112809   0.862  10.671   5.697  0.1394 -0.3653 -0.1183
  860POPE   GL212810   0.471  10.575   5.854  0.1850 -0.2676  0.2816
  860POPE   C1A12811   1.108  10.561   6.000  0.3274  0.0215 -0.1949
  860POPE   D2A12812   1.333  10.383   6.351 -0.1385 -0.1784 -0.1912
  860POPE   C3A12813   1.180  10.218   6.700  0.4851 -0.1396 -0.2211
  860POPE   C4A12814   0.907   9.972   6.966  0.2007  0.2091  0.1923
  860POPE   C1B12815   0.658  10.860   6.224 -0.0405 -0.0534 -0.3072
  860POPE   C2B12816   0.757  11.233   6.486  0.4015 -0.0584  0.1251
  860POPE   C3B12817   0.841  11.599   6.814 -0.1722  0.1498 -0.0845
  860POPE   C4B12818   0.645  11.910   6.921 -0.1619  0.2733  0.1908
  861POPE   NH312819  13.597   1.842   5.158  0.2501  0.0053 -0.2749
  861POPE   PO412820  13.253   2.071   5.378  0.1796 -0.0165  0.0831
  861POPE   GL112821  13.472   1.743   5.675  0.2501  0.0993 -0.1930
  861POPE   GL212822  13.805   1.891   5.647  0.1908  0.2346  0.1439
  861POPE   C1A12823  13.236   1.456   5.943  0.0842  0.2435 -0.1003
  861POPE   D2A12824  13.301   1.140   5.895 -0.1036  0.0325  0.0014
  861POPE   C3A12825  12.959   0.863   5.863  0.1162 -0.1192  0.2629
  861POPE   C4A12826  12.589   0.538   5.944  0.0591 -0.1352  0.1656
  861POPE   C1B12827  14.114   1.682   5.838 -0.1788  0.0174  0.4274
  861POPE   C2B12828  14.236   1.360   6.061  0.0420 -0.1741 -0.1587
  861POPE   C3B12829  14.060   1.284   6.566 -0.3989 -0.1718 -0.1742
  861POPE   C4B12830  13.743   0.952   6.723 -0.0562 -0.1521 -0.0187
  862POPE   NH312831   5.680  19.474   5.162  0.0143 -0.1583 -0.3386
  862POPE   PO412832   5.286  19.477   5.056 -0.4995 -0.1926 -0.0270
  862POPE   GL112833   4.975  19.257   5.301 -0.1890 -0.1716  0.0991
  862POPE   GL212834   4.994  19.004   5.313  0.0508  0.2641  0.5221
  862POPE   C1A12835   4.633  19.373   5.597 -0.0275  0.1705  0.1725
  862POPE   D2A12836   4.431  19.584   5.974 -0.0980  0.1271 -0.1458
  862POPE   C3A12837   4.487  19.403   6.319 -0.2414 -0.0415 -0.0071
  862POPE   C4A12838   4.886  19.366   6.523 -0.0122  0.0568  0.0432
  862POPE   C1B12839   4.844  18.916   5.640  0.2808  0.0279  0.1960
  862POPE   C2B12840   4.887  18.474   5.796 -0.0299 -0.1794  0.2323
  862POPE   C3B12841   5.017  18.429   6.049 -0.2706  0.4044 -0.2008
  862POPE   C4B12842   5.450  18.483   6.233 -0.2144 -0.0448 -0.3100
  863POPE   NH312843   2.967   6.527   5.021 -0.2582 -0.1422  0.0221
  863POPE   PO412844   2.609   6.790   4.935  0.1076  0.2245 -0.0588
  863POPE   GL112845   2.464   6.785   5.431 -0.3565 -0.2489 -0.0420
  863POPE   GL212846   2.754   6.854   5.474 -0.1647 -0.1588  0.2370
  863POPE   C1A12847   2.473   6.899   5.856  0.1422  0.1001 -0.1823
  863POPE   D2A12848   2.511   6.970   6.303  0.0940  0.0711  0.1431
  863POPE   C3A12849   2.638   7.118   6.611  0.3705 -0.0759 -0.0720
  863POPE   C4A12850   2.782   7.404   6.967  0.1314 -0.1356  0.0078
  863POPE   C1B12851   3.119   6.926   5.688 -0.0738 -0.0658  0.0417
  863POPE   C2B12852   3.416   6.847   5.997  0.2670 -0.2032  0.2960
  863POPE   C3B12853   3.670   6.856   6.452 -0.0045  0.2363 -0.3645
  863POPE   C4B12854   3.666   6.830   6.881  0.2555  0.1500  0.0299
  864POPE   NH312855   8.433  11.672   5.267  0.2745  0.1620 -0.0039
  864POPE   PO412856   8.215  12.079   5.434 -0.2450  0.1139 -0.1029
  864POPE   GL112857   8.007  11.735   5.597 -0.1760 -0.1126  0.1769
  864POPE   GL212858   7.859  11.924   5.765 -0.3219  0.0695  0.0688
  864POPE   C1A12859   8.049  11.486   5.926  0.0516 -0.0260  0.0780
  864POPE   D2A12860   7.974  11.502   6.397  0.0578 -0.3404  0.3663
  864POPE   C3A12861   7.532  11.467   6.473  0.1675 -0.2171  0.1706
  864POPE   C4A12862   7.346  11.424   6.811  0.0873 -0.2929  0.1869
  864POPE   C1B12863   8.214  11.960   6.126 -0.0948  0.4067 -0.0504
  864POPE   C2B12864   8.260  11.892   6.498  0.0627 -0.0608  0.1107
  864POPE   C3B12865   8.451  11.864   6.940 -0.0843  0.0266  0.1853
  864POPE   C4B12866   8.399  11.540   7.328  0.0389  0.0682 -0.1065
  865POPE   NH312867  13.845   8.882   4.960  0.1992  0.2032 -0.1329
  865POPE   PO412868  13.790   8.534   5.065 -0.0635  0.3814  0.1563
  865POPE   GL112869  13.774   8.724   5.468 -0.3486 -0.0930  0.1379
  865POPE   GL212870  13.992   8.734   5.779 -0.1926  0.0295 -0.1524
  865POPE   C1A12871  13.500   8.773   5.835 -0.1226  0.3489 -0.3228
  865POPE   D2A12872  13.588   8.715   6.268  0.2499  0.0469  0.2051
  865POPE   C3A12873  13.960   8.737   6.373 -0.5149  0.0134  0.3351
  865POPE   C4A12874  14.449   8.840   6.189  0.1382  0.0965 -0.0030
  865POPE   C1B12875  14.356   8.376   5.896  0.0515  0.3156  0.0661
  865POPE   C2B12876  14.611   8.353   6.207  0.2574 -0.0941  0.3635
  865POPE   C3B12877  14.704   8.224   6.504 -0.0230 -0.3908  0.0674
  865POPE   C4B12878  14.915   8.235   6.851 -0.0196  0.0967  0.2941
  866POPE   NH312879  18.344   6.197   5.223  0.1564 -0.2371  0.1932
  866POPE   PO412880  18.183   6.505   5.551  0.1614  0.1543  0.3236
  866POPE   GL112881  18.320   6.176   5.756  0.0208  0.0162 -0.0215
  866POPE   GL212882  18.151   6.343   5.995  0.3058 -0.4462  0.2100
  866POPE   C1A12883  18.649   6.082   6.168 -0.1306  0.1814 -0.0210
  866POPE   D2A12884  18.987   6.203   6.529 -0.0983 -0.0384 -0.2919
  866POPE   C3A12885  19.151   5.813   6.632  0.4521 -0.2746 -0.1717
  866POPE   C4A12886  19.196   5.322   6.541  0.3568 -0.0529 -0.0487
  866POPE   C1B12887  17.958   6.060   6.337 -0.0034  0.2252 -0.0694
  866POPE   C2B12888  17.720   6.175   6.614  0.4292 -0.2027 -0.1112
  866POPE   C3B12889  17.312   6.179   6.704  0.1397  0.3196 -0.1002
  866POPE   C4B12890  17.141   6.226   7.017  0.0092 -0.2209 -0.1610
  867POPE   NH312891  11.303  18.853   5.610  0.0052  0.1719  0.0802
  867POPE   PO412892  11.360  18.447   5.521 -0.0485 -0.0109  0.1714
  867POPE   GL112893  11.196  18.324   5.838 -0.4630  0.0613 -0.0887
  867POPE   GL212894  11.085  18.486   6.000 -0.0496 -0.3038  0.2745
  867POPE   C1A12895  11.357  18.297   6.319 -0.1521  0.1344  0.1789
  867POPE   D2A12896  11.168  18.369   6.644  0.0096  0.1312 -0.0520
  867POPE   C3A12897  10.908  18.632   6.988 -0.0306 -0.1460 -0.0328
  867POPE   C4A12898  10.888  18.699   7.401 -0.1703  0.0276  0.3512
  867POPE   C1B12899  11.140  18.788   6.319  0.2123  0.0900  0.0019
  867POPE   C2B12900  11.069  19.129   6.488 -0.2248 -0.2272 -0.1313
  867POPE   C3B12901  11.195  19.608   6.435 -0.2087 -0.1170 -0.1290
  867POPE   C4B12902  11.213  20.050   6.629  0.4731 -0.2953  0.2231
  868POPE   NH312903  16.811  10.109   4.856  0.0542 -0.1218 -0.1698
  868POPE   PO412904  16.864  10.614   4.821  0.2867 -0.1827 -0.0469
  868POPE   GL112905  16.735  10.499   5.160 -0.0296  0.1733  0.0570
  868POPE   GL212906  16.650  10.220   5.351  0.2117  0.2138  0.2919
  868POPE   C1A12907  16.896  10.652   5.592  0.2156  0.2004  0.1689
  868POPE   D2A12908  17.122  10.503   5.992  0.0859 -0.0010 -0.1774
  868POPE   C3A12909  17.003  10.612   6.511 -0.0998  0.0785 -0.0176
  868POPE   C4A12910  17.336  10.769   6.820  0.2937  0.1190  0.0886
  868POPE   C1B12911  16.879  10.158   5.742 -0.1562  0.2663 -0.0374
  868POPE   C2B12912  16.972  10.037   6.158  0.1266 -0.0156  0.0369
  868POPE   C3B12913  16.827  10.139   6.463  0.0390  0.1041 -0.1776
  868POPE   C4B12914  16.486  10.269   6.710  0.0460  0.2007 -0.1343
  869POPE   NH312915  11.618   9.095   4.686  0.0104  0.2342  0.4981
  869POPE   PO412916  11.215   8.971   4.891  0.3686 -0.0943  0.2212
  869POPE   GL112917  11.066   9.025   5.362 -0.4154  0.0049 -0.0802
  869POPE   GL212918  10.683   8.997   5.473 -0.0303 -0.0610 -0.1220
  869POPE   C1A12919  11.225   8.925   5.916 -0.1216 -0.0487  0.0777
  869POPE   D2A12920  11.606   8.877   6.168  0.0530 -0.1283  0.0149
  869POPE   C3A12921  11.765   8.994   6.580 -0.0571  0.0141  0.2084
  869POPE   C4A12922  11.737   8.987   6.922 -0.0334 -0.2808 -0.3845
  869POPE   C1B12923  10.532   9.046   5.895  0.0159 -0.4492 -0.1355
  869POPE   C2B12924  10.440   9.081   6.313 -0.4365 -0.4376 -0.0548
  869POPE   C3B12925  10.609   9.048   6.782  0.0100 -0.1520 -0.0702
  869POPE   C4B12926  10.496   8.838   7.144  0.1350 -0.1059  0.2246
  870POPE   NH312927  14.420  13.784   5.111 -0.0930 -0.3745 -0.0524
  870POPE   PO412928  14.124  14.124   5.099  0.0750 -0.1411  0.3374
  870POPE   GL112929  14.215  14.093   5.579  0.1491  0.0218  0.1776
  870POPE   GL212930  14.570  14.209   5.624 -0.2513 -0.1267 -0.3503
  870POPE   C1A12931  14.066  13.930   5.934  0.0441 -0.3988 -0.2918
  870POPE   D2A12932  13.857  13.853   6.278 -0.1415  0.4282 -0.1821
  870POPE   C3A12933  14.053  14.088   6.671 -0.0341 -0.1425 -0.1398
  870POPE   C4A12934  13.758  14.288   6.943 -0.1397  0.2398  0.1203
  870POPE   C1B12935  14.478  14.268   6.038  0.1680  0.0654 -0.2316
  870POPE   C2B12936  14.493  14.299   6.469 -0.0281  0.0955  0.0924
  870POPE   C3B12937  14.624  14.437   6.871 -0.2857  0.2483  0.0090
  870POPE   C4B12938  14.930  14.219   7.225  0.2059  0.1070 -0.1565
  871YOPE   NH312939   5.285   1.228   4.581  0.1825 -0.1580  0.0627
  871YOPE   PO412940   5.635   1.493   4.667 -0.0677  0.2517 -0.1892
  871YOPE   GL112941   5.747   1.688   5.059 -0.0046 -0.3164  0.2414
  871YOPE   GL212942   5.513   1.902   4.974 -0.0321  0.1428 -0.0305
  871YOPE   C1A12943   5.817   1.760   5.507  0.1847  0.4415  0.1739
  871YOPE   D2A12944   5.570   1.807   5.846  0.0099 -0.1011  0.5613
  871YOPE   C3A12945   5.503   2.253   6.022 -0.2194  0.1735 -0.1083
  871YOPE   C4A12946   5.346   2.304   6.290  0.0323 -0.3578  0.0598
  871YOPE   C1B12947   5.473   2.066   5.358 -0.2724 -0.1737 -0.3668
  871YOPE   C2B12948   5.151   2.188   5.697  0.1206  0.2375 -0.1337
  871YOPE   D3B12949   4.984   2.009   6.153 -0.0121 -0.0336 -0.1629
  871YOPE   C4B12950   4.843   2.067   6.515 -0.2089  0.0311  0.1882
  872YOPE   NH312951  17.366   6.822   5.370 -0.1435  0.0613  0.1076
  872YOPE   PO412952  17.413   6.359   5.329 -0.0097 -0.0062 -0.1839
  872YOPE   GL112953  17.193   6.193   5.617  0.0077  0.0805 -0.1755
  872YOPE   GL212954  17.156   6.469   5.906  0.2528  0.2609 -0.1452
  872YOPE   C1A12955  17.357   6.071   6.131 -0.1618  0.0653 -0.2234
  872YOPE   D2A12956  17.607   5.734   6.382 -0.2782 -0.0178 -0.3055
  872YOPE   C3A12957  17.396   5.608   6.806 -0.0090 -0.1354  0.2468
  872YOPE   C4A12958  17.476   5.690   7.280  0.1470  0.2887 -0.0246
  872YOPE   C1B12959  17.383   6.509   6.256  0.2371 -0.0471 -0.0909
  872YOPE   C2B12960  17.831   6.599   6.380  0.1518  0.0871  0.0639
  872YOPE   D3B12961  17.872   7.020   6.623  0.2542  0.0509 -0.0289
  872YOPE   C4B12962  17.917   7.091   7.084  0.2273  0.0162 -0.2033
  873YOPE   NH312963   9.102   3.889   4.851 -0.0044  0.1254 -0.0475
  873YOPE   PO412964   9.575   4.188   4.808  0.1259  0.2197  0.2487
  873YOPE   GL112965   9.616   4.414   5.136  0.1456  0.4266  0.2404
  873YOPE   GL212966   9.458   4.660   5.370  0.1633 -0.1074  0.0070
  873YOPE   C1A12967   9.952   4.376   5.514  0.0270 -0.0859 -0.1200
  873YOPE   D2A12968  10.256   4.139   5.489 -0.1192  0.4516  0.2067
  873YOPE   C3A12969  10.223   3.958   5.786  0.1910  0.0680 -0.0405
  873YOPE   C4A12970  10.170   4.028   6.254  0.0593 -0.1954 -0.0083
  873YOPE   C1B12971   9.453   4.777   5.753  0.0222 -0.0446  0.1906
  873YOPE   C2B12972   9.322   4.625   6.107  0.1853 -0.0351 -0.0030
  873YOPE   D3B12973   9.356   4.293   6.439  0.1568  0.3709 -0.0948
  873YOPE   C4B12974   9.523   4.556   6.750  0.0505 -0.4343  0.3323
  874YOPE   NH312975  13.380  11.705   5.189 -0.1583  0.0559  0.2583
  874YOPE   PO412976  13.254  12.043   5.337  0.0203  0.2091  0.3387
  874YOPE   GL112977  12.948  12.156   5.708 -0.2308 -0.0120 -0.1656
  874YOPE   GL212978  12.556  12.172   5.746 -0.0088 -0.1812  0.4328
  874YOPE   C1A12979  13.035  11.952   6.031 -0.2420 -0.0610  0.3669
  874YOPE   D2A12980  13.388  11.807   6.211  0.2595 -0.1014 -0.2681
  874YOPE   C3A12981  13.369  11.587   6.707  0.0746 -0.2252 -0.3077
  874YOPE   C4A12982  13.407  11.728   7.256 -0.2893  0.0950 -0.0442
  874YOPE   C1B12983  12.541  12.211   6.184  0.4290  0.0521 -0.1428
  874YOPE   C2B12984  12.465  12.091   6.617 -0.1719  0.0933 -0.2870
  874YOPE   D3B12985  12.320  11.864   6.968  0.1000  0.0784  0.2322
  874YOPE   C4B12986  12.101  11.969   7.312  0.0524  0.2870 -0.1413
  875YOPE   NH312987   6.563   3.507   5.047 -0.0934 -0.0540  0.1094
  875YOPE   PO412988   6.986   3.453   4.877  0.0504  0.2954  0.1358
  875YOPE   GL112989   7.037   3.609   5.400  0.2153  0.1112  0.0021
  875YOPE   GL212990   7.226   3.644   5.601  0.1523  0.3098  0.2068
  875YOPE   C1A12991   6.856   3.513   5.911  0.0302 -0.3221  0.3003
  875YOPE   D2A12992   6.801   3.259   6.262  0.0541 -0.4865 -0.2732
  875YOPE   C3A12993   6.412   3.160   6.176  0.6419 -0.0669 -0.2668
  875YOPE   C4A12994   6.206   3.094   5.783 -0.0715 -0.1249 -0.0486
  875YOPE   C1B12995   7.258   3.789   5.965 -0.3144 -0.1382  0.0660
  875YOPE   C2B12996   7.250   3.862   6.369  0.3850  0.1836  0.0297
  875YOPE   D3B12997   7.024   4.061   6.724  0.0935 -0.2302  0.1690
  875YOPE   C4B12998   6.705   4.229   6.770 -0.0759 -0.1791  0.0416
  876YOPE   NH312999   7.387  18.932   5.096 -0.0006 -0.0834 -0.0867
  876YOPE   PO413000   7.563  18.545   4.997  0.1102 -0.2157 -0.1051
  876YOPE   GL113001   7.524  18.293   5.333  0.1410 -0.0729 -0.0342
  876YOPE   GL213002   7.768  18.176   5.408  0.0095 -0.0351 -0.2764
  876YOPE   C1A13003   7.368  18.152   5.768 -0.1083  0.0557 -0.1146
  876YOPE   D2A13004   7.413  18.354   6.160  0.0705  0.0305  0.1016
  876YOPE   C3A13005   7.278  17.969   6.221 -0.0254 -0.3801 -0.0301
  876YOPE   C4A13006   7.201  17.581   6.141  0.0266 -0.3944  0.1894
  876YOPE   C1B13007   7.847  18.133   5.923  0.0379  0.2839 -0.0213
  876YOPE   C2B13008   8.028  17.905   6.222  0.0829  0.0556 -0.1456
  876YOPE   D3B13009   8.505  17.778   6.215  0.2683 -0.4755 -0.0171
  876YOPE   C4B13010   8.788  17.571   6.165  0.1093  0.0142  0.5270
  877YOPE   NH313011  16.389   5.239   5.076 -0.0539 -0.0837 -0.4455
  877YOPE   PO413012  15.989   5.271   5.308 -0.0375  0.1412 -0.3701
  877YOPE   GL113013  15.766   5.374   5.623  0.1098 -0.1441  0.0273
  877YOPE   GL213014  16.027   5.354   5.835  0.0030  0.1223  0.0959
  877YOPE   C1A13015  15.484   5.245   5.871 -0.0583 -0.2107  0.0231
  877YOPE   D2A13016  15.155   5.162   6.024 -0.1095 -0.1688 -0.1371
  877YOPE   C3A13017  15.176   4.902   6.419 -0.1553  0.2443 -0.2858
  877YOPE   C4A13018  14.916   4.642   6.694  0.0210  0.0695  0.2055
  877YOPE   C1B13019  16.126   5.345   6.290  0.1723  0.2463  0.0322
  877YOPE   C2B13020  16.388   5.220   6.633  0.3391 -0.2115 -0.1504
  877YOPE   D3B13021  16.701   5.154   6.950 -0.2202  0.1252 -0.4007
  877YOPE   C4B13022  17.110   5.355   7.173  0.5624 -0.0658  0.1066
  878YOPE   NH313023   2.095  16.382   5.317  0.3311  0.2619 -0.1584
  878YOPE   PO413024   1.902  15.971   5.550  0.2589  0.0753 -0.0472
  878YOPE   GL113025   1.951  15.892   5.846 -0.0742  0.1496 -0.4626
  878YOPE   GL213026   2.142  15.603   5.833  0.1267 -0.0252 -0.0833
  878YOPE   C1A13027   1.820  16.001   6.293  0.0667 -0.1100 -0.3990
  878YOPE   D2A13028   1.410  15.967   6.603 -0.1426  0.2046  0.2765
  878YOPE   C3A13029   0.973  15.696   6.550 -0.6908 -0.0797 -0.3293
  878YOPE   C4A13030   0.838  15.432   6.226 -0.0786 -0.1787  0.1846
  878YOPE   C1B13031   2.160  15.598   6.307  0.0751 -0.0462  0.1966
  878YOPE   C2B13032   2.301  15.479   6.769 -0.0304 -0.0281 -0.2383
  878YOPE   D3B13033   2.237  15.748   7.135  0.3387 -0.1661 -0.1357
  878YOPE   C4B13034   2.519  15.786   7.509  0.1396  0.1346  0.0170
  879YOPE   NH313035  16.718  11.631   4.529  0.2647  0.0729 -0.3649
  879YOPE   PO413036  16.808  11.247   4.709 -0.1600  0.0063  0.0664
  879YOPE   GL113037  17.083  11.311   5.156 -0.2625  0.0328 -0.2111
  879YOPE   GL213038  17.154  10.953   5.300 -0.0852 -0.1549 -0.2618
  879YOPE   C1A13039  17.257  11.478   5.399 -0.1168  0.0345 -0.0616
  879YOPE   D2A13040  17.379  11.580   5.747  0.3047  0.2064  0.1070
  879YOPE   C3A13041  17.605  11.681   6.222 -0.0023  0.1312  0.1187
  879YOPE   C4A13042  17.756  11.882   6.657 -0.2948  0.2441  0.0386
  879YOPE   C1B13043  17.002  11.199   5.698  0.0338  0.0586  0.0785
  879YOPE   C2B13044  17.041  11.362   6.108 -0.4470 -0.2963 -0.3835
  879YOPE   D3B13045  17.090  11.702   6.452  0.4873 -0.1557  0.0888
  879YOPE   C4B13046  17.215  11.778   6.884 -0.1408  0.1952 -0.1234
  880YOPE   NH313047   9.716  17.336   5.270 -0.1324  0.0899 -0.0905
  880YOPE   PO413048   9.329  17.223   5.415  0.0463  0.0412  0.0703
  880YOPE   GL113049   9.405  17.292   5.874 -0.0582 -0.1056  0.1801
  880YOPE   GL213050   9.208  17.475   5.976  0.2541  0.0676 -0.1395
  880YOPE   C1A13051   9.306  17.042   6.235 -0.0199 -0.3233 -0.2748
  880YOPE   D2A13052   9.161  16.526   6.193  0.4079 -0.3600 -0.0523
  880YOPE   C3A13053   9.230  16.252   6.587 -0.0364 -0.0704  0.0235
  880YOPE   C4A13054   9.003  16.065   6.949  0.2385 -0.0953  0.1416
  880YOPE   C1B13055   9.342  17.624   6.331 -0.0662 -0.2265 -0.1078
  880YOPE   C2B13056   9.402  17.779   6.745  0.0818 -0.0961 -0.3504
  880YOPE   D3B13057   9.304  17.628   7.094 -0.2343 -0.0564  0.0271
  880YOPE   C4B13058   9.409  17.487   7.538 -0.2700 -0.1763 -0.1120
  881YOPE   NH313059  12.656   7.548   4.940 -0.0748  0.0408  0.0978
  881YOPE   PO413060  12.851   7.097   4.813 -0.1039  0.1795 -0.1188
  881YOPE   GL113061  13.067   7.399   5.128 -0.4364  0.2845  0.1130
  881YOPE   GL213062  13.307   7.203   5.294  0.0401  0.0849  0.0688
  881YOPE   C1A13063  13.119   7.679   5.515  0.3197 -0.0544  0.2068
  881YOPE   D2A13064  13.242   7.886   5.851  0.3535 -0.0827 -0.1567
  881YOPE   C3A13065  13.391   7.548   6.161 -0.0329 -0.0867 -0.2903
  881YOPE   C4A13066  13.461   7.382   6.497 -0.4476  0.0353  0.1574
  881YOPE   C1B13067  13.517   7.126   5.761 -0.1987 -0.1267 -0.4681
  881YOPE   C2B13068  13.818   6.942   5.977 -0.0842  0.1333 -0.1190
  881YOPE   D3B13069  14.200   6.991   6.318  0.1085  0.3244 -0.1215
  881YOPE   C4B13070  14.187   6.743   6.698  0.3134  0.2037  0.2023
  882YOPE   NH313071   5.422   9.033   4.878  0.0266  0.2022 -0.1707
  882YOPE   PO413072   5.420   8.646   4.732 -0.3358 -0.4205  0.0844
  882YOPE   GL113073   5.270   8.683   5.155 -0.1913 -0.0814  0.4343
  882YOPE   GL213074   5.623   8.839   5.281 -0.4299 -0.0138 -0.4554
  882YOPE   C1A13075   5.276   8.972   5.580 -0.0156  0.1726  0.1397
  882YOPE   D2A13076   5.305   9.188   6.077  0.0762 -0.2029  0.1157
  882YOPE   C3A13077   5.465   8.990   6.361  0.5163 -0.1548  0.0620
  882YOPE   C4A13078   5.771   8.732   6.514 -0.3737  0.3261 -0.2323
  882YOPE   C1B13079   5.885   8.922   5.606  0.3725 -0.0839  0.0685
  882YOPE   C2B13080   6.129   8.624   5.852 -0.2983 -0.0501  0.0525
  882YOPE   D3B13081   6.000   8.347   6.203  0.2211 -0.3607 -0.0527
  882YOPE   C4B13082   6.300   8.303   6.614  0.1716  0.0861 -0.0026
  883YOPE   NH313083   3.219  12.253   4.943 -0.2694 -0.0901  0.0269
  883YOPE   PO413084   2.912  12.510   5.089  0.0564 -0.3101 -0.1339
  883YOPE   GL113085   2.845  12.342   5.562  0.0773 -0.5885 -0.1654
  883YOPE   GL213086   2.952  12.590   5.720  0.1928 -0.0280 -0.3131
  883YOPE   C1A13087   2.877  12.102   5.981 -0.0879  0.3024 -0.3132
  883YOPE   D2A13088   2.989  11.948   6.377 -0.1126  0.1276 -0.2694
  883YOPE   C3A13089   3.153  11.868   6.796 -0.2609 -0.0933  0.0678
  883YOPE   C4A13090   3.240  12.118   7.048  0.1098  0.0077  0.3041
  883YOPE   C1B13091   3.051  12.804   6.225  0.4258 -0.2434 -0.0013
  883YOPE   C2B13092   3.403  12.809   6.421  0.3260  0.0228 -0.0682
  883YOPE   D3B13093   3.298  12.973   6.911 -0.1387 -0.1443 -0.0419
  883YOPE   C4B13094   3.524  13.037   7.246 -0.2503 -0.3633 -0.2061
  884YOPE   NH313095  11.844   7.082   4.824  0.0655 -0.0334 -0.0012
  884YOPE   PO413096  11.568   7.353   4.763  0.0890 -0.0182 -0.1765
  884YOPE   GL113097  11.559   7.358   5.186  0.0967  0.1980  0.0053
  884YOPE   GL213098  11.854   7.185   5.341 -0.1618  0.0931  0.2096
  884YOPE   C1A13099  11.254   7.319   5.577 -0.2078  0.2579 -0.0601
  884YOPE   D2A13100  10.960   7.368   5.886 -0.0681 -0.0648  0.2362
  884YOPE   C3A13101  10.977   7.752   5.994 -0.0822  0.0673  0.2051
  884YOPE   C4A13102  11.053   8.175   6.051  0.0980 -0.2512 -0.0286
  884YOPE   C1B13103  12.021   7.080   5.689  0.1140 -0.2351  0.1036
  884YOPE   C2B13104  12.073   7.198   6.030  0.1295  0.1164 -0.0020
  884YOPE   D3B13105  12.007   7.134   6.408  0.2112 -0.3287  0.1830
  884YOPE   C4B13106  11.963   6.941   6.732  0.4242  0.1807 -0.0325
  885YOPE   NH313107  18.138  10.536   4.685  0.3246 -0.0981  0.0783
  885YOPE   PO413108  18.068  10.878   4.841  0.2239 -0.2370 -0.3064
  885YOPE   GL113109  17.985  11.091   5.274 -0.0585 -0.1783  0.2291
  885YOPE   GL213110  17.734  10.874   5.290  0.1914  0.0813 -0.1688
  885YOPE   C1A13111  17.779  11.581   5.409 -0.0761 -0.0066  0.1767
  885YOPE   D2A13112  17.715  11.915   5.616 -0.1583 -0.0080 -0.0103
  885YOPE   C3A13113  17.892  12.055   6.032  0.2295  0.4147  0.0600
  885YOPE   C4A13114  18.062  12.375   6.331  0.0022 -0.3680 -0.3969
  885YOPE   C1B13115  17.676  11.162   5.667  0.1114  0.1716 -0.4492
  885YOPE   C2B13116  17.771  11.175   6.117  0.3991 -0.2736  0.2204
  885YOPE   D3B13117  17.462  11.203   6.393  0.1631  0.0407 -0.3221
  885YOPE   C4B13118  17.506  11.450   6.695 -0.1508  0.0404 -0.1877
  886YOPE   NH313119   8.356  19.087   5.205  0.1298 -0.0574  0.2244
  886YOPE   PO413120   8.696  19.321   4.966  0.2706 -0.1183  0.0099
  886YOPE   GL113121   8.679  19.411   5.377 -0.4034 -0.1259 -0.0598
  886YOPE   GL213122   8.290  19.478   5.515 -0.2642 -0.0651  0.0444
  886YOPE   C1A13123   8.645  19.212   5.819 -0.1282 -0.0775 -0.0199
  886YOPE   D2A13124   8.556  19.003   6.210  0.1497  0.0202 -0.1695
  886YOPE   C3A13125   8.338  18.636   6.055  0.3508  0.1628 -0.2222
  886YOPE   C4A13126   8.187  18.338   6.350  0.1338 -0.0202  0.1494
  886YOPE   C1B13127   8.030  19.403   5.924  0.0285 -0.3927 -0.1806
  886YOPE   C2B13128   8.021  19.068   6.140 -0.3007 -0.2010  0.0432
  886YOPE   D3B13129   8.071  19.015   6.613 -0.0094  0.1176  0.6010
  886YOPE   C4B13130   7.856  18.699   6.913 -0.0374 -0.0693 -0.0946
  887YOPE   NH313131  19.039   3.812   5.103 -0.1389  0.1230 -0.2790
  887YOPE   PO413132  19.247   4.229   4.985  0.2264  0.0343  0.1835
  887YOPE   GL113133  19.287   4.174   5.395  0.1836  0.1858 -0.2157
  887YOPE   GL213134  19.002   3.923   5.671 -0.0387  0.1712  0.0838
  887YOPE   C1A13135  19.308   4.442   5.731 -0.0387 -0.1176 -0.0822
  887YOPE   D2A13136  19.086   4.609   6.017  0.0474  0.0656  0.0563
  887YOPE   C3A13137  19.148   4.964   6.221 -0.1832 -0.0917 -0.4092
  887YOPE   C4A13138  19.194   5.335   6.020 -0.0535  0.0541 -0.3232
  887YOPE   C1B13139  18.861   4.071   6.069  0.0514  0.0631 -0.1364
  887YOPE   C2B13140  18.848   4.332   6.351 -0.1214  0.4323  0.1009
  887YOPE   D3B13141  19.103   4.676   6.606  0.0936 -0.0324  0.0972
  887YOPE   C4B13142  19.305   4.971   6.875 -0.1970 -0.0043  0.1772
  888YOPE   NH313143   5.741  17.233   4.601  0.0284  0.1128  0.1274
  888YOPE   PO413144   5.377  17.286   4.922 -0.1672  0.0077  0.2332
  888YOPE   GL113145   5.435  17.339   5.324 -0.0779 -0.0320 -0.0701
  888YOPE   GL213146   5.334  17.094   5.502 -0.0854  0.2297 -0.1652
  888YOPE   C1A13147   5.329  17.723   5.565  0.0915  0.0205 -0.0943
  888YOPE   D2A13148   5.125  17.882   5.874 -0.1243 -0.0645 -0.3213
  888YOPE   C3A13149   5.158  17.981   6.266  0.0466  0.0965 -0.5243
  888YOPE   C4A13150   5.146  18.356   6.618  0.0192 -0.0085  0.3195
  888YOPE   C1B13151   5.032  17.027   5.808  0.1839  0.0536 -0.2652
  888YOPE   C2B13152   4.792  17.214   6.219 -0.4594  0.3354  0.0364
  888YOPE   D3B13153   4.374  17.273   6.299  0.2100 -0.1379  0.1445
  888YOPE   C4B13154   4.111  17.467   6.618  0.1381  0.3947 -0.2185
  889YOPE   NH313155   3.902  10.597   5.125  0.0769  0.0521  0.2044
  889YOPE   PO413156   3.732  11.041   5.198  0.0276 -0.0749  0.1548
  889YOPE   GL113157   3.855  11.165   5.566 -0.0210  0.4293 -0.6847
  889YOPE   GL213158   3.776  10.926   5.840  0.2526  0.2084  0.0789
  889YOPE   C1A13159   3.799  11.404   6.024 -0.0612  0.0615  0.1126
  889YOPE   D2A13160   3.721  11.596   6.275  0.1992 -0.0052  0.0852
  889YOPE   C3A13161   3.711  11.578   6.751 -0.2886  0.2157  0.0463
  889YOPE   C4A13162   3.983  11.563   6.969  0.0645 -0.1788  0.0426
  889YOPE   C1B13163   4.140  11.094   6.076 -0.0530  0.2308  0.2492
  889YOPE   C2B13164   4.088  11.323   6.426  0.0380  0.1584  0.0132
  889YOPE   D3B13165   4.341  11.449   6.665  0.3086  0.2891  0.1548
  889YOPE   C4B13166   4.631  11.354   6.988 -0.3019  0.0406  0.0285
  890YOPE   NH313167  15.603   1.839   5.421  0.1122 -0.2644  0.0956
  890YOPE   PO413168  15.534   2.304   5.458 -0.2937 -0.0080  0.1012
  890YOPE   GL113169  15.706   2.181   5.769 -0.1597 -0.0988 -0.3362
  890YOPE   GL213170  15.934   2.119   5.850 -0.1650  0.1756 -0.0224
  890YOPE   C1A13171  15.595   2.182   6.239  0.2414  0.0312 -0.1497
  890YOPE   D2A13172  15.722   2.099   6.667 -0.0222 -0.3019  0.0783
  890YOPE   C3A13173  15.543   1.942   6.988  0.0654  0.0038  0.1533
  890YOPE   C4A13174  15.368   1.812   7.408 -0.0428  0.1042 -0.0918
  890YOPE   C1B13175  16.062   2.072   6.261  0.3014 -0.0636 -0.2365
  890YOPE   C2B13176  16.040   1.784   6.488  0.2451  0.1225 -0.5145
  890YOPE   D3B13177  15.977   1.616   6.875 -0.2576 -0.0263  0.1386
  890YOPE   C4B13178  15.657   1.477   7.164  0.0036  0.0097 -0.0252
  891YOPE   NH313179   1.786  14.688   4.808 -0.2173 -0.0693 -0.1034
  891YOPE   PO413180   1.729  14.469   5.152 -0.0287 -0.2027 -0.0160
  891YOPE   GL113181   1.897  14.543   5.569 -0.2223 -0.2509 -0.1252
  891YOPE   GL213182   2.195  14.659   5.610 -0.0057  0.0861  0.1200
  891YOPE   C1A13183   1.704  14.362   5.978  0.3870 -0.1189  0.0073
  891YOPE   D2A13184   1.404  14.331   6.400  0.0103 -0.1130  0.1403
  891YOPE   C3A13185   1.207  14.739   6.547 -0.0595  0.1851 -0.0292
  891YOPE   C4A13186   1.404  15.025   6.894  0.2691  0.2437 -0.0154
  891YOPE   C1B13187   2.134  14.690   6.025  0.3180 -0.1589 -0.0036
  891YOPE   C2B13188   2.040  14.406   6.341 -0.2165 -0.0028  0.2381
  891YOPE   D3B13189   1.840  14.011   6.299  0.2237  0.0046 -0.0752
  891YOPE   C4B13190   1.903  13.784   6.656  0.0683 -0.1241  0.4600
  892YOPE   NH313191  18.198  19.012   4.763 -0.1014  0.0844 -0.2594
  892YOPE   PO413192  18.484  18.737   4.902  0.2352 -0.2861  0.3326
  892YOPE   GL113193  18.461  18.841   5.294  0.0767  0.1690 -0.1336
  892YOPE   GL213194  18.196  18.860   5.458 -0.0606  0.3023  0.0855
  892YOPE   C1A13195  18.751  18.921   5.563 -0.0428 -0.0101  0.2091
  892YOPE   D2A13196  19.035  18.967   5.855  0.2745  0.3886  0.0649
  892YOPE   C3A13197  19.451  19.020   5.706 -0.0218 -0.0683  0.1641
  892YOPE   C4A13198  19.806  19.233   5.928  0.1609  0.0154  0.1680
  892YOPE   C1B13199  17.844  19.170   5.629  0.1503  0.0810 -0.0392
  892YOPE   C2B13200  17.398  19.310   5.721  0.0631  0.1701 -0.0079
  892YOPE   D3B13201  16.992  19.589   5.807 -0.2373  0.3601  0.2627
  892YOPE   C4B13202  16.760  19.295   5.922 -0.1216  0.2164 -0.0451
  893YOPE   NH313203  18.754   9.512   4.996  0.1369 -0.1756  0.0127
  893YOPE   PO413204  18.536   9.820   5.183 -0.1070  0.0067  0.1174
  893YOPE   GL113205  18.396   9.802   5.573 -0.2408  0.2159 -0.3262
  893YOPE   GL213206  18.139   9.836   5.535 -0.2429  0.0998 -0.0226
  893YOPE   C1A13207  18.315   9.743   6.041  0.2312 -0.0401  0.1322
  893YOPE   D2A13208  18.437   9.776   6.437 -0.2357  0.0552  0.0440
  893YOPE   C3A13209  18.589   9.449   6.646  0.1329 -0.1289  0.2916
  893YOPE   C4A13210  18.630   9.003   6.988  0.0150  0.4791  0.1969
  893YOPE   C1B13211  17.888  10.005   5.897  0.5146  0.2291  0.3946
  893YOPE   C2B13212  17.646  10.246   6.158  0.0265  0.2935 -0.3313
  893YOPE   D3B13213  17.381  10.196   6.409  0.0604  0.3710  0.2432
  893YOPE   C4B13214  17.308  10.304   6.886  0.1310  0.2834 -0.1195
  894YOPE   NH313215   7.192  11.492   5.167  0.0089 -0.1811 -0.3073
  894YOPE   PO413216   6.826  11.585   5.424  0.1476  0.2835 -0.5004
  894YOPE   GL113217   6.478  11.433   5.734 -0.0823 -0.1937  0.0718
  894YOPE   GL213218   6.386  11.118   5.700  0.2578  0.1376 -0.1787
  894YOPE   C1A13219   6.687  11.302   6.137  0.0178 -0.0600  0.0538
  894YOPE   D2A13220   6.693  11.163   6.590 -0.1373  0.1321  0.5571
  894YOPE   C3A13221   6.737  11.459   6.917  0.2345  0.1200 -0.1305
  894YOPE   C4A13222   6.715  11.582   7.370  0.1187  0.0254 -0.2265
  894YOPE   C1B13223   6.176  11.127   6.071 -0.0657  0.2545  0.1543
  894YOPE   C2B13224   6.232  11.345   6.421  0.0741  0.0770  0.0555
  894YOPE   D3B13225   6.176  11.014   6.817 -0.1245  0.1309 -0.0137
  894YOPE   C4B13226   6.049  10.945   7.261  0.0844 -0.0478 -0.2695
  895YOPE   NH313227   5.117  15.403   5.433  0.3084  0.2082  0.1505
  895YOPE   PO413228   5.468  15.161   5.195 -0.1000 -0.0995 -0.1018
  895YOPE   GL113229   5.446  15.178   5.708 -0.0014 -0.1801  0.4294
  895YOPE   GL213230   5.547  14.898   5.827 -0.4495  0.2793  0.0996
  895YOPE   C1A13231   5.597  15.328   6.084 -0.3838  0.1597 -0.2047
  895YOPE   D2A13232   5.507  15.502   6.351  0.1123 -0.1013  0.0240
  895YOPE   C3A13233   5.757  15.593   6.784  0.2592  0.3269  0.2428
  895YOPE   C4A13234   6.106  15.568   7.074 -0.1699  0.1482  0.1646
  895YOPE   C1B13235   5.828  14.816   6.107  0.1122  0.1995 -0.1294
  895YOPE   C2B13236   6.050  14.988   6.275 -0.0868  0.1295 -0.0265
  895YOPE   D3B13237   6.269  15.365   6.553 -0.0239  0.0888 -0.1644
  895YOPE   C4B13238   6.494  15.704   6.499  0.4481 -0.0156 -0.0943
  896YOPE   NH313239   1.957   8.063   4.994  0.2169 -0.0519  0.0182
  896YOPE   PO413240   1.561   8.361   5.070  0.2771  0.1492  0.1115
  896YOPE   GL113241   1.521   8.477   5.456 -0.0235 -0.3947 -0.2722
  896YOPE   GL213242   1.758   8.764   5.509 -0.0666 -0.0409 -0.0770
  896YOPE   C1A13243   1.448   8.446   5.861  0.0011  0.0117  0.1733
  896YOPE   D2A13244   1.266   8.869   6.171 -0.1651 -0.1344 -0.1486
  896YOPE   C3A13245   1.268   8.987   6.666  0.0721  0.0327  0.1390
  896YOPE   C4A13246   0.883   9.307   6.733 -0.3625 -0.2402 -0.1725
  896YOPE   C1B13247   1.809   8.906   5.907 -0.0022 -0.3305  0.1274
  896YOPE   C2B13248   2.145   8.857   6.202  0.0647 -0.2816 -0.2178
  896YOPE   D3B13249   2.217   8.590   6.574  0.4641  0.1900 -0.0523
  896YOPE   C4B13250   2.443   8.489   6.928 -0.1684 -0.2192  0.1153
  897YOPE   NH313251   7.040   2.932   5.678  0.0215  0.2404 -0.3375
  897YOPE   PO413252   7.353   3.182   5.419 -0.3183 -0.2067  0.0038
  897YOPE   GL113253   7.567   3.218   5.751 -0.0981  0.1137  0.0871
  897YOPE   GL213254   7.304   3.186   5.983  0.0054  0.2453  0.0995
  897YOPE   C1A13255   7.803   3.107   6.122 -0.0263 -0.0559  0.1900
  897YOPE   D2A13256   7.782   2.988   6.569 -0.0936 -0.2156  0.1341
  897YOPE   C3A13257   8.104   2.790   6.800 -0.0617  0.2151 -0.0041
  897YOPE   C4A13258   8.462   2.498   6.799 -0.0155  0.0302 -0.1175
  897YOPE   C1B13259   7.250   3.135   6.415  0.0119  0.2451 -0.0963
  897YOPE   C2B13260   7.325   2.890   6.800  0.1236 -0.2293  0.3124
  897YOPE   D3B13261   7.142   2.829   7.122 -0.2632 -0.1104  0.1816
  897YOPE   C4B13262   6.855   3.054   7.335 -0.1096 -0.1705 -0.2789
  898YOPE   NH313263  11.272   5.456   4.763  0.1941 -0.0109 -0.1076
  898YOPE   PO413264  11.314   4.950   4.699 -0.1298 -0.1251  0.1261
  898YOPE   GL113265  11.362   4.964   5.133 -0.1884  0.1940 -0.1381
  898YOPE   GL213266  11.683   5.026   5.255 -0.1317  0.0161  0.2623
  898YOPE   C1A13267  11.405   4.753   5.548 -0.0556  0.2582 -0.2986
  898YOPE   D2A13268  11.553   4.706   5.924 -0.1821 -0.0608  0.1737
  898YOPE   C3A13269  11.468   4.611   6.293 -0.1191 -0.3561 -0.1329
  898YOPE   C4A13270  11.543   4.694   6.712  0.1119 -0.1978 -0.1485
  898YOPE   C1B13271  11.608   5.251   5.659  0.1691 -0.0018 -0.1121
  898YOPE   C2B13272  11.367   5.228   6.049  0.1428 -0.4058 -0.0041
  898YOPE   D3B13273  11.211   5.195   6.487  0.0789  0.0908  0.2319
  898YOPE   C4B13274  11.055   5.123   6.902 -0.1989 -0.0472 -0.0138
  899YOPE   NH313275   9.067  17.669   5.555  0.3812  0.0516  0.1489
  899YOPE   PO413276   8.869  17.872   5.194  0.1749 -0.1975 -0.0518
  899YOPE   GL113277   8.771  18.107   5.549 -0.1110 -0.1779 -0.1888
  899YOPE   GL213278   8.957  18.420   5.647 -0.0113  0.1368 -0.1919
  899YOPE   C1A13279   8.724  18.181   6.017  0.3006  0.5485 -0.1528
  899YOPE   D2A13280   8.646  18.229   6.422 -0.3854 -0.2447  0.2157
  899YOPE   C3A13281   8.840  17.956   6.597 -0.2351 -0.2895  0.3823
  899YOPE   C4A13282   9.001  17.537   6.622 -0.2922  0.2461  0.1921
  899YOPE   C1B13283   8.823  18.718   5.968  0.4401  0.3453  0.2600
  899YOPE   C2B13284   8.788  18.721   6.502 -0.0967 -0.2642 -0.1658
  899YOPE   D3B13285   8.424  18.701   6.682 -0.2948  0.3005  0.3844
  899YOPE   C4B13286   8.304  18.549   7.002 -0.0639 -0.0970 -0.2237
  900YOPE   NH313287  11.867  13.104   5.342  0.2411  0.0661  0.0284
  900YOPE   PO413288  12.166  13.434   5.422 -0.1757  0.2271 -0.0993
  900YOPE   GL113289  12.113  13.175   5.809 -0.4078 -0.1085  0.3986
  900YOPE   GL213290  11.832  13.388   6.022  0.2709  0.0739  0.0710
  900YOPE   C1A13291  12.325  13.212   6.300 -0.1579 -0.1883  0.2489
  900YOPE   D2A13292  12.407  12.950   6.606 -0.1457 -0.3083 -0.1024
  900YOPE   C3A13293  12.700  12.621   6.608 -0.0035  0.1785 -0.1680
  900YOPE   C4A13294  12.769  12.384   6.918 -0.0958  0.2999 -0.1071
  900YOPE   C1B13295  11.617  13.443   6.398  0.2221  0.0296 -0.2565
  900YOPE   C2B13296  11.760  13.455   6.916  0.0194  0.1669  0.0758
  900YOPE   D3B13297  11.862  13.766   7.218 -0.3099 -0.2279 -0.0636
  900YOPE   C4B13298  11.726  14.079   7.558  0.2902 -0.1755  0.0775
  901YOPE   NH313299   6.863   0.233   4.975 -0.3002  0.0150 -0.0232
  901YOPE   PO413300   6.799  -0.186   5.032  0.0073  0.1373  0.0607
  901YOPE   GL113301   6.701  -0.041   5.405  0.1355  0.2849 -0.0593
  901YOPE   GL213302   6.561   0.157   5.356  0.1886 -0.0740 -0.1361
  901YOPE   C1A13303   6.778   0.125   5.843  0.0497 -0.0619 -0.0626
  901YOPE   D2A13304   6.589   0.233   6.265  0.0729 -0.0260  0.2260
  901YOPE   C3A13305   6.578   0.714   6.292  0.1141 -0.0741  0.0544
  901YOPE   C4A13306   6.641   1.106   6.517  0.1405  0.1029  0.2625
  901YOPE   C1B13307   6.266   0.108   5.613  0.3466  0.3537 -0.1304
  901YOPE   C2B13308   5.871   0.123   5.853  0.0863 -0.1770  0.0130
  901YOPE   D3B13309   5.675   0.041   6.195  0.2628  0.2057 -0.1128
  901YOPE   C4B13310   5.433  -0.036   6.594 -0.0065  0.1024  0.2259
  902YOPE   NH313311   2.265  19.146   5.036 -0.0278  0.0069  0.1581
  902YOPE   PO413312   2.359  18.663   5.222 -0.0321 -0.2188 -0.1757
  902YOPE   GL113313   2.120  18.499   5.537 -0.1993 -0.2464 -0.2687
  902YOPE   GL213314   2.293  18.276   5.723 -0.1960 -0.3198  0.0094
  902YOPE   C1A13315   1.949  18.674   5.801  0.0746  0.3201 -0.0322
  902YOPE   D2A13316   2.030  18.954   6.050 -0.3604  0.2324 -0.0178
  902YOPE   C3A13317   1.778  19.086   6.319 -0.2368 -0.1018 -0.0247
  902YOPE   C4A13318   1.548  19.458   6.425 -0.1008 -0.2003 -0.0031
  902YOPE   C1B13319   2.713  18.070   5.536  0.0279  0.0119 -0.0322
  902YOPE   C2B13320   3.059  18.146   5.767 -0.0298 -0.1574  0.0691
  902YOPE   D3B13321   2.919  18.463   6.059 -0.1787 -0.1434  0.1662
  902YOPE   C4B13322   2.809  18.858   6.400  0.4160  0.5402  0.1379
  903YOPE   NH313323   0.687   1.853   4.958  0.2543 -0.2217  0.3212
  903YOPE   PO413324   0.624   1.400   4.949 -0.1450 -0.0328 -0.0499
  903YOPE   GL113325   0.709   1.397   5.340  0.2067 -0.3739 -0.2969
  903YOPE   GL213326   0.445   1.364   5.602  0.1780  0.2021  0.1448
  903YOPE   C1A13327   0.888   1.158   5.747 -0.1653  0.3978  0.0427
  903YOPE   D2A13328   0.933   0.800   6.005 -0.3002  0.1166 -0.3467
  903YOPE   C3A13329   1.145   0.654   6.352 -0.1224 -0.5501 -0.0013
  903YOPE   C4A13330   1.011   0.567   6.769 -0.2115  0.0305 -0.0863
  903YOPE   C1B13331   0.045   1.265   5.833  0.2497  0.1567  0.2934
  903YOPE   C2B13332   0.046   1.203   6.286  0.0182 -0.0421 -0.1406
  903YOPE   D3B13333   0.380   1.295   6.578 -0.2739 -0.0787 -0.3652
  903YOPE   C4B13334   0.479   1.331   7.019  0.3004  0.0536 -0.0646
  904YOPE   NH313335  16.344  18.813   5.280  0.0099 -0.1319  0.1303
  904YOPE   PO413336  15.994  18.632   5.108  0.0485  0.1486  0.4490
  904YOPE   GL113337  15.795  18.631   5.487  0.0594  0.1608 -0.3675
  904YOPE   GL213338  15.888  18.976   5.499 -0.2591  0.0989 -0.0183
  904YOPE   C1A13339  15.657  18.574   5.964 -0.0497 -0.0756  0.1252
  904YOPE   D2A13340  15.576  18.486   6.438 -0.0966  0.0872 -0.0989
  904YOPE   C3A13341  15.272  18.550   6.827  0.0280 -0.1120  0.1494
  904YOPE   C4A13342  15.344  18.407   7.233 -0.4722  0.0340  0.0198
  904YOPE   C1B13343  15.943  19.048   5.881  0.1671 -0.1299 -0.0169
  904YOPE   C2B13344  16.300  19.078   6.107  0.2833 -0.1497 -0.1579
  904YOPE   D3B13345  16.498  19.106   6.571  0.3314  0.1443  0.1708
  904YOPE   C4B13346  16.867  19.150   6.839  0.1477 -0.0831 -0.0663
  905YOPE   NH313347   4.166  11.475   5.333  0.1731 -0.3663  0.2968
  905YOPE   PO413348   4.250  11.097   5.033 -0.1792 -0.0055  0.2289
  905YOPE   GL113349   4.191  10.886   5.450 -0.4016  0.0954  0.2156
  905YOPE   GL213350   4.514  10.883   5.680 -0.0381  0.1361 -0.0714
  905YOPE   C1A13351   4.183  10.530   5.821 -0.0408  0.0287 -0.2476
  905YOPE   D2A13352   4.391  10.477   6.105  0.1072  0.1023 -0.3463
  905YOPE   C3A13353   4.448  10.071   6.382  0.2528  0.0446  0.3003
  905YOPE   C4A13354   4.439   9.883   6.770 -0.0138  0.1135 -0.1726
  905YOPE   C1B13355   4.574  11.177   5.789 -0.2517 -0.1044  0.0723
  905YOPE   C2B13356   4.576  11.348   6.195 -0.0475  0.0079 -0.0029
  905YOPE   D3B13357   4.797  11.266   6.515 -0.1635 -0.2123  0.1273
  905YOPE   C4B13358   5.040  11.492   6.721  0.0061 -0.0780  0.0466
  906YOPE   NH313359   9.487  15.865   5.581 -0.3431 -0.3586  0.0026
  906YOPE   PO413360   9.370  16.273   5.821  0.2369  0.1873  0.1233
  906YOPE   GL113361   9.551  16.233   6.182 -0.1104 -0.1891  0.1717
  906YOPE   GL213362   9.497  15.860   6.277 -0.1512 -0.0097 -0.1056
  906YOPE   C1A13363  10.029  16.004   6.229 -0.2794 -0.1948 -0.0312
  906YOPE   D2A13364  10.355  15.928   6.553  0.0480 -0.1677 -0.1664
  906YOPE   C3A13365  10.664  15.593   6.473 -0.0212  0.0335  0.2169
  906YOPE   C4A13366  10.740  15.327   6.204  0.0728 -0.2069  0.1494
  906YOPE   C1B13367   9.776  15.981   6.652  0.0715 -0.1017  0.3123
  906YOPE   C2B13368  10.079  15.898   6.967 -0.0449  0.4071  0.1226
  906YOPE   D3B13369   9.974  16.028   7.388  0.3286  0.1236 -0.1074
  906YOPE   C4B13370  10.016  16.377   7.774  0.0902  0.0491 -0.0195
  907YOPE   NH313371  13.641  10.941   5.182  0.1181 -0.0481 -0.2902
  907YOPE   PO413372  13.692  11.364   5.395  0.0650  0.1840  0.3157
  907YOPE   GL113373  13.477  11.032   5.754  0.1888  0.2737 -0.2563
  907YOPE   GL213374  13.226  11.173   5.918 -0.0525  0.1415 -0.0412
  907YOPE   C1A13375  13.563  10.809   6.094 -0.0304  0.3432  0.1057
  907YOPE   D2A13376  13.773  10.761   6.498  0.0270  0.0651 -0.0812
  907YOPE   C3A13377  14.112  10.711   6.560  0.0772 -0.2059  0.0321
  907YOPE   C4A13378  14.340  10.893   6.867 -0.1138 -0.6587 -0.0595
  907YOPE   C1B13379  13.101  11.380   6.309  0.0625 -0.2954 -0.0568
  907YOPE   C2B13380  12.947  11.350   6.715 -0.1706  0.2044 -0.2036
  907YOPE   D3B13381  13.007  11.424   7.130  0.1259  0.1400  0.2108
  907YOPE   C4B13382  12.633  11.590   7.276  0.0769  0.1165 -0.1855
  908YOPE   NH313383  10.066  15.513   5.007 -0.1964  0.0684 -0.2120
  908YOPE   PO413384  10.343  15.227   5.280  0.2114 -0.1370  0.0358
  908YOPE   GL113385  10.367  15.427   5.743  0.0200  0.0453 -0.1709
  908YOPE   GL213386  10.600  15.132   5.793  0.2318 -0.1178 -0.2125
  908YOPE   C1A13387  10.273  15.366   6.169  0.4794 -0.0502  0.5097
  908YOPE   D2A13388  10.436  15.159   6.516  0.2610 -0.1173 -0.3146
  908YOPE   C3A13389  10.313  15.331   6.838 -0.2087  0.1200 -0.5106
  908YOPE   C4A13390  10.562  15.733   7.004  0.0942  0.4185  0.0578
  908YOPE   C1B13391  10.493  14.888   6.116 -0.2380  0.0836 -0.4516
  908YOPE   C2B13392  10.226  14.703   6.412 -0.1354 -0.2869  0.1064
  908YOPE   D3B13393  10.104  14.726   6.811  0.1581 -0.1897  0.0781
  908YOPE   C4B13394   9.646  14.662   6.976 -0.0204 -0.1666  0.0160
  909YOPE   NH313395  18.271  15.753   5.660 -0.1408 -0.0800 -0.1059
  909YOPE   PO413396  18.630  15.632   5.518 -0.0076 -0.1686 -0.1259
  909YOPE   GL113397  18.863  15.379   5.833  0.2739  0.1589  0.0978
  909YOPE   GL213398  19.108  15.236   5.853  0.0878 -0.1212  0.1708
  909YOPE   C1A13399  18.663  15.115   6.184  0.0375  0.1009  0.3718
  909YOPE   D2A13400  18.697  14.880   6.473 -0.1036  0.0348 -0.0033
  909YOPE   C3A13401  18.789  15.148   6.822  0.0186 -0.3456  0.2896
  909YOPE   C4A13402  18.946  15.185   7.289  0.0350 -0.1668  0.2568
  909YOPE   C1B13403  19.466  15.114   6.162  0.0047 -0.3832  0.1245
  909YOPE   C2B13404  19.545  14.995   6.623 -0.1652 -0.0927  0.0602
  909YOPE   D3B13405  19.974  15.126   6.815  0.0466 -0.0963 -0.0862
  909YOPE   C4B13406  20.115  15.380   7.116  0.3887  0.0777  0.0513
  910YOPE   NH313407   9.694  11.461   5.063 -0.3572 -0.1091  0.2335
  910YOPE   PO413408   9.281  11.353   5.159 -0.0752 -0.3313 -0.2750
  910YOPE   GL113409   9.252  11.074   5.532 -0.0968 -0.0131  0.3333
  910YOPE   GL213410   9.539  11.161   5.738  0.5084 -0.1140  0.3533
  910YOPE   C1A13411   9.101  10.825   5.829 -0.0111  0.2654 -0.0879
  910YOPE   D2A13412   9.321  10.367   5.883  0.3106  0.2742 -0.3968
  910YOPE   C3A13413   9.295  10.188   6.214  0.3916 -0.0851 -0.2392
  910YOPE   C4A13414   9.450  10.266   6.617  0.2413 -0.0898 -0.0696
  910YOPE   C1B13415   9.518  11.508   6.051 -0.1389  0.0787  0.2001
  910YOPE   C2B13416   9.473  11.403   6.525  0.2339 -0.1621  0.0134
  910YOPE   D3B13417   9.446  11.107   6.876 -0.0646  0.0922  0.1957
  910YOPE   C4B13418   9.481  10.688   7.171  0.1889 -0.0627  0.1168
  911YOPE   NH313419  13.750   5.426   5.398 -0.1927 -0.0977 -0.0988
  911YOPE   PO413420  14.047   5.182   5.290 -0.0891 -0.3951  0.0588
  911YOPE   GL113421  13.775   4.954   5.538  0.2422  0.0452  0.1958
  911YOPE   GL213422  13.581   5.170   5.773 -0.3411  0.0033 -0.1880
  911YOPE   C1A13423  13.797   4.648   5.842  0.3597  0.2498 -0.0870
  911YOPE   D2A13424  14.117   4.450   5.735  0.0736  0.0803 -0.1390
  911YOPE   C3A13425  14.056   4.234   6.134 -0.1241  0.2109  0.0597
  911YOPE   C4A13426  14.134   3.984   6.479 -0.2685 -0.1077  0.1387
  911YOPE   C1B13427  13.477   5.225   6.126  0.3755 -0.1414 -0.2342
  911YOPE   C2B13428  13.556   5.110   6.571  0.0214 -0.0620 -0.2659
  911YOPE   D3B13429  13.642   5.158   7.020 -0.1126  0.0931  0.0458
  911YOPE   C4B13430  14.101   5.248   7.188 -0.1098  0.0581 -0.2300
  912YOPE   NH313431  15.620   1.192   4.895 -0.0419  0.2310  0.4337
  912YOPE   PO413432  15.798   1.452   5.189 -0.0353  0.1059 -0.1030
  912YOPE   GL113433  15.980   1.201   5.482  0.2608  0.0038  0.0452
  912YOPE   GL213434  16.017   1.462   5.864 -0.2190 -0.0949  0.2567
  912YOPE   C1A13435  15.802   0.786   5.696  0.0357 -0.0604  0.2323
  912YOPE   D2A13436  15.784   0.325   5.986 -0.3358  0.0834 -0.1473
  912YOPE   C3A13437  15.739   0.322   6.456 -0.3028 -0.3140  0.0898
  912YOPE   C4A13438  15.556   0.265   6.754  0.0580  0.2228 -0.1338
  912YOPE   C1B13439  16.356   1.671   6.109  0.2268 -0.1245  0.0829
  912YOPE   C2B13440  16.582   1.259   6.266  0.0233 -0.0233  0.1139
  912YOPE   D3B13441  16.479   0.932   6.589 -0.1220  0.0745  0.2268
  912YOPE   C4B13442  16.394   0.398   6.662 -0.1941 -0.1340 -0.0226
  913YOPE   NH313443  11.157  17.316   5.011 -0.1699  0.1880  0.2729
  913YOPE   PO413444  11.246  17.431   5.533 -0.1380 -0.3067  0.0495
  913YOPE   GL113445  11.383  17.431   5.968  0.0092 -0.4690  0.0795
  913YOPE   GL213446  11.412  17.055   6.144  0.1014 -0.2624  0.5527
  913YOPE   C1A13447  11.384  17.704   6.322  0.0880 -0.1798 -0.1008
  913YOPE   D2A13448  11.183  17.881   6.728 -0.1989  0.0337  0.1700
  913YOPE   C3A13449  11.468  18.052   6.903 -0.0816  0.0297  0.0478
  913YOPE   C4A13450  11.820  18.262   7.139  0.0400 -0.0900 -0.0738
  913YOPE   C1B13451  11.465  17.161   6.632  0.1188  0.1870 -0.0779
  913YOPE   C2B13452  11.753  17.226   7.067 -0.1228 -0.2700 -0.1429
  913YOPE   D3B13453  11.856  17.604   7.242 -0.3032 -0.1124  0.2596
  913YOPE   C4B13454  12.250  17.770   7.354 -0.2940  0.0698  0.0520
  914YOPE   NH313455  12.308   1.386   5.220  0.0035 -0.2331  0.0797
  914YOPE   PO413456  12.317   1.819   5.182  0.0913 -0.0941 -0.1631
  914YOPE   GL113457  12.231   1.721   5.664 -0.3571  0.0594 -0.2087
  914YOPE   GL213458  12.201   1.359   5.702  0.1568  0.3365  0.3764
  914YOPE   C1A13459  12.076   1.831   5.975  0.3182 -0.1379 -0.0064
  914YOPE   D2A13460  12.187   1.859   6.356  0.2045 -0.1565 -0.2592
  914YOPE   C3A13461  11.858   1.631   6.573 -0.1679  0.1350 -0.0287
  914YOPE   C4A13462  11.675   1.419   6.948 -0.0608 -0.2027  0.0615
  914YOPE   C1B13463  12.245   1.356   6.166  0.1858  0.0372  0.1650
  914YOPE   C2B13464  12.448   1.530   6.616  0.0196 -0.1381  0.2248
  914YOPE   D3B13465  12.714   1.648   7.041 -0.0270 -0.0005  0.0699
  914YOPE   C4B13466  13.077   1.665   7.266 -0.0467  0.2077 -0.0235
  915YOPE   NH313467  18.197   9.443   5.033  0.1729  0.0002 -0.0615
  915YOPE   PO413468  18.064   9.056   5.335 -0.1528 -0.0066  0.0149
  915YOPE   GL113469  18.300   8.636   5.504 -0.0854 -0.3253 -0.0386
  915YOPE   GL213470  18.153   8.738   5.838 -0.0366  0.0275 -0.3460
  915YOPE   C1A13471  18.606   8.582   5.824 -0.0616 -0.1673  0.1886
  915YOPE   D2A13472  18.462   8.491   6.225 -0.0431  0.1344  0.1705
  915YOPE   C3A13473  18.706   8.548   6.661  0.1254 -0.1456  0.1803
  915YOPE   C4A13474  19.084   8.670   6.846  0.1112 -0.2478  0.1124
  915YOPE   C1B13475  18.000   8.597   6.282 -0.4427  0.1137  0.0091
  915YOPE   C2B13476  17.984   8.421   6.555 -0.0954  0.0777  0.3515
  915YOPE   D3B13477  17.675   8.107   6.835 -0.4597 -0.5333  0.1511
  915YOPE   C4B13478  17.649   7.998   7.261 -0.2946 -0.0367  0.1451
  916YOPE   NH313479   9.016  14.705   5.456 -0.2493 -0.2369  0.0728
  916YOPE   PO413480   8.773  15.146   5.524  0.1799 -0.1142  0.1679
  916YOPE   GL113481   8.893  15.408   5.907  0.1738 -0.2135 -0.1282
  916YOPE   GL213482   9.162  15.610   5.943  0.0900 -0.0094 -0.1000
  916YOPE   C1A13483   8.660  15.346   6.210  0.0749 -0.2966  0.0144
  916YOPE   D2A13484   8.536  15.339   6.592  0.0289  0.3282 -0.1597
  916YOPE   C3A13485   8.644  15.054   6.892  0.1180 -0.2398 -0.0056
  916YOPE   C4A13486   8.490  14.966   7.365 -0.0039  0.4153  0.0415
  916YOPE   C1B13487   9.023  15.912   6.297  0.2497 -0.0230  0.0545
  916YOPE   C2B13488   8.719  16.181   6.592  0.0865  0.0865  0.1201
  916YOPE   D3B13489   8.881  16.561   6.715 -0.1226 -0.1890  0.0532
  916YOPE   C4B13490   9.116  16.898   6.668 -0.4075 -0.2989 -0.0398
  917YOPE   NH313491   5.543  10.712   5.131 -0.0028  0.0361 -0.1028
  917YOPE   PO413492   6.009  10.907   5.163 -0.0057  0.4729 -0.2324
  917YOPE   GL113493   6.043  10.718   5.493  0.0987  0.1327 -0.1503
  917YOPE   GL213494   5.953  10.872   5.696  0.1013  0.1403 -0.0297
  917YOPE   C1A13495   6.194  10.578   6.000 -0.1031  0.1121  0.2022
  917YOPE   D2A13496   6.276  10.234   6.263  0.1739 -0.3271 -0.2002
  917YOPE   C3A13497   6.242  10.278   6.571 -0.2029 -0.0864  0.0413
  917YOPE   C4A13498   6.120  10.542   6.887  0.0428  0.0732 -0.1369
  917YOPE   C1B13499   5.750  10.873   6.160 -0.0276  0.1949 -0.2870
  917YOPE   C2B13500   6.047  10.805   6.391 -0.1596  0.2532 -0.0510
  917YOPE   D3B13501   6.501  10.670   6.382 -0.0272 -0.1378 -0.1278
  917YOPE   C4B13502   6.860  10.815   6.248 -0.0634 -0.2705 -0.2029
  918YOPE   NH313503   5.822  11.358   5.446  0.2044  0.0433  0.2340
  918YOPE   PO413504   5.527  11.081   5.549  0.0639 -0.3191  0.1678
  918YOPE   GL113505   5.323  10.976   5.890 -0.2921  0.0119 -0.0656
  918YOPE   GL213506   5.015  10.987   5.886 -0.2272 -0.0057 -0.1682
  918YOPE   C1A13507   5.229  10.590   6.061  0.4022  0.0014 -0.1230
  918YOPE   D2A13508   4.860  10.275   6.168  0.0507 -0.0550 -0.2779
  918YOPE   C3A13509   4.937  10.119   6.506  0.1896 -0.0869 -0.1455
  918YOPE   C4A13510   5.001   9.853   6.770 -0.0331 -0.0298 -0.5878
  918YOPE   C1B13511   4.800  10.833   6.154  0.0462 -0.4702 -0.0460
  918YOPE   C2B13512   4.936  10.636   6.553 -0.3982  0.1806  0.1635
  918YOPE   D3B13513   4.955  10.615   7.051 -0.0374 -0.1208 -0.1938
  918YOPE   C4B13514   5.013  11.098   6.992 -0.1103  0.1932 -0.0468
  919YOPE   NH313515  17.014  19.254   5.186 -0.0379 -0.0695  0.0045
  919YOPE   PO413516  16.595  19.164   4.978  0.0512 -0.2201  0.0141
  919YOPE   GL113517  16.610  19.189   5.465  0.3187  0.1050 -0.0279
  919YOPE   GL213518  16.568  18.884   5.693  0.0983  0.1800  0.7210
  919YOPE   C1A13519  16.301  19.410   5.767 -0.1006  0.0223  0.1657
  919YOPE   D2A13520  16.017  19.545   6.237  0.1006 -0.1616  0.0374
  919YOPE   C3A13521  16.016  19.274   6.506  0.2046 -0.0678  0.1275
  919YOPE   C4A13522  15.972  19.150   6.899  0.0262  0.2329  0.1652
  919YOPE   C1B13523  16.899  18.739   5.899  0.3905  0.2491  0.1151
  919YOPE   C2B13524  17.161  18.560   6.165 -0.1111 -0.2098  0.1886
  919YOPE   D3B13525  17.566  18.626   6.379  0.1027 -0.0758  0.4916
  919YOPE   C4B13526  17.705  18.558   6.888 -0.0444  0.0290 -0.1540
  920YOPE   NH313527  10.957   3.336   4.396 -0.0730  0.1686 -0.2860
  920YOPE   PO413528  11.003   3.545   4.776  0.0474  0.3534  0.1733
  920YOPE   GL113529  10.966   3.649   5.273 -0.0897 -0.1340 -0.3037
  920YOPE   GL213530  11.327   3.835   5.225  0.0418 -0.1245 -0.1616
  920YOPE   C1A13531  10.791   3.743   5.609  0.0987 -0.0041  0.0103
  920YOPE   D2A13532  10.864   3.850   6.083 -0.0743  0.1845  0.2129
  920YOPE   C3A13533  11.315   3.972   6.257 -0.3640  0.2167  0.0058
  920YOPE   C4A13534  11.597   3.767   6.515  0.2994  0.0987 -0.1272
  920YOPE   C1B13535  11.483   3.648   5.616 -0.1912  0.2297  0.3934
  920YOPE   C2B13536  11.292   3.531   5.996 -0.2339  0.1668  0.1367
  920YOPE   D3B13537  11.303   3.375   6.394 -0.3417  0.0393 -0.2319
  920YOPE   C4B13538  11.062   3.656   6.569 -0.3066  0.1015 -0.3855
  921YOPE   NH313539   0.171  12.251   5.085 -0.0086  0.3585  0.1149
  921YOPE   PO413540  -0.140  12.010   4.830  0.1409  0.0088 -0.1532
  921YOPE   GL113541  -0.197  11.932   5.190  0.0019 -0.0838  0.0882
  921YOPE   GL213542  -0.110  11.962   5.409 -0.0212 -0.0857 -0.1116
  921YOPE   C1A13543  -0.543  11.695   5.401  0.0092 -0.1103  0.3065
  921YOPE   D2A13544  -0.588  11.701   5.801  0.0996 -0.0427 -0.0680
  921YOPE   C3A13545  -0.860  11.445   6.044 -0.0788 -0.1125 -0.0002
  921YOPE   C4A13546  -0.914  11.141   5.841 -0.1633 -0.1054  0.1884
  921YOPE   C1B13547  -0.143  11.919   5.742 -0.5933 -0.0122  0.3328
  921YOPE   C2B13548   0.099  11.859   6.207  0.3871 -0.2977 -0.0672
  921YOPE   D3B13549  -0.162  11.683   6.436  0.1995 -0.3508  0.0820
  921YOPE   C4B13550  -0.264  11.213   6.670 -0.4717 -0.6623 -0.0073
  922YOPE   NH313551  10.866  19.410   5.240 -0.3560  0.2187 -0.0100
  922YOPE   PO413552  11.306  19.273   5.177  0.0537  0.4013  0.0243
  922YOPE   GL113553  10.979  19.205   5.700 -0.1897 -0.2071  0.1176
  922YOPE   GL213554  10.993  19.423   5.986  0.1389  0.2465 -0.0213
  922YOPE   C1A13555  10.754  18.990   6.066  0.2404  0.2717  0.1410
  922YOPE   D2A13556  10.633  18.638   6.286  0.1089  0.0892  0.0364
  922YOPE   C3A13557  10.699  18.268   6.530  0.2670  0.0554 -0.1073
  922YOPE   C4A13558  10.765  17.970   6.885  0.2656  0.0065 -0.0237
  922YOPE   C1B13559  10.690  19.606   6.351  0.1122  0.1925  0.0579
  922YOPE   C2B13560  10.847  19.752   6.756  0.2389 -0.4381 -0.0827
  922YOPE   D3B13561  10.453  19.765   6.922  0.2235 -0.2959  0.3266
  922YOPE   C4B13562  10.155  20.160   6.869  0.0391  0.1963  0.0882
  923YOPE   NH313563  16.746  17.929   5.132  0.0169 -0.2123  0.1039
  923YOPE   PO413564  17.170  18.096   5.023  0.0210 -0.0141 -0.2913
  923YOPE   GL113565  17.025  18.252   5.477  0.1984  0.0180 -0.1491
  923YOPE   GL213566  17.317  18.405   5.616  0.3286 -0.1167 -0.0403
  923YOPE   C1A13567  16.917  18.215   5.961  0.0151 -0.1159  0.2936
  923YOPE   D2A13568  16.827  18.188   6.527 -0.1470  0.1122 -0.2314
  923YOPE   C3A13569  16.912  17.825   6.807  0.0703  0.1268 -0.0179
  923YOPE   C4A13570  17.217  17.548   7.021  0.2309 -0.4607 -0.1604
  923YOPE   C1B13571  17.496  18.741   5.851 -0.0793 -0.1056  0.0384
  923YOPE   C2B13572  17.450  19.058   6.188  0.1469 -0.0431 -0.0680
  923YOPE   D3B13573  17.550  19.433   6.529  0.0186  0.2050  0.2812
  923YOPE   C4B13574  17.472  19.734   6.737  0.1431 -0.0168  0.3189
  924YOPE   NH313575  11.004  12.062   5.236  0.1381  0.0094 -0.1443
  924YOPE   PO413576  10.678  12.020   5.361 -0.0451  0.0837 -0.0311
  924YOPE   GL113577  10.850  12.098   5.768 -0.2542  0.0489 -0.4384
  924YOPE   GL213578  11.096  12.347   5.667  0.1445  0.0067  0.0794
  924YOPE   C1A13579  10.936  11.849   6.036 -0.2478  0.3148  0.1202
  924YOPE   D2A13580  11.169  11.515   6.367  0.2089  0.2525 -0.0632
  924YOPE   C3A13581  10.999  11.538   6.743 -0.0857 -0.2390 -0.0776
  924YOPE   C4A13582  10.784  11.733   7.091  0.0632  0.0890  0.3088
  924YOPE   C1B13583  10.719  12.576   5.971 -0.6473 -0.1389  0.1177
  924YOPE   C2B13584  10.729  12.254   6.214  0.2405 -0.0045 -0.1439
  924YOPE   D3B13585  10.470  11.851   6.219 -0.1283 -0.2069 -0.0835
  924YOPE   C4B13586  10.304  12.029   6.588  0.1467 -0.2081  0.2126
  925YOPE   NH313587   3.631  16.565   5.491  0.3409 -0.0790  0.0947
  925YOPE   PO413588   3.992  16.492   5.199 -0.0311  0.2903 -0.5689
  925YOPE   GL113589   4.187  16.641   5.601 -0.0101  0.0225  0.1337
  925YOPE   GL213590   4.473  16.510   5.585 -0.1919 -0.1554 -0.4531
  925YOPE   C1A13591   4.068  16.520   5.952 -0.4052  0.2710  0.0107
  925YOPE   D2A13592   4.128  16.264   6.336  0.1595 -0.0256 -0.0680
  925YOPE   C3A13593   3.845  16.317   6.597  0.2596 -0.1775  0.0206
  925YOPE   C4A13594   3.587  16.583   6.859  0.0916  0.2631  0.1359
  925YOPE   C1B13595   4.521  16.276   5.943 -0.0733 -0.0945  0.1737
  925YOPE   C2B13596   4.873  16.141   6.242 -0.0763 -0.2729  0.1589
  925YOPE   D3B13597   4.944  16.113   6.705  0.1339  0.1953  0.2006
  925YOPE   C4B13598   5.102  16.153   7.059 -0.0608  0.2341 -0.0600
  926YOPE   NH313599   1.038  12.462   4.683 -0.1533  0.1565 -0.1368
  926YOPE   PO413600   0.894  12.565   5.161 -0.1964  0.0374 -0.2166
  926YOPE   GL113601   0.854  12.684   5.536 -0.0197  0.2604  0.3704
  926YOPE   GL213602   1.020  12.955   5.660 -0.0499  0.1517 -0.0300
  926YOPE   C1A13603   0.994  12.572   5.939 -0.0504 -0.1438  0.1621
  926YOPE   D2A13604   1.188  12.411   6.342  0.0788 -0.2512 -0.1174
  926YOPE   C3A13605   1.669  12.532   6.406 -0.1947  0.1127  0.3233
  926YOPE   C4A13606   1.851  12.906   6.663  0.1502  0.0794 -0.2728
  926YOPE   C1B13607   0.809  13.069   6.091  0.0392 -0.0874  0.0632
  926YOPE   C2B13608   0.616  13.205   6.482 -0.1529  0.3919  0.2010
  926YOPE   D3B13609   0.246  13.320   6.614  0.0880 -0.1129 -0.0620
  926YOPE   C4B13610  -0.138  13.514   6.559 -0.1903 -0.2083  0.0228
  927YOPE   NH313611  16.732  15.744   5.459  0.0791 -0.0702  0.2196
  927YOPE   PO413612  16.838  15.300   5.306  0.2402 -0.0001  0.2074
  927YOPE   GL113613  16.700  15.110   5.716  0.0564  0.0266 -0.0257
  927YOPE   GL213614  16.401  15.219   5.849  0.0044 -0.0068 -0.0264
  927YOPE   C1A13615  16.821  15.288   6.124  0.1829 -0.0710  0.1965
  927YOPE   D2A13616  17.070  15.604   6.173  0.0091 -0.0309 -0.2221
  927YOPE   C3A13617  17.178  15.997   6.343 -0.1098  0.0389  0.0639
  927YOPE   C4A13618  16.897  16.125   6.684  0.0033 -0.0620  0.1517
  927YOPE   C1B13619  16.465  14.825   6.147 -0.2031  0.3044 -0.0042
  927YOPE   C2B13620  16.327  14.632   6.552  0.2535  0.1754  0.0901
  927YOPE   D3B13621  16.221  14.598   6.907  0.0158  0.3039 -0.1332
  927YOPE   C4B13622  16.076  14.859   7.193  0.2211 -0.3173 -0.2001
  928YOPE   NH313623  19.251  11.021   4.940 -0.3419 -0.2011 -0.3307
  928YOPE   PO413624  19.643  11.146   4.850 -0.3452 -0.1387  0.0858
  928YOPE   GL113625  19.713  10.960   5.261  0.0139 -0.1439  0.0402
  928YOPE   GL213626  20.003  10.864   5.477 -0.0289 -0.1067  0.1155
  928YOPE   C1A13627  19.608  10.498   5.534  0.0587  0.1195 -0.0106
  928YOPE   D2A13628  19.191  10.347   5.630 -0.0526 -0.2284  0.1341
  928YOPE   C3A13629  18.840  10.598   5.559 -0.1877  0.0247 -0.4073
  928YOPE   C4A13630  18.532  10.725   5.682 -0.2318 -0.1505 -0.4475
  928YOPE   C1B13631  20.078  11.094   5.838 -0.2196  0.2515  0.0460
  928YOPE   C2B13632  20.500  11.373   6.025  0.0148 -0.2561  0.1571
  928YOPE   D3B13633  20.944  11.594   5.857 -0.1093  0.0510  0.1059
  928YOPE   C4B13634  21.331  11.760   6.071 -0.1344  0.1322 -0.1017
  929YOPE   NH313635   6.364  18.743   5.001 -0.1963 -0.1052 -0.4389
  929YOPE   PO413636   6.642  18.571   5.279  0.0330  0.2202  0.2108
  929YOPE   GL113637   6.865  18.753   5.541 -0.1392 -0.1144 -0.1685
  929YOPE   GL213638   7.138  18.642   5.416  0.2361  0.1012 -0.0211
  929YOPE   C1A13639   7.127  18.803   5.864  0.1653  0.0169  0.0955
  929YOPE   D2A13640   7.098  18.781   6.330  0.1683  0.2603  0.1373
  929YOPE   C3A13641   6.789  18.755   6.505  0.0281 -0.0728 -0.2999
  929YOPE   C4A13642   6.545  18.635   6.821  0.2143 -0.0588 -0.0134
  929YOPE   C1B13643   7.544  18.612   5.706 -0.1914  0.1192  0.3061
  929YOPE   C2B13644   7.781  18.613   5.942  0.0201  0.3419  0.2149
  929YOPE   D3B13645   7.783  18.671   6.381 -0.1796 -0.2071  0.0301
  929YOPE   C4B13646   7.524  18.926   6.503 -0.0489  0.0421 -0.1084
  930YOPE   NH313647  19.096  17.070   5.058  0.1293 -0.2283 -0.0009
  930YOPE   PO413648  18.760  17.492   4.924  0.0817  0.0526  0.0715
  930YOPE   GL113649  18.752  17.435   5.412  0.1952 -0.2564 -0.0926
  930YOPE   GL213650  18.576  17.286   5.623 -0.1908  0.1497  0.3916
  930YOPE   C1A13651  19.028  17.423   5.704 -0.1659 -0.1706  0.0320
  930YOPE   D2A13652  19.415  17.545   5.966 -0.0225 -0.3716  0.1597
  930YOPE   C3A13653  19.424  17.595   6.372 -0.1418  0.1291 -0.1648
  930YOPE   C4A13654  19.331  17.453   6.686  0.0769  0.0294  0.1481
  930YOPE   C1B13655  18.672  17.022   5.973 -0.1683 -0.2352 -0.0505
  930YOPE   C2B13656  18.390  16.911   6.405 -0.0872 -0.0462  0.3321
  930YOPE   D3B13657  18.181  16.955   6.700  0.0899  0.3968  0.0140
  930YOPE   C4B13658  17.996  16.883   7.090 -0.3243 -0.0347 -0.2719
  931YOPE   NH313659   8.180   8.700   4.886  0.0710  0.0330 -0.2730
  931YOPE   PO413660   7.904   9.113   4.718  0.0451 -0.1506 -0.0306
  931YOPE   GL113661   7.866   9.052   5.135  0.0194 -0.4194 -0.1660
  931YOPE   GL213662   7.969   8.692   5.315  0.0959  0.1438 -0.3355
  931YOPE   C1A13663   7.769   9.301   5.609 -0.0791  0.1304  0.0470
  931YOPE   D2A13664   7.602   9.391   5.824  0.2662  0.0345  0.0173
  931YOPE   C3A13665   7.592   9.842   5.752  0.1174  0.2271  0.1960
  931YOPE   C4A13666   7.648   9.982   6.200 -0.0285 -0.0681  0.3785
  931YOPE   C1B13667   8.066   8.883   5.753 -0.4751  0.0992 -0.2529
  931YOPE   C2B13668   7.920   9.038   6.110  0.0295  0.2496 -0.0027
  931YOPE   D3B13669   7.666   9.358   6.324 -0.1009 -0.3121 -0.3346
  931YOPE   C4B13670   7.441   9.404   6.715 -0.0502 -0.2367 -0.1196
  932YOPE   NH313671   9.258   3.017   4.995 -0.0171  0.1199 -0.0354
  932YOPE   PO413672   9.154   3.447   5.177  0.2174 -0.2016 -0.3248
  932YOPE   GL113673   9.347   3.625   5.479 -0.1388  0.1094  0.1386
  932YOPE   GL213674   9.771   3.707   5.474 -0.1214  0.0792 -0.4108
  932YOPE   C1A13675   9.220   3.762   5.890 -0.3290 -0.0720 -0.0940
  932YOPE   D2A13676   9.060   3.829   6.434 -0.3341 -0.1412 -0.0170
  932YOPE   C3A13677   9.340   3.903   6.872  0.0113 -0.2477  0.1837
  932YOPE   C4A13678   9.233   3.685   7.259  0.2140  0.0011 -0.2981
  932YOPE   C1B13679   9.766   3.601   5.940  0.2940 -0.0363  0.3007
  932YOPE   C2B13680   9.746   3.815   6.317  0.3880  0.2383  0.1808
  932YOPE   D3B13681   9.763   4.012   6.674  0.1333 -0.3740  0.0082
  932YOPE   C4B13682   9.903   4.256   7.014 -0.0321 -0.0630 -0.1168
  933YOPE   NH313683   2.419   9.673   5.104 -0.2830 -0.2409  0.0546
  933YOPE   PO413684   2.846   9.717   4.867 -0.2703  0.1866  0.2018
  933YOPE   GL113685   2.963   9.767   5.287  0.1391 -0.2218  0.1560
  933YOPE   GL213686   2.690   9.943   5.509  0.0127 -0.0465 -0.3260
  933YOPE   C1A13687   3.029   9.562   5.603 -0.3023 -0.1119  0.3890
  933YOPE   D2A13688   2.801   9.490   5.971  0.3444  0.3564  0.1372
  933YOPE   C3A13689   3.078   9.482   6.308  0.3758  0.1026  0.1051
  933YOPE   C4A13690   3.234   9.174   6.624 -0.2333  0.1638 -0.1297
  933YOPE   C1B13691   2.961   9.944   5.956 -0.1734 -0.1443 -0.0488
  933YOPE   C2B13692   2.998  10.121   6.420 -0.0110  0.2653  0.2712
  933YOPE   D3B13693   2.800  10.198   6.729 -0.3062  0.2227  0.1019
  933YOPE   C4B13694   2.654  10.559   6.684 -0.1339 -0.1522 -0.0235
  934YOPE   NH313695   6.062  17.636   4.930  0.0037  0.0391 -0.1240
  934YOPE   PO413696   5.855  17.379   5.088 -0.1418  0.5560  0.1505
  934YOPE   GL113697   5.796  17.291   5.645 -0.2790 -0.0402  0.0266
  934YOPE   GL213698   5.866  17.025   5.615 -0.3518 -0.0605  0.0395
  934YOPE   C1A13699   5.654  17.129   5.991  0.0650  0.1719  0.2420
  934YOPE   D2A13700   5.361  17.041   6.338 -0.0225  0.2880 -0.1822
  934YOPE   C3A13701   5.489  17.029   6.770 -0.3251  0.0076  0.0825
  934YOPE   C4A13702   5.458  16.884   7.229  0.2222  0.0170  0.0323
  934YOPE   C1B13703   5.810  16.647   5.823 -0.1800  0.0144 -0.2143
  934YOPE   C2B13704   5.536  16.594   6.185  0.2039  0.2371  0.0594
  934YOPE   D3B13705   5.395  16.433   6.553  0.2225  0.3121  0.2873
  934YOPE   C4B13706   5.539  16.394   6.992  0.1990 -0.0222 -0.2478
  935YOPE   NH313707   5.704  13.993   5.433 -0.2209  0.0469 -0.0165
  935YOPE   PO413708   5.619  13.534   5.280  0.0225  0.0892 -0.0996
  935YOPE   GL113709   5.870  13.541   5.629 -0.2152  0.0573  0.0015
  935YOPE   GL213710   5.920  13.806   5.793 -0.3813  0.3336  0.1123
  935YOPE   C1A13711   5.629  13.372   5.952 -0.2127  0.2141 -0.0644
  935YOPE   D2A13712   5.275  13.097   6.036 -0.2696  0.0158 -0.3384
  935YOPE   C3A13713   4.878  13.102   6.282 -0.2974  0.0745 -0.1927
  935YOPE   C4A13714   4.757  13.153   6.599  0.0954 -0.3083  0.2824
  935YOPE   C1B13715   6.024  13.775   6.184 -0.0554 -0.3124 -0.0844
  935YOPE   C2B13716   6.137  13.437   6.448  0.0375 -0.1041 -0.2305
  935YOPE   D3B13717   6.286  13.106   6.450 -0.0415 -0.0418  0.3263
  935YOPE   C4B13718   6.244  12.742   6.658  0.0650 -0.2762  0.2210
  936YOPE   NH313719   6.110   1.342   4.679 -0.0606  0.0934  0.0926
  936YOPE   PO413720   6.295   0.910   4.705  0.2919 -0.0333  0.0956
  936YOPE   GL113721   6.256   0.981   5.138  0.0059 -0.1940 -0.1413
  936YOPE   GL213722   6.339   1.281   5.159 -0.0879  0.2351 -0.1709
  936YOPE   C1A13723   6.307   0.598   5.464 -0.2233 -0.2819 -0.1703
  936YOPE   D2A13724   6.251   0.602   5.889 -0.1104  0.0579 -0.0520
  936YOPE   C3A13725   6.006   0.355   6.241  0.1092  0.0766  0.1273
  936YOPE   C4A13726   5.777   0.313   6.582 -0.5183 -0.2815 -0.3478
  936YOPE   C1B13727   6.298   1.606   5.580 -0.0988  0.0739 -0.0815
  936YOPE   C2B13728   6.070   1.690   5.986  0.1183 -0.0748 -0.1518
  936YOPE   D3B13729   5.877   1.543   6.323  0.0443  0.1642 -0.0278
  936YOPE   C4B13730   5.475   1.245   6.132 -0.1746 -0.3453 -0.0514
  937YOPE   NH313731   3.615   3.705   5.003  0.4334 -0.1350 -0.1032
  937YOPE   PO413732   3.417   4.145   5.121 -0.0020 -0.2610 -0.0755
  937YOPE   GL113733   3.618   4.145   5.428  0.3064 -0.1421 -0.2503
  937YOPE   GL213734   3.682   4.374   5.672 -0.0406  0.0969 -0.2620
  937YOPE   C1A13735   4.122   4.116   5.645 -0.1031 -0.1035  0.1741
  937YOPE   D2A13736   4.168   4.335   5.983  0.1850 -0.2432 -0.0311
  937YOPE   C3A13737   4.089   4.122   6.339  0.3580  0.1637 -0.1720
  937YOPE   C4A13738   4.435   4.005   6.547  0.2636 -0.1326 -0.1193
  937YOPE   C1B13739   3.666   3.922   5.884  0.2153 -0.0767 -0.2254
  937YOPE   C2B13740   3.555   3.767   6.257  0.0454  0.1740  0.0678
  937YOPE   D3B13741   3.557   3.930   6.532  0.0315  0.1598  0.0530
  937YOPE   C4B13742   3.749   3.871   6.979 -0.0532 -0.0010  0.4092
  938YOPE   NH313743   2.210  10.586   5.251 -0.2282  0.1056 -0.1639
  938YOPE   PO413744   2.365  10.197   5.110 -0.1158 -0.0380  0.1203
  938YOPE   GL113745   2.219   9.986   5.429  0.0616 -0.1467 -0.0220
  938YOPE   GL213746   1.891   9.834   5.517  0.0592 -0.3449 -0.0284
  938YOPE   C1A13747   2.337   9.771   5.872 -0.2336  0.1927  0.0234
  938YOPE   D2A13748   2.597   9.775   6.336 -0.2598 -0.2304 -0.0433
  938YOPE   C3A13749   2.414   9.634   6.669 -0.0719 -0.0259 -0.0631
  938YOPE   C4A13750   2.295   9.548   7.059 -0.1290  0.0432 -0.2447
  938YOPE   C1B13751   1.963  10.198   5.835  0.0656 -0.0535  0.2632
  938YOPE   C2B13752   2.103  10.652   6.025  0.1001  0.0414  0.2536
  938YOPE   D3B13753   2.069  10.971   6.375 -0.1462 -0.1245  0.1392
  938YOPE   C4B13754   1.848  11.147   6.733  0.0999  0.0178  0.0221
  939YOPE   NH313755   4.088  15.064   5.278 -0.0184  0.0446 -0.1010
  939YOPE   PO413756   3.728  14.848   5.300 -0.0234 -0.2838  0.2270
  939YOPE   GL113757   3.825  14.838   5.696  0.1273  0.4386 -0.0286
  939YOPE   GL213758   4.193  14.823   5.699  0.4779 -0.2934 -0.0090
  939YOPE   C1A13759   3.768  14.709   6.112 -0.0722  0.2115 -0.0506
  939YOPE   D2A13760   4.099  14.797   6.286  0.0854 -0.1961  0.2840
  939YOPE   C3A13761   4.258  14.805   6.686  0.0589 -0.0303  0.1994
  939YOPE   C4A13762   4.240  15.112   6.950 -0.1002  0.0458  0.1139
  939YOPE   C1B13763   4.504  14.726   5.996  0.5683 -0.2416  0.3244
  939YOPE   C2B13764   4.611  14.716   6.394  0.0252 -0.1688 -0.1128
  939YOPE   D3B13765   4.671  14.437   6.677 -0.1845 -0.2617 -0.0259
  939YOPE   C4B13766   4.593  13.992   6.691 -0.1463  0.0405  0.0997
  940YOPE   NH313767   7.895   3.054   5.263  0.1538 -0.0367 -0.3229
  940YOPE   PO413768   8.243   2.871   5.162  0.0570 -0.1963  0.5677
  940YOPE   GL113769   8.346   3.043   5.543 -0.0732  0.0800  0.2503
  940YOPE   GL213770   8.258   3.437   5.572  0.0559 -0.2732 -0.0004
  940YOPE   C1A13771   8.580   2.904   5.886 -0.1051 -0.0139  0.1545
  940YOPE   D2A13772   8.713   2.805   6.197 -0.4235 -0.3267 -0.1711
  940YOPE   C3A13773   8.931   3.038   6.550  0.0685  0.2659  0.0604
  940YOPE   C4A13774   9.205   3.043   6.675  0.3649 -0.1068 -0.1697
  940YOPE   C1B13775   7.936   3.589   5.818 -0.0830 -0.0583  0.2734
  940YOPE   C2B13776   7.819   3.958   6.062 -0.0110 -0.1513  0.0059
  940YOPE   D3B13777   7.726   4.010   6.409  0.2462  0.0881 -0.2327
  940YOPE   C4B13778   7.694   3.942   6.804 -0.2678 -0.1597  0.0020
  941POPC   NC313779  14.026   6.609   5.558 -0.0245  0.3768  0.2463
  941POPC   PO413780  14.485   6.596   5.394  0.1069 -0.1010 -0.0345
  941POPC   GL113781  14.612   6.360   5.638 -0.1327 -0.0925 -0.2452
  941POPC   GL213782  14.385   6.216   5.829  0.1460 -0.1909 -0.0171
  941POPC   C1A13783  14.769   6.313   6.034  0.1322 -0.0210  0.0658
  941POPC   D2A13784  15.035   6.406   6.479 -0.0658 -0.1017 -0.0372
  941POPC   C3A13785  14.823   6.526   6.761 -0.1092  0.0010 -0.1137
  941POPC   C4A13786  14.962   6.160   7.004 -0.1387  0.1929  0.0596
  941POPC   C1B13787  14.403   5.910   6.144 -0.1542 -0.0784 -0.0010
  941POPC   C2B13788  14.565   5.697   6.590  0.2434  0.1471  0.0001
  941POPC   C3B13789  14.571   5.290   6.914 -0.0422  0.0071  0.1420
  941POPC   C4B13790  14.453   4.804   6.885 -0.2251 -0.1489 -0.0585
  942POPC   NC313791   3.834   7.327   5.171  0.2250  0.0698 -0.1374
  942POPC   PO413792   4.255   7.131   4.970  0.2760  0.2805 -0.0193
  942POPC   GL113793   4.125   7.057   5.493  0.1277 -0.2096 -0.1303
  942POPC   GL213794   4.014   6.678   5.600  0.2291 -0.2902  0.2119
  942POPC   C1A13795   3.912   7.015   5.942 -0.2013 -0.2625  0.3056
  942POPC   D2A13796   3.667   7.314   6.135 -0.1401  0.1051  0.1521
  942POPC   C3A13797   3.406   7.264   6.364  0.1219 -0.0420 -0.0650
  942POPC   C4A13798   2.947   7.458   6.474 -0.0222  0.0167 -0.1513
  942POPC   C1B13799   4.229   6.601   6.015 -0.0085  0.0644 -0.2155
  942POPC   C2B13800   4.157   6.741   6.455 -0.3860  0.2073 -0.2315
  942POPC   C3B13801   4.128   6.594   6.841  0.0476 -0.0005 -0.0799
  942POPC   C4B13802   4.072   6.783   7.340  0.1251  0.3214  0.0313
  943POPC   NC313803  11.324   8.144   4.684  0.0929  0.0330 -0.0164
  943POPC   PO413804  11.625   7.852   5.096 -0.1152  0.1195 -0.1391
  943POPC   GL113805  11.494   8.087   5.445  0.1843 -0.2771  0.1229
  943POPC   GL213806  11.133   8.161   5.519  0.2972 -0.1272  0.1110
  943POPC   C1A13807  11.486   7.967   5.858 -0.3457  0.1076  0.1144
  943POPC   D2A13808  11.653   8.066   6.332  0.0764 -0.1413 -0.2933
  943POPC   C3A13809  11.426   8.023   6.833 -0.1391  0.4427 -0.3439
  943POPC   C4A13810  11.112   7.679   6.998  0.4300  0.3190  0.0623
  943POPC   C1B13811  10.955   8.475   5.622  0.1180 -0.3100 -0.0748
  943POPC   C2B13812  10.774   8.635   5.920  0.0282  0.0688 -0.2580
  943POPC   C3B13813  10.650   8.557   6.333  0.0788 -0.2593 -0.0136
  943POPC   C4B13814  10.418   8.642   6.651  0.0588 -0.2158 -0.2849
  944POPC   NC313815   6.957   6.614   5.229 -0.2204  0.2416 -0.1600
  944POPC   PO413816   6.899   6.104   5.056 -0.0126  0.3478  0.0289
  944POPC   GL113817   7.033   5.971   5.425  0.1508 -0.2962 -0.0420
  944POPC   GL213818   7.356   5.804   5.488 -0.1150  0.0878  0.0596
  944POPC   C1A13819   6.930   6.042   5.826  0.1931  0.1403  0.2799
  944POPC   D2A13820   6.804   6.453   5.979 -0.0105 -0.2204  0.1781
  944POPC   C3A13821   7.079   6.655   6.325 -0.0760 -0.1282  0.1486
  944POPC   C4A13822   7.314   6.576   6.714  0.1097 -0.1891  0.1915
  944POPC   C1B13823   7.439   5.925   5.852  0.1078 -0.1255  0.1916
  944POPC   C2B13824   7.846   5.694   5.983 -0.0557 -0.0008  0.0490
  944POPC   C3B13825   8.082   5.415   6.318  0.0838  0.1213 -0.2649
  944POPC   C4B13826   8.407   5.414   6.685  0.1271  0.0080  0.4827
  945POPC   NC313827  14.626   4.829   4.591 -0.0811  0.2485  0.1141
  945POPC   PO413828  14.758   4.950   5.065 -0.4829 -0.3549 -0.1426
  945POPC   GL113829  14.740   4.796   5.617  0.4950  0.4030  0.0769
  945POPC   GL213830  14.863   4.423   5.595  0.0260 -0.0357 -0.2329
  945POPC   C1A13831  14.831   4.845   6.077 -0.2985 -0.0344  0.0328
  945POPC   D2A13832  14.630   5.101   6.428  0.2297 -0.5385 -0.0560
  945POPC   C3A13833  14.248   5.217   6.594  0.0337  0.2993  0.0164
  945POPC   C4A13834  13.898   5.445   6.680  0.2878  0.3231 -0.0537
  945POPC   C1B13835  14.707   4.192   5.788 -0.2249 -0.0637  0.1548
  945POPC   C2B13836  14.532   4.006   6.186 -0.4564  0.2932  0.1303
  945POPC   C3B13837  14.636   3.764   6.443  0.0050  0.1285  0.2370
  945POPC   C4B13838  14.663   3.420   6.273 -0.2349  0.1205  0.1366
  946POPC   NC313839  14.364  10.317   5.003  0.0002 -0.0210 -0.0764
  946POPC   PO413840  14.330  10.108   5.459 -0.5175  0.4263  0.0264
  946POPC   GL113841  14.403  10.243   5.936  0.0288 -0.0716  0.1782
  946POPC   GL213842  14.606  10.027   6.038 -0.0287  0.1026  0.0907
  946POPC   C1A13843  14.255  10.241   6.335 -0.0104 -0.0278  0.1794
  946POPC   D2A13844  14.345   9.982   6.702 -0.2052  0.1070 -0.1908
  946POPC   C3A13845  14.752   9.891   6.768 -0.1191  0.3235 -0.1102
  946POPC   C4A13846  14.686   9.560   7.064  0.2077  0.0599  0.3433
  946POPC   C1B13847  14.531   9.755   6.328  0.1587  0.1816 -0.1415
  946POPC   C2B13848  14.315   9.510   6.633  0.2337 -0.1809 -0.1431
  946POPC   C3B13849  14.162   9.556   6.996  0.1498  0.0029  0.1482
  946POPC   C4B13850  13.968   9.759   7.226 -0.2951  0.2379  0.0390
  947POPC   NC313851   7.165   0.476   4.190 -0.1438  0.1161 -0.0463
  947POPC   PO413852   7.233   0.742   4.456  0.0485 -0.1278 -0.1495
  947POPC   GL113853   6.977   0.728   4.871  0.0272  0.0104  0.1230
  947POPC   GL213854   7.140   0.670   5.156 -0.1290  0.0790  0.0239
  947POPC   C1A13855   6.786   1.056   5.258 -0.0746 -0.0687  0.2190
  947POPC   D2A13856   6.758   1.472   5.528  0.0193 -0.0661  0.1760
  947POPC   C3A13857   6.571   1.539   5.955 -0.0745  0.1689 -0.2682
  947POPC   C4A13858   6.545   1.744   6.192 -0.4225  0.1767  0.0155
  947POPC   C1B13859   6.902   0.623   5.562 -0.0693  0.1849  0.1078
  947POPC   C2B13860   6.847   0.647   5.889  0.2614  0.1515  0.0687
  947POPC   C3B13861   7.247   0.723   6.055  0.1913  0.0547  0.2790
  947POPC   C4B13862   7.651   0.972   6.002  0.2302 -0.0757  0.0476
  948POPC   NC313863  14.140  18.924   4.989 -0.0243 -0.2642 -0.0644
  948POPC   PO413864  13.887  19.321   4.976 -0.0086 -0.3773  0.0125
  948POPC   GL113865  14.031  19.357   5.359  0.0867 -0.0139  0.2059
  948POPC   GL213866  14.049  19.082   5.556  0.1023  0.0465  0.3852
  948POPC   C1A13867  14.034  19.667   5.663 -0.2051  0.1021  0.0436
  948POPC   D2A13868  13.752  19.921   5.659 -0.0363 -0.0974 -0.3473
  948POPC   C3A13869  13.650  19.969   6.151  0.1535  0.3572 -0.0853
  948POPC   C4A13870  13.476  19.989   6.533 -0.0485 -0.0591  0.0399
  948POPC   C1B13871  14.185  19.213   5.995  0.0288 -0.0366 -0.1328
  948POPC   C2B13872  14.353  19.283   6.409 -0.1551  0.4196  0.3563
  948POPC   C3B13873  14.241  19.189   6.798 -0.1379  0.2389  0.0488
  948POPC   C4B13874  14.000  19.350   7.112  0.1290 -0.1670 -0.1587
  949POPC   NC313875  14.968   6.102   5.404 -0.0346  0.1710 -0.4195
  949POPC   PO413876  15.421   6.242   5.343  0.1163  0.1533  0.1934
  949POPC   GL113877  15.414   6.374   5.720  0.2429 -0.0503 -0.3823
  949POPC   GL213878  15.211   6.463   5.940  0.2313  0.1175  0.0443
  949POPC   C1A13879  15.797   6.434   6.169  0.0103 -0.2370 -0.1119
  949POPC   D2A13880  15.619   6.223   6.462 -0.0962 -0.0101  0.2119
  949POPC   C3A13881  15.693   6.068   6.750 -0.0384 -0.1839 -0.0310
  949POPC   C4A13882  16.046   6.195   6.997  0.4211  0.0450 -0.2400
  949POPC   C1B13883  14.954   6.800   6.151 -0.3522 -0.4383 -0.1557
  949POPC   C2B13884  14.874   6.991   6.464  0.1402  0.0797  0.0407
  949POPC   C3B13885  15.077   7.287   6.758 -0.1578  0.0434  0.3273
  949POPC   C4B13886  15.166   7.685   6.936 -0.1578 -0.3916  0.2276
  950POPC   NC313887  15.954  18.281   4.749 -0.0431  0.0438  0.1344
  950POPC   PO413888  16.377  18.277   5.092  0.0030  0.0572  0.1811
  950POPC   GL113889  16.175  18.320   5.506 -0.1023  0.0975 -0.0682
  950POPC   GL213890  16.480  18.368   5.592  0.2133 -0.2160 -0.2222
  950POPC   C1A13891  16.053  18.017   5.817 -0.1105  0.0957  0.4552
  950POPC   D2A13892  15.957  18.079   6.230 -0.1158  0.0613 -0.1240
  950POPC   C3A13893  16.364  18.221   6.339 -0.2085  0.0445 -0.1010
  950POPC   C4A13894  16.550  18.640   6.289 -0.0611 -0.1825  0.0448
  950POPC   C1B13895  16.227  18.575   5.934 -0.2341 -0.1087  0.0424
  950POPC   C2B13896  16.030  18.658   6.348  0.1183 -0.0495 -0.2220
  950POPC   C3B13897  16.217  18.730   6.766 -0.0474  0.1309 -0.2820
  950POPC   C4B13898  16.437  19.054   7.167  0.2848 -0.0691  0.1920
  951POPC   NC313899  13.709   3.228   4.685 -0.1729  0.1120 -0.1109
  951POPC   PO413900  13.291   3.072   4.768 -0.1442  0.1106 -0.2496
  951POPC   GL113901  13.210   3.270   5.156 -0.0632  0.5052  0.1400
  951POPC   GL213902  13.249   3.613   5.230 -0.5813  0.0831 -0.1086
  951POPC   C1A13903  12.943   3.041   5.568  0.0811 -0.1697  0.1419
  951POPC   D2A13904  12.909   3.139   5.927 -0.2606 -0.2035 -0.1105
  951POPC   C3A13905  12.684   2.791   5.991  0.1283 -0.2117 -0.3036
  951POPC   C4A13906  12.382   2.447   5.973 -0.2582 -0.1764  0.0819
  951POPC   C1B13907  13.115   3.578   5.590  0.0918 -0.0945  0.0556
  951POPC   C2B13908  13.220   3.644   5.987 -0.0205  0.1491  0.0287
  951POPC   C3B13909  13.123   3.570   6.357  0.0889  0.0134 -0.0127
  951POPC   C4B13910  12.799   3.241   6.526 -0.3824 -0.0299 -0.0685
  952POPC   NC313911   9.523  19.110   5.267  0.2005 -0.2885  0.1258
  952POPC   PO413912   9.435  18.644   5.491  0.0066  0.0088  0.1939
  952POPC   GL113913   9.268  18.852   5.724 -0.1022  0.0774 -0.1661
  952POPC   GL213914   9.285  18.747   6.087  0.0639  0.2564 -0.2860
  952POPC   C1A13915   9.113  19.356   5.814 -0.0830 -0.0132 -0.1273
  952POPC   D2A13916   8.845  19.727   5.784  0.2303 -0.1316 -0.0448
  952POPC   C3A13917   9.054  20.093   5.891 -0.1434 -0.3036 -0.1930
  952POPC   C4A13918   9.282  20.146   6.302 -0.0249  0.3627  0.0302
  952POPC   C1B13919   9.126  19.103   6.284 -0.0116 -0.2106 -0.4312
  952POPC   C2B13920   8.863  19.401   6.264  0.1035  0.0154  0.3258
  952POPC   C3B13921   8.770  19.893   6.285  0.1250 -0.2740 -0.0806
  952POPC   C4B13922   8.786  20.301   6.281  0.0534 -0.0703  0.1455
  953POPC   NC313923  12.736  12.870   5.058 -0.0619 -0.1449  0.3307
  953POPC   PO413924  12.483  12.511   5.277  0.0704 -0.2091  0.5836
  953POPC   GL113925  12.223  12.539   5.683 -0.1725  0.0052 -0.2220
  953POPC   GL213926  12.383  12.773   5.924  0.1297 -0.2694  0.0292
  953POPC   C1A13927  11.795  12.794   5.853 -0.2417 -0.2129  0.2028
  953POPC   D2A13928  11.849  13.001   6.280  0.2007 -0.0270  0.3301
  953POPC   C3A13929  11.959  12.985   6.732  0.2927  0.3073 -0.1218
  953POPC   C4A13930  11.983  12.977   7.124 -0.4243  0.3927 -0.2783
  953POPC   C1B13931  12.176  12.523   6.170 -0.0303  0.0275  0.3012
  953POPC   C2B13932  12.215  12.477   6.533 -0.1205  0.3437  0.1180
  953POPC   C3B13933  12.236  12.452   6.950 -0.0194  0.1097  0.2806
  953POPC   C4B13934  11.950  12.473   7.252 -0.1624  0.0829  0.1839
  954POPC   NC313935  14.280  15.851   5.270  0.0010 -0.0531 -0.0560
  954POPC   PO413936  14.043  16.180   5.392 -0.1162  0.3287 -0.1389
  954POPC   GL113937  13.947  16.204   5.789 -0.1904 -0.1177  0.1329
  954POPC   GL213938  14.078  16.334   6.084  0.1317  0.0503  0.0027
  954POPC   C1A13939  13.979  15.863   5.962  0.0881  0.1632  0.0072
  954POPC   D2A13940  13.897  15.416   5.889 -0.0660  0.0150  0.1202
  954POPC   C3A13941  14.201  15.058   5.906  0.2311 -0.1846  0.2225
  954POPC   C4A13942  14.571  14.810   6.038 -0.0810 -0.2243  0.2171
  954POPC   C1B13943  14.112  16.422   6.588 -0.0988 -0.0655  0.0140
  954POPC   C2B13944  14.012  16.153   6.998 -0.2024  0.3865 -0.2199
  954POPC   C3B13945  13.929  15.852   7.264 -0.3463  0.1073 -0.0628
  954POPC   C4B13946  13.700  15.641   7.500  0.3057  0.0405 -0.0203
  955POPC   NC313947   7.321   8.256   5.044  0.0735 -0.0728 -0.0253
  955POPC   PO413948   7.654   8.581   4.756  0.1264  0.2230  0.2724
  955POPC   GL113949   7.518   8.674   5.228  0.4290  0.1042 -0.0320
  955POPC   GL213950   7.285   8.716   5.332  0.0337 -0.2820  0.2328
  955POPC   C1A13951   7.590   8.740   5.712  0.2481 -0.0964  0.0907
  955POPC   D2A13952   7.634   8.607   6.133  0.0632 -0.1903  0.3602
  955POPC   C3A13953   7.996   8.646   6.362 -0.1121 -0.1867  0.0611
  955POPC   C4A13954   8.407   8.495   6.555 -0.0316 -0.5753 -0.1295
  955POPC   C1B13955   7.020   8.632   5.567 -0.1525  0.3258 -0.2273
  955POPC   C2B13956   6.699   8.745   5.882  0.1761  0.1645  0.0106
  955POPC   C3B13957   6.853   8.981   6.245  0.2189 -0.2105 -0.1200
  955POPC   C4B13958   7.120   9.377   6.327 -0.3229  0.2160 -0.1886
  956POPC   NC313959  10.612  14.706   5.481 -0.4048  0.1063  0.0026
  956POPC   PO413960  10.934  15.082   5.449 -0.1007  0.0665  0.1542
  956POPC   GL113961  11.007  14.749   5.804 -0.1650  0.0832  0.3495
  956POPC   GL213962  11.290  14.703   5.899 -0.2236  0.0963 -0.2019
  956POPC   C1A13963  10.929  14.603   6.232 -0.1990 -0.1725  0.2394
  956POPC   D2A13964  10.743  14.748   6.578  0.0654  0.1251  0.0876
  956POPC   C3A13965  10.639  14.515   6.897  0.0736 -0.0439  0.1334
  956POPC   C4A13966  10.533  14.140   7.030 -0.4272 -0.1044  0.1669
  956POPC   C1B13967  11.462  14.595   6.294 -0.2837  0.0015 -0.2165
  956POPC   C2B13968  11.304  14.363   6.666 -0.0687  0.0107  0.0066
  956POPC   C3B13969  11.148  14.460   6.968  0.0471 -0.1815  0.0287
  956POPC   C4B13970  10.973  14.272   7.326 -0.1390 -0.0729 -0.0110
  957POPC   NC313971  19.463   2.425   4.950  0.0335  0.1582  0.0174
  957POPC   PO413972  19.371   2.724   5.267  0.2364 -0.0952 -0.0552
  957POPC   GL113973  19.230   2.920   5.525  0.1043  0.0558  0.1351
  957POPC   GL213974  18.872   2.844   5.593 -0.1358  0.1116 -0.2254
  957POPC   C1A13975  19.420   2.731   5.915  0.0989  0.1934 -0.0814
  957POPC   D2A13976  19.531   2.289   6.018  0.0304  0.1136 -0.1406
  957POPC   C3A13977  19.096   2.143   5.949  0.1419 -0.2073 -0.0661
  957POPC   C4A13978  18.631   2.039   5.975  0.0651 -0.2072  0.1302
  957POPC   C1B13979  18.899   2.607   5.931  0.0168 -0.2355 -0.0637
  957POPC   C2B13980  18.801   2.437   6.313 -0.0041  0.3771  0.4543
  957POPC   C3B13981  19.068   2.335   6.713 -0.2185  0.2425  0.1283
  957POPC   C4B13982  19.444   2.462   6.913  0.1676  0.1674 -0.3246
  958POPC   NC313983  18.785   7.379   5.548 -0.0243 -0.1451 -0.1492
  958POPC   PO413984  18.919   6.902   5.491 -0.0289  0.0504 -0.2196
  958POPC   GL113985  19.015   7.038   5.858 -0.1144 -0.0837 -0.3203
  958POPC   GL213986  18.850   7.319   6.102  0.2381  0.2081  0.6519
  958POPC   C1A13987  19.390   6.829   6.082 -0.0729  0.0205  0.1739
  958POPC   D2A13988  19.598   6.725   6.395 -0.0147 -0.3122 -0.0886
  958POPC   C3A13989  19.941   6.807   6.251 -0.0801  0.0440 -0.3380
  958POPC   C4A13990  20.360   6.960   6.441  0.2039 -0.2977  0.2485
  958POPC   C1B13991  19.350   7.416   6.044  0.1513  0.0354  0.2137
  958POPC   C2B13992  19.616   7.773   5.806 -0.2002  0.0889 -0.0644
  958POPC   C3B13993  20.025   7.949   6.003  0.3027 -0.1177  0.3740
  958POPC   C4B13994  20.414   7.780   6.096  0.1296 -0.0699 -0.1201
  959POPC   NC313995  15.967   7.954   5.371  0.0572 -0.0966 -0.1755
  959POPC   PO413996  16.262   8.126   5.607 -0.0282  0.1656 -0.0321
  959POPC   GL113997  15.913   8.054   5.917  0.1705  0.0255 -0.0892
  959POPC   GL213998  15.774   8.421   5.865  0.1512  0.4966  0.0986
  959POPC   C1A13999  15.535   8.243   6.245  0.0951 -0.2251  0.0236
  959POPC   D2A14000  15.594   8.412   6.684 -0.2932 -0.2447 -0.4199
  959POPC   C3A14001  15.330   8.473   6.946 -0.0953  0.0234  0.1845
  959POPC   C4A14002  15.048   8.514   7.267 -0.0129 -0.1895 -0.0280
  959POPC   C1B14003  16.100   8.429   6.159  0.1035  0.1357  0.1182
  959POPC   C2B14004  16.133   8.507   6.561 -0.1646 -0.2526  0.0794
  959POPC   C3B14005  16.336   8.459   6.970  0.3440  0.2213  0.0182
  959POPC   C4B14006  16.367   8.504   7.392  0.1883  0.1257 -0.1415
  960POPC   NC314007  18.114  18.307   5.119 -0.5282  0.1237  0.3567
  960POPC   PO414008  18.436  18.269   5.314 -0.0996 -0.4254  0.0624
  960POPC   GL114009  18.685  18.081   5.642 -0.4161 -0.1348  0.1988
  960POPC   GL214010  19.055  18.099   5.671  0.0263  0.1018  0.2399
  960POPC   C1A14011  18.721  17.703   5.970 -0.1908 -0.0222  0.1096
  960POPC   D2A14012  18.852  17.591   6.267  0.0424  0.3677  0.2353
  960POPC   C3A14013  18.688  17.378   6.683 -0.0325  0.1783  0.0176
  960POPC   C4A14014  18.456  17.260   7.140  0.0289  0.0495  0.2391
  960POPC   C1B14015  18.940  18.479   5.800 -0.0172  0.0374 -0.3038
  960POPC   C2B14016  18.764  18.710   6.123  0.1719  0.0748  0.0049
  960POPC   C3B14017  18.464  18.812   6.499 -0.4603  0.1249 -0.3155
  960POPC   C4B14018  18.186  18.937   6.921  0.1985 -0.2186 -0.1211
  961POPC   NC314019  19.241   9.254   4.898  0.0450  0.0405 -0.2148
  961POPC   PO414020  18.921   9.067   5.051  0.0089  0.0208 -0.1844
  961POPC   GL114021  19.074   9.194   5.460  0.2020  0.1028 -0.0221
  961POPC   GL214022  19.318   8.996   5.612  0.1340 -0.0556 -0.1933
  961POPC   C1A14023  19.078   9.415   5.767  0.0639 -0.0720  0.2814
  961POPC   D2A14024  18.957   9.405   6.179  0.1719  0.2525  0.3529
  961POPC   C3A14025  18.994   9.808   6.476 -0.1488 -0.0781  0.1270
  961POPC   C4A14026  19.316  10.142   6.592 -0.4274  0.0239  0.1659
  961POPC   C1B14027  19.331   9.073   6.045 -0.1385 -0.0556  0.0920
  961POPC   C2B14028  19.485   8.849   6.496  0.1352 -0.1154 -0.0529
  961POPC   C3B14029  19.552   8.536   6.846  0.0487  0.1138  0.0106
  961POPC   C4B14030  19.691   8.159   7.000  0.0652  0.0897 -0.4011
  962POPC   NC314031  11.079  13.330   5.293 -0.3940 -0.3260  0.4012
  962POPC   PO414032  11.463  13.369   5.511 -0.0104  0.0902  0.2482
  962POPC   GL114033  11.294  13.242   5.898  0.0461 -0.1421 -0.0172
  962POPC   GL214034  11.321  13.558   5.899 -0.1962 -0.3364  0.0568
  962POPC   C1A14035  11.300  13.070   6.265 -0.1635  0.0957 -0.1284
  962POPC   D2A14036  11.394  12.985   6.585  0.0771  0.1221 -0.2948
  962POPC   C3A14037  11.524  13.052   7.014  0.0865 -0.2103 -0.2864
  962POPC   C4A14038  11.540  12.799   7.369  0.0944  0.1579 -0.0452
  962POPC   C1B14039  11.149  13.538   6.309 -0.1327 -0.2642  0.1601
  962POPC   C2B14040  11.197  13.462   6.694 -0.2079  0.0532  0.1909
  962POPC   C3B14041  11.271  13.540   7.111 -0.1454 -0.0704 -0.4276
  962POPC   C4B14042  11.705  13.364   7.417 -0.1347  0.1465  0.0925
  963POPC   NC314043   9.828   5.087   4.801  0.1415 -0.1927  0.1935
  963POPC   PO414044   9.542   4.848   4.944  0.2111  0.1795  0.0512
  963POPC   GL114045   9.900   4.888   5.333  0.0085  0.0483 -0.0943
  963POPC   GL214046   9.841   5.183   5.281  0.1569  0.0768 -0.2795
  963POPC   C1A14047   9.945   4.791   5.790 -0.1327 -0.0847  0.0645
  963POPC   D2A14048   9.770   4.753   6.242  0.2069 -0.0136 -0.1795
  963POPC   C3A14049   9.406   4.979   6.522  0.0368 -0.1803  0.3418
  963POPC   C4A14050   9.049   5.133   6.807  0.4732  0.0958  0.3791
  963POPC   C1B14051  10.109   5.403   5.474 -0.0003  0.1150  0.0026
  963POPC   C2B14052  10.188   5.736   5.656 -0.1771 -0.1531 -0.0272
  963POPC   C3B14053  10.119   5.773   6.101  0.3155  0.0299  0.1369
  963POPC   C4B14054  10.467   5.590   6.245  0.2051 -0.0487 -0.3869
  964POPC   NC314055  15.749   6.551   5.096 -0.2305  0.2682 -0.1279
  964POPC   PO414056  16.191   6.644   5.297 -0.1151 -0.2796  0.0272
  964POPC   GL114057  16.173   6.815   5.710  0.0696  0.0669 -0.1129
  964POPC   GL214058  16.200   6.608   5.925  0.1147  0.1556 -0.0339
  964POPC   C1A14059  15.835   7.143   5.806 -0.1948  0.1322  0.1805
  964POPC   D2A14060  15.534   7.410   5.992 -0.1210 -0.1032 -0.1225
  964POPC   C3A14061  15.585   7.553   6.422  0.1698 -0.0130 -0.4062
  964POPC   C4A14062  15.898   7.570   6.754  0.0211 -0.2301  0.0381
  964POPC   C1B14063  16.435   6.784   6.300 -0.0703 -0.0551  0.2344
  964POPC   C2B14064  16.316   7.038   6.618  0.1732  0.4876  0.2342
  964POPC   C3B14065  15.971   7.105   6.844  0.0384  0.0262  0.5543
  964POPC   C4B14066  15.594   7.215   6.872 -0.0833  0.2475 -0.2661
  965POPC   NC314067  16.481   8.499   5.272  0.2511  0.1416 -0.1149
  965POPC   PO414068  16.796   8.842   5.279  0.0470 -0.2833  0.0863
  965POPC   GL114069  16.682   8.897   5.686  0.0468  0.1337 -0.1920
  965POPC   GL214070  16.454   8.558   5.787 -0.3583  0.1195  0.3447
  965POPC   C1A14071  16.661   9.097   6.176  0.2906  0.1407  0.2207
  965POPC   D2A14072  16.523   8.941   6.558 -0.1374 -0.2177  0.0886
  965POPC   C3A14073  16.739   8.878   6.892 -0.1819 -0.1480  0.2292
  965POPC   C4A14074  16.782   8.733   7.313 -0.3651  0.0050  0.0406
  965POPC   C1B14075  16.635   8.541   6.184 -0.1353  0.1801 -0.0430
  965POPC   C2B14076  16.657   8.346   6.571  0.2519  0.2206  0.0958
  965POPC   C3B14077  16.958   8.402   6.829  0.0479  0.1876  0.1057
  965POPC   C4B14078  17.158   8.382   7.248 -0.2218  0.6862 -0.4011
  966POPC   NC314079  13.128  19.331   5.228  0.2029 -0.0040 -0.1396
  966POPC   PO414080  13.030  18.898   5.200 -0.2230 -0.1702  0.0418
  966POPC   GL114081  13.201  18.858   5.625 -0.1251  0.2381 -0.0075
  966POPC   GL214082  13.485  18.532   5.801  0.1027 -0.0837  0.1554
  966POPC   C1A14083  13.315  18.942   5.994 -0.0583  0.2175 -0.3215
  966POPC   D2A14084  13.169  19.151   6.362 -0.1028  0.0257 -0.1850
  966POPC   C3A14085  13.002  19.043   6.785  0.2418  0.0831 -0.1403
  966POPC   C4A14086  12.775  19.028   7.115  0.3881  0.1894  0.0380
  966POPC   C1B14087  13.553  18.556   6.277 -0.4369 -0.2939  0.0029
  966POPC   C2B14088  13.526  18.763   6.596 -0.2987 -0.1145 -0.0288
  966POPC   C3B14089  13.511  18.702   7.061 -0.0938 -0.0382  0.0167
  966POPC   C4B14090  13.302  18.882   7.332  0.1449  0.2648 -0.1893
  967POPC   NC314091   6.677  12.081   5.389 -0.0028  0.1399 -0.1211
  967POPC   PO414092   6.310  12.226   5.548 -0.0676  0.3396 -0.0402
  967POPC   GL114093   6.223  12.305   5.981 -0.0950  0.2889 -0.0538
  967POPC   GL214094   6.095  12.546   6.128 -0.0566 -0.2093  0.1352
  967POPC   C1A14095   6.425  12.297   6.443 -0.0402 -0.2359 -0.0838
  967POPC   D2A14096   6.863  12.181   6.594 -0.2590  0.0604 -0.1768
  967POPC   C3A14097   7.034  11.897   6.934  0.1894 -0.0884  0.1998
  967POPC   C4A14098   7.171  11.576   7.201  0.1001  0.0764 -0.4634
  967POPC   C1B14099   5.865  12.515   6.430 -0.2258 -0.4868 -0.0921
  967POPC   C2B14100   5.504  12.339   6.694 -0.4862  0.2974  0.1325
  967POPC   C3B14101   5.136  12.048   6.751  0.2445  0.0404  0.1203
  967POPC   C4B14102   5.114  11.715   7.175 -0.0370 -0.0455  0.1235
  968POPC   NC314103  11.531   3.562   4.792 -0.0348 -0.2508  0.2879
  968POPC   PO414104  11.938   3.494   5.007  0.4274  0.0020  0.1618
  968POPC   GL114105  11.962   3.662   5.500 -0.0059  0.2600 -0.2649
  968POPC   GL214106  11.938   3.937   5.619 -0.1941 -0.2426  0.1266
  968POPC   C1A14107  12.102   3.444   5.769  0.2568  0.5150 -0.1588
  968POPC   D2A14108  12.262   3.720   6.035 -0.3137 -0.1828  0.1063
  968POPC   C3A14109  11.847   3.951   6.198  0.1541  0.0752  0.1079
  968POPC   C4A14110  11.740   4.266   6.493 -0.3578  0.0919 -0.2446
  968POPC   C1B14111  11.590   4.198   5.822  0.0408  0.1021  0.0532
  968POPC   C2B14112  11.101   4.156   5.752  0.0553 -0.1090 -0.0553
  968POPC   C3B14113  10.583   4.266   5.940  0.0530  0.1686 -0.1321
  968POPC   C4B14114  10.144   4.410   5.958 -0.2131 -0.0434 -0.1131
  969POPC   NC314115  15.825   3.531   5.316  0.1903  0.1091 -0.2267
  969POPC   PO414116  16.280   3.498   5.203  0.2844 -0.3794 -0.3737
  969POPC   GL114117  16.274   3.505   5.604 -0.0141  0.0463 -0.2357
  969POPC   GL214118  16.572   3.349   5.821 -0.0759  0.0958  0.1907
  969POPC   C1A14119  16.247   3.743   5.949  0.0502  0.4981  0.0966
  969POPC   D2A14120  15.942   3.987   6.119  0.1729 -0.1999 -0.0686
  969POPC   C3A14121  15.628   3.928   5.916  0.0165  0.0148 -0.2504
  969POPC   C4A14122  15.283   4.170   5.828 -0.2677  0.3503  0.0585
  969POPC   C1B14123  16.561   3.436   6.247  0.0559 -0.0141  0.1892
  969POPC   C2B14124  16.363   3.496   6.623 -0.3098  0.0082  0.0085
  969POPC   C3B14125  15.992   3.574   6.833 -0.0877  0.0474 -0.0923
  969POPC   C4B14126  15.506   3.427   6.807 -0.3151  0.2793  0.0496
  970POPC   NC314127  13.530  12.422   5.318 -0.0674 -0.0223 -0.0697
  970POPC   PO414128  13.857  12.198   5.334  0.0112 -0.0144 -0.0006
  970POPC   GL114129  13.983  12.015   5.743 -0.2302 -0.2977 -0.1145
  970POPC   GL214130  13.804  11.643   5.760  0.1384  0.1225 -0.0350
  970POPC   C1A14131  13.900  11.874   6.181 -0.0603  0.1893  0.0505
  970POPC   D2A14132  13.874  11.913   6.615  0.0464 -0.2055 -0.2842
  970POPC   C3A14133  13.887  11.748   7.079 -0.0126  0.2436  0.0526
  970POPC   C4A14134  14.107  11.821   7.488 -0.2452  0.1063 -0.2468
  970POPC   C1B14135  13.637  11.380   6.154 -0.0058  0.1494  0.1841
  970POPC   C2B14136  13.440  11.131   6.438  0.0198 -0.1449 -0.0002
  970POPC   C3B14137  13.399  11.057   6.799  0.1664 -0.0993 -0.1375
  970POPC   C4B14138  13.657  11.310   7.057  0.0376 -0.2699 -0.0208
  971POPC   NC314139   7.572  16.279   5.151 -0.4393  0.1868 -0.0347
  971POPC   PO414140   7.682  15.813   5.173  0.0387  0.6080  0.1086
  971POPC   GL114141   7.928  15.986   5.584  0.1073 -0.3590  0.1816
  971POPC   GL214142   8.285  16.011   5.827  0.0881 -0.4339 -0.1169
  971POPC   C1A14143   7.705  16.012   5.976 -0.0645  0.1131  0.1403
  971POPC   D2A14144   7.291  15.890   6.118 -0.0247 -0.3385 -0.0442
  971POPC   C3A14145   7.184  16.163   6.582  0.2048 -0.0767 -0.1009
  971POPC   C4A14146   7.249  16.336   7.004  0.0242  0.1317  0.0406
  971POPC   C1B14147   8.179  16.118   6.250  0.4554 -0.1723  0.0298
  971POPC   C2B14148   8.234  16.175   6.607 -0.0206 -0.0727  0.0925
  971POPC   C3B14149   8.087  16.220   6.993  0.0641  0.4835 -0.2856
  971POPC   C4B14150   7.904  16.384   7.336 -0.0475 -0.0102  0.1828
  972POPC   NC314151   0.344  18.241   5.100  0.0446 -0.4072 -0.1117
  972POPC   PO414152   0.749  18.233   5.086  0.0617 -0.1960 -0.1047
  972POPC   GL114153   0.660  18.067   5.442  0.3390  0.1525  0.0309
  972POPC   GL214154   0.957  18.204   5.607  0.1143  0.0519  0.0414
  972POPC   C1A14155   0.735  17.683   5.728  0.2052  0.2124 -0.4615
  972POPC   D2A14156   0.864  17.468   6.088  0.1827  0.2596 -0.1590
  972POPC   C3A14157   0.861  17.203   6.418 -0.0128 -0.2334  0.1178
  972POPC   C4A14158   0.450  17.037   6.603  0.2121  0.0837 -0.1756
  972POPC   C1B14159   0.582  18.165   5.898  0.0998  0.1872 -0.1568
  972POPC   C2B14160   0.315  18.183   6.271 -0.2790 -0.3695  0.0688
  972POPC   C3B14161  -0.061  18.102   6.599 -0.2177 -0.0067 -0.1729
  972POPC   C4B14162  -0.117  17.839   6.924  0.1278  0.0702 -0.4773
  973POPC   NC314163  13.836  16.625   4.834  0.2593  0.2366  0.3379
  973POPC   PO414164  13.572  16.848   5.051 -0.1133  0.0237 -0.1571
  973POPC   GL114165  13.594  16.922   5.593  0.0350 -0.1739  0.1393
  973POPC   GL214166  13.776  16.666   5.880  0.0818  0.1542  0.2041
  973POPC   C1A14167  13.346  17.003   5.995 -0.0702  0.4325  0.1737
  973POPC   D2A14168  13.232  16.850   6.461  0.0573 -0.1963  0.0041
  973POPC   C3A14169  13.144  17.197   6.600 -0.2651  0.2716  0.0131
  973POPC   C4A14170  13.354  17.562   6.813  0.0744 -0.2399  0.0734
  973POPC   C1B14171  13.679  16.729   6.305 -0.1072 -0.0771 -0.0272
  973POPC   C2B14172  13.668  16.668   6.778  0.1377  0.1111 -0.0343
  973POPC   C3B14173  14.031  16.680   7.063  0.0044  0.3331  0.3553
  973POPC   C4B14174  14.049  16.468   7.434  0.3968  0.1769  0.0669
  974POPC   NC314175   8.315   6.425   5.395  0.0718  0.0816 -0.0823
  974POPC   PO414176   8.366   6.853   5.534 -0.2125 -0.3074 -0.2168
  974POPC   GL114177   8.556   7.087   5.815 -0.2166 -0.1814 -0.0738
  974POPC   GL214178   8.800   7.241   5.783 -0.0436 -0.3066 -0.1162
  974POPC   C1A14179   8.441   7.093   6.212  0.0506  0.0411 -0.1527
  974POPC   D2A14180   8.654   7.067   6.557 -0.2297  0.1629  0.2950
  974POPC   C3A14181   8.694   6.707   6.979  0.1467 -0.0589 -0.1937
  974POPC   C4A14182   8.364   6.652   7.244 -0.1298  0.1126 -0.3670
  974POPC   C1B14183   9.033   7.366   6.178  0.2939 -0.0217 -0.1068
  974POPC   C2B14184   9.308   7.177   6.508  0.2151  0.4251 -0.0874
  974POPC   C3B14185   9.615   6.872   6.219  0.1697 -0.1974 -0.0210
  974POPC   C4B14186   9.855   7.043   5.938 -0.0991  0.2548  0.0348
  975POPC   NC314187   7.521  18.008   4.918  0.1972  0.0119 -0.3618
  975POPC   PO414188   7.225  17.675   4.935 -0.0197 -0.0335 -0.0504
  975POPC   GL114189   7.323  17.806   5.392  0.5910 -0.0020 -0.2691
  975POPC   GL214190   7.060  17.735   5.676 -0.0860 -0.3103 -0.2499
  975POPC   C1A14191   7.639  17.744   5.620  0.2353  0.1359  0.1807
  975POPC   D2A14192   8.120  17.644   5.748  0.0395 -0.2471 -0.2904
  975POPC   C3A14193   8.304  18.074   5.776  0.0301  0.2523  0.0918
  975POPC   C4A14194   8.427  18.466   5.596  0.1181  0.1318  0.0355
  975POPC   C1B14195   6.861  17.385   5.886  0.1419 -0.1629 -0.1209
  975POPC   C2B14196   6.609  17.361   6.303  0.1525  0.0733  0.0563
  975POPC   C3B14197   6.734  17.517   6.741  0.2031  0.1056 -0.2435
  975POPC   C4B14198   7.012  17.538   7.104 -0.4220  0.1168  0.0580
  976POPC   NC314199   6.456   4.705   4.718  0.1888  0.1597 -0.2915
  976POPC   PO414200   6.222   5.034   4.611 -0.3955 -0.2263  0.0875
  976POPC   GL114201   6.229   4.996   5.079  0.0310 -0.0026  0.0252
  976POPC   GL214202   6.093   4.731   5.210 -0.3039 -0.2885 -0.0946
  976POPC   C1A14203   6.198   5.276   5.458 -0.0282  0.0488  0.2420
  976POPC   D2A14204   6.443   5.525   5.662  0.2663  0.4211 -0.0008
  976POPC   C3A14205   6.638   5.412   6.059  0.1682  0.1877  0.1174
  976POPC   C4A14206   6.715   5.122   6.455 -0.0394  0.1277 -0.0321
  976POPC   C1B14207   6.350   4.537   5.623  0.3031  0.0920  0.0407
  976POPC   C2B14208   6.810   4.388   5.706  0.1853  0.2235  0.0234
  976POPC   C3B14209   6.791   4.100   5.924  0.3464  0.0922 -0.0924
  976POPC   C4B14210   6.741   3.846   6.382  0.1072 -0.0309 -0.1236
  977POPC   NC314211  11.836   8.263   4.858  0.1668 -0.1470  0.0713
  977POPC   PO414212  11.495   8.598   4.794  0.3484  0.2448  0.1755
  977POPC   GL114213  11.651   8.846   5.197 -0.2770 -0.0866 -0.1070
  977POPC   GL214214  11.514   8.585   5.520 -0.0005  0.1024  0.1661
  977POPC   C1A14215  11.567   9.135   5.399  0.1528 -0.1210 -0.1078
  977POPC   D2A14216  11.696   9.136   5.707 -0.0913  0.1053 -0.2049
  977POPC   C3A14217  11.565   9.397   6.029 -0.2519  0.0161  0.2887
  977POPC   C4A14218  11.285   9.654   6.014  0.1930  0.1603 -0.0864
  977POPC   C1B14219  11.488   8.429   5.993 -0.3554  0.2335  0.3221
  977POPC   C2B14220  11.115   8.617   6.366 -0.3543 -0.2393  0.2662
  977POPC   C3B14221  10.920   8.643   6.849  0.0664 -0.1340  0.0947
  977POPC   C4B14222  10.964   8.613   7.275  0.1712 -0.0573 -0.2301
  978POPC   NC314223  17.663  17.675   4.833  0.1795 -0.0125 -0.1463
  978POPC   PO414224  17.875  17.762   5.210 -0.0864 -0.0188 -0.2034
  978POPC   GL114225  18.160  17.590   5.619  0.1128 -0.0421  0.0492
  978POPC   GL214226  17.846  17.598   5.678  0.5114 -0.0407  0.0955
  978POPC   C1A14227  18.150  17.829   5.964  0.1447  0.0941  0.0546
  978POPC   D2A14228  17.971  17.870   6.302 -0.3337 -0.1553  0.2898
  978POPC   C3A14229  17.909  18.064   6.703  0.1286 -0.3436  0.0900
  978POPC   C4A14230  17.938  18.146   7.068 -0.0167  0.1484 -0.1157
  978POPC   C1B14231  17.682  17.501   6.078  0.2108 -0.1097 -0.0703
  978POPC   C2B14232  17.689  17.571   6.581 -0.0401  0.0959  0.1120
  978POPC   C3B14233  17.694  17.509   7.035  0.2096  0.1483  0.1557
  978POPC   C4B14234  17.916  17.364   7.421 -0.3386  0.3732  0.0178
  979POPC   NC314235   5.327  12.314   5.540  0.3040  0.0309  0.0762
  979POPC   PO414236   5.511  12.676   5.491  0.2568 -0.2025  0.1140
  979POPC   GL114237   5.617  12.608   5.916  0.2007  0.0092  0.0241
  979POPC   GL214238   5.689  12.306   5.884  0.0180 -0.1081  0.1468
  979POPC   C1A14239   5.374  12.765   6.364  0.1329 -0.1754 -0.2338
  979POPC   D2A14240   5.317  12.864   6.744  0.0979  0.1354  0.0104
  979POPC   C3A14241   5.692  12.879   6.978  0.2139  0.1125 -0.2318
  979POPC   C4A14242   6.051  12.511   7.100  0.1847  0.0987  0.1124
  979POPC   C1B14243   5.387  12.284   6.250  0.1654  0.1942  0.0165
  979POPC   C2B14244   4.980  12.324   6.327  0.0390 -0.0996 -0.0373
  979POPC   C3B14245   4.880  12.601   6.634 -0.0922 -0.3107 -0.1430
  979POPC   C4B14246   4.773  12.299   7.047  0.2519  0.0025  0.2376
  980POPC   NC314247   4.714   1.720   4.413 -0.0018  0.0751 -0.1406
  980POPC   PO414248   5.109   1.796   4.674  0.0899 -0.2860  0.3022
  980POPC   GL114249   5.003   1.895   4.973  0.2462 -0.3734 -0.1813
  980POPC   GL214250   4.782   2.168   4.884  0.0429 -0.0959  0.4017
  980POPC   C1A14251   5.033   1.734   5.426  0.1147 -0.1731 -0.3307
  980POPC   D2A14252   5.103   1.582   5.909 -0.0693 -0.3429 -0.0014
  980POPC   C3A14253   5.378   1.742   6.293 -0.0157  0.0773  0.0135
  980POPC   C4A14254   5.696   1.982   6.537  0.2949  0.2708 -0.1947
  980POPC   C1B14255   4.575   2.085   5.279 -0.0314  0.3589  0.5252
  980POPC   C2B14256   4.285   2.038   5.553  0.2768 -0.0061 -0.3513
  980POPC   C3B14257   4.218   1.981   5.871  0.2912  0.0391 -0.0588
  980POPC   C4B14258   4.425   2.170   6.235 -0.2084 -0.2350 -0.4595
  981YOPC   NC314259  10.826   8.254   4.899  0.2754  0.0036 -0.1376
  981YOPC   PO414260  10.744   7.853   4.722  0.0841 -0.0062 -0.1665
  981YOPC   GL114261  10.607   7.881   5.196  0.1635  0.1490  0.0065
  981YOPC   GL214262  10.644   8.273   5.328  0.1330  0.1371  0.2368
  981YOPC   C1A14263  10.661   7.647   5.434 -0.1561  0.1556  0.1505
  981YOPC   D2A14264  10.662   7.169   5.538 -0.1674 -0.0337  0.1898
  981YOPC   C3A14265  10.632   6.898   5.845 -0.2830  0.0571 -0.0044
  981YOPC   C4A14266  10.302   6.846   6.112 -0.0908 -0.1308  0.1140
  981YOPC   C1B14267  10.577   8.084   5.713 -0.0445 -0.0828  0.2944
  981YOPC   C2B14268  10.394   8.201   6.141  0.4504 -0.1438 -0.1029
  981YOPC   D3B14269  10.367   7.889   6.396  0.1739  0.0769  0.3347
  981YOPC   C4B14270  10.340   7.607   6.629 -0.0721  0.1596  0.1344
  982YOPC   NC314271   8.581   8.331   4.711 -0.0379  0.0258 -0.1263
  982YOPC   PO414272   8.650   8.782   4.843 -0.1208 -0.0473  0.0642
  982YOPC   GL114273   8.465   8.878   5.304  0.1852 -0.1917  0.1566
  982YOPC   GL214274   8.540   8.740   5.561 -0.0718  0.1156 -0.3020
  982YOPC   C1A14275   8.342   9.204   5.486 -0.2568  0.1751 -0.1929
  982YOPC   D2A14276   8.259   9.317   5.836  0.0590  0.1632  0.1665
  982YOPC   C3A14277   8.386   8.994   6.172  0.0478  0.1763  0.1004
  982YOPC   C4A14278   8.660   8.911   6.623  0.1275 -0.1089 -0.0140
  982YOPC   C1B14279   8.706   9.114   5.799 -0.1067 -0.1999  0.1000
  982YOPC   C2B14280   8.986   9.220   6.059  0.0121  0.2092  0.1606
  982YOPC   D3B14281   9.382   9.508   6.077 -0.0963  0.1082  0.1367
  982YOPC   C4B14282   9.708   9.742   6.330  0.2328 -0.1968  0.1310
  983YOPC   NC314283  18.017   5.348   5.005  0.1368 -0.1987 -0.2956
  983YOPC   PO414284  18.308   5.665   5.276  0.3624 -0.2181 -0.1532
  983YOPC   GL114285  18.407   5.338   5.383  0.4768  0.2903  0.1880
  983YOPC   GL214286  18.728   5.308   5.398  0.3260  0.3959  0.3963
  983YOPC   C1A14287  18.443   4.905   5.577  0.0793 -0.1801 -0.0816
  983YOPC   D2A14288  18.595   4.574   5.932 -0.0472  0.0825  0.3326
  983YOPC   C3A14289  18.400   4.204   5.838  0.3416  0.0108  0.1661
  983YOPC   C4A14290  18.430   3.857   5.728  0.0815  0.1016 -0.0260
  983YOPC   C1B14291  19.094   5.378   5.377  0.2782  0.1648 -0.1672
  983YOPC   C2B14292  19.626   5.356   5.537  0.1669 -0.0534  0.4345
  983YOPC   D3B14293  19.687   5.350   5.878  0.0631 -0.1079  0.4072
  983YOPC   C4B14294  19.601   5.305   6.254  0.0135 -0.0299 -0.0422
  984YOPC   NC314295   3.336   8.187   5.071  0.0802 -0.0229  0.2204
  984YOPC   PO414296   3.477   8.564   4.981  0.0888 -0.1308 -0.1639
  984YOPC   GL114297   3.445   8.471   5.530 -0.0002 -0.2608 -0.1058
  984YOPC   GL214298   3.505   8.825   5.675  0.2834 -0.2051  0.3458
  984YOPC   C1A14299   3.584   8.447   5.922 -0.1000 -0.3123 -0.1182
  984YOPC   D2A14300   3.695   8.471   6.422  0.0433  0.3064  0.1169
  984YOPC   C3A14301   3.492   8.193   6.754 -0.1618 -0.0585  0.3211
  984YOPC   C4A14302   3.322   8.025   7.018  0.1208  0.1492 -0.2362
  984YOPC   C1B14303   3.892   9.030   5.868 -0.0099 -0.0447 -0.0972
  984YOPC   C2B14304   4.210   9.230   5.680 -0.0372  0.4449  0.0565
  984YOPC   D3B14305   4.489   9.407   5.974 -0.1091 -0.0522 -0.0726
  984YOPC   C4B14306   4.694   9.263   6.330  0.4942 -0.4026  0.0812
  985YOPC   NC314307  15.717  15.898   5.255 -0.2166  0.1404 -0.0472
  985YOPC   PO414308  16.181  16.063   5.282  0.3293  0.1717 -0.6318
  985YOPC   GL114309  16.026  16.156   5.690  0.2868  0.0526 -0.0930
  985YOPC   GL214310  15.824  15.891   5.758  0.0707 -0.1775  0.0634
  985YOPC   C1A14311  16.082  16.054   6.174  0.4527 -0.1761 -0.0328
  985YOPC   D2A14312  16.028  16.130   6.520  0.2155 -0.1551 -0.0646
  985YOPC   C3A14313  16.352  16.264   6.787 -0.0698  0.1539  0.0645
  985YOPC   C4A14314  16.682  16.528   6.825  0.3777  0.1072 -0.6952
  985YOPC   C1B14315  15.649  16.256   6.060 -0.1038  0.2865  0.0427
  985YOPC   C2B14316  15.822  16.703   6.348 -0.1074 -0.0809 -0.2454
  985YOPC   D3B14317  15.925  16.600   6.795  0.0794  0.1849 -0.0206
  985YOPC   C4B14318  16.041  16.386   7.198  0.1071 -0.2434 -0.1526
  986YOPC   NC314319   2.612   5.782   4.739 -0.3784 -0.0804 -0.0646
  986YOPC   PO414320   2.226   5.842   4.984  0.0861 -0.1960 -0.0231
  986YOPC   GL114321   2.179   5.488   5.218  0.1497 -0.0558 -0.1670
  986YOPC   GL214322   2.266   5.191   5.289  0.0416  0.3366  0.1143
  986YOPC   C1A14323   2.166   5.566   5.630 -0.1610 -0.3242  0.0799
  986YOPC   D2A14324   2.323   5.635   6.145  0.0050  0.1333  0.3821
  986YOPC   C3A14325   2.561   5.652   6.568 -0.1485  0.2132 -0.3989
  986YOPC   C4A14326   2.508   5.985   6.879 -0.1588 -0.1339  0.0728
  986YOPC   C1B14327   2.211   5.077   5.627 -0.0454 -0.0213 -0.0004
  986YOPC   C2B14328   2.270   5.142   6.026  0.2939 -0.0910  0.0303
  986YOPC   D3B14329   2.653   5.201   6.216  0.2290  0.1792  0.0451
  986YOPC   C4B14330   3.052   4.943   6.127  0.4672 -0.1966 -0.1401
  987YOPC   NC314331   8.595   7.969   5.368 -0.0846  0.2839 -0.3140
  987YOPC   PO414332   8.457   8.371   5.197  0.0877  0.3516 -0.3067
  987YOPC   GL114333   8.215   8.206   5.571  0.1487 -0.0404  0.1809
  987YOPC   GL214334   8.109   8.407   5.720 -0.1026 -0.1861  0.1782
  987YOPC   C1A14335   8.074   8.032   6.025 -0.1119  0.2267 -0.0560
  987YOPC   D2A14336   7.847   8.081   6.435 -0.1208  0.1239  0.1600
  987YOPC   C3A14337   7.360   7.789   6.413 -0.1031 -0.3553  0.1271
  987YOPC   C4A14338   7.026   7.559   6.562 -0.1784  0.1003  0.1025
  987YOPC   C1B14339   8.353   8.503   6.019  0.1125  0.0689 -0.1839
  987YOPC   C2B14340   8.806   8.700   6.043  0.1677  0.1338  0.2105
  987YOPC   D3B14341   9.282   8.583   6.000 -0.2057 -0.2075 -0.0658
  987YOPC   C4B14342   9.542   8.261   5.756 -0.2721  0.0172  0.0597
  988YOPC   NC314343   6.266   7.572   4.442 -0.1658 -0.2446 -0.1471
  988YOPC   PO414344   6.576   7.358   4.748  0.1183  0.2562 -0.0798
  988YOPC   GL114345   6.553   7.449   5.174 -0.0450 -0.1442  0.0934
  988YOPC   GL214346   6.259   7.430   5.416 -0.1435 -0.0898 -0.0655
  988YOPC   C1A14347   6.487   7.883   5.314 -0.0546  0.1618 -0.0313
  988YOPC   D2A14348   6.723   8.176   5.567 -0.1866 -0.0074  0.0023
  988YOPC   C3A14349   6.840   8.027   5.940 -0.0781  0.2618 -0.0628
  988YOPC   C4A14350   6.810   7.616   6.101 -0.3886 -0.0001  0.4073
  988YOPC   C1B14351   6.412   7.763   5.796  0.0576  0.0976 -0.2647
  988YOPC   C2B14352   6.427   8.174   6.031  0.2434 -0.3907  0.1499
  988YOPC   D3B14353   6.622   8.460   6.256  0.1319  0.0460 -0.0977
  988YOPC   C4B14354   6.945   8.449   6.379 -0.2719 -0.1973 -0.1939
  989YOPC   NC314355   1.288   3.921   4.934  0.3748  0.0336  0.0221
  989YOPC   PO414356   0.981   3.610   5.059 -0.1854 -0.0944 -0.2497
  989YOPC   GL114357   1.278   3.700   5.423  0.1635 -0.3325  0.1805
  989YOPC   GL214358   1.606   3.514   5.432  0.0107  0.2639  0.0472
  989YOPC   C1A14359   1.297   3.434   5.790 -0.1236  0.1221  0.0900
  989YOPC   D2A14360   1.534   3.243   6.133  0.1496  0.3479 -0.3026
  989YOPC   C3A14361   1.870   3.081   6.261 -0.1709  0.0224 -0.2693
  989YOPC   C4A14362   2.284   2.815   6.377  0.2813  0.1383  0.0252
  989YOPC   C1B14363   1.797   3.569   5.860  0.0061 -0.1564  0.0386
  989YOPC   C2B14364   1.879   3.647   6.384 -0.2792  0.2154  0.2018
  989YOPC   D3B14365   2.231   3.848   6.653  0.3360 -0.0842  0.1635
  989YOPC   C4B14366   2.097   3.788   6.954  0.0817  0.4829  0.1753
  990YOPC   NC314367  17.519   0.767   5.166 -0.2833  0.0550 -0.0495
  990YOPC   PO414368  17.846   0.480   4.989  0.0559  0.1601  0.0355
  990YOPC   GL114369  18.030   0.824   5.221 -0.1604 -0.2785 -0.0157
  990YOPC   GL214370  18.346   0.921   5.075 -0.0586  0.1673 -0.0407
  990YOPC   C1A14371  18.195   1.080   5.607  0.0213  0.1480  0.1384
  990YOPC   D2A14372  18.204   1.194   5.998 -0.0198  0.0414 -0.1143
  990YOPC   C3A14373  18.084   0.917   6.273 -0.1448  0.1586  0.1197
  990YOPC   C4A14374  17.945   0.912   6.642  0.2695  0.1820  0.0972
  990YOPC   C1B14375  18.616   0.779   5.399 -0.3987  0.2905 -0.3855
  990YOPC   C2B14376  18.661   1.074   5.828 -0.0248  0.2100  0.2281
  990YOPC   D3B14377  18.585   1.036   6.319  0.0849 -0.1922  0.1275
  990YOPC   C4B14378  18.779   1.221   6.688  0.2221  0.0750  0.3043
  991YOPC   NC314379  14.546  12.888   5.439  0.0758  0.0219 -0.0343
  991YOPC   PO414380  14.103  12.638   5.386  0.0638  0.1430 -0.2099
  991YOPC   GL114381  14.111  12.916   5.735  0.1733 -0.1500  0.1236
  991YOPC   GL214382  14.010  13.168   5.601 -0.0149  0.5301 -0.0577
  991YOPC   C1A14383  14.195  12.919   6.111  0.0664  0.0895  0.1136
  991YOPC   D2A14384  14.425  12.569   6.389  0.0768 -0.1259  0.2389
  991YOPC   C3A14385  14.743  12.613   6.697 -0.2862 -0.2774  0.0419
  991YOPC   C4A14386  15.158  12.634   6.584  0.0683 -0.0782 -0.1080
  991YOPC   C1B14387  13.904  13.457   5.918  0.0844 -0.0438 -0.1167
  991YOPC   C2B14388  13.628  13.425   6.315  0.2777 -0.0361  0.1385
  991YOPC   D3B14389  13.587  13.304   6.790  0.0827  0.0110  0.1056
  991YOPC   C4B14390  13.825  13.126   7.044  0.0335  0.4978  0.1822
  992YOPC   NC314391  12.781  12.594   5.629  0.0383  0.2667 -0.1798
  992YOPC   PO414392  13.002  13.023   5.500  0.1942  0.3373  0.0918
  992YOPC   GL114393  12.867  13.046   5.822  0.2912  0.2705  0.0637
  992YOPC   GL214394  12.616  13.284   5.867  0.2164 -0.0287 -0.5959
  992YOPC   C1A14395  13.000  13.041   6.144  0.0269  0.2595  0.2455
  992YOPC   D2A14396  12.884  13.066   6.552  0.1240  0.0292 -0.1254
  992YOPC   C3A14397  12.768  13.599   6.781 -0.2452  0.3377  0.1765
  992YOPC   C4A14398  13.087  13.858   6.945 -0.0195 -0.0113  0.1028
  992YOPC   C1B14399  12.740  13.494   6.267 -0.0363  0.0277  0.0673
  992YOPC   C2B14400  12.797  13.859   6.342 -0.2725  0.1167 -0.2128
  992YOPC   D3B14401  12.744  14.122   6.682  0.1724 -0.1082  0.2545
  992YOPC   C4B14402  12.790  14.265   7.082  0.1751 -0.1756  0.1005
  993YOPC   NC314403  11.413  14.056   5.557 -0.2414 -0.1351  0.2829
  993YOPC   PO414404  11.370  14.527   5.483  0.0832  0.1225 -0.0697
  993YOPC   GL114405  11.568  14.318   5.926 -0.2451  0.0839  0.0308
  993YOPC   GL214406  11.961  14.324   5.988 -0.0624  0.1122 -0.0308
  993YOPC   C1A14407  11.257  14.137   6.215  0.1422 -0.0593 -0.1662
  993YOPC   D2A14408  10.847  14.137   6.459  0.1917  0.3157  0.2370
  993YOPC   C3A14409  10.501  14.250   6.509  0.0027 -0.2676  0.0878
  993YOPC   C4A14410  10.043  14.231   6.673  0.0979  0.2254  0.2112
  993YOPC   C1B14411  11.724  14.092   6.346 -0.2793  0.1870  0.0260
  993YOPC   C2B14412  11.602  13.883   6.684 -0.2295 -0.0189  0.0502
  993YOPC   D3B14413  11.440  14.051   7.119  0.1328  0.0440 -0.1560
  993YOPC   C4B14414  11.017  13.915   6.909  0.4098  0.1095  0.1202
  994YOPC   NC314415   0.516   6.244   4.951 -0.1940 -0.0667  0.1944
  994YOPC   PO414416   0.795   5.958   4.768 -0.1356  0.2229  0.1663
  994YOPC   GL114417   0.980   5.943   5.237 -0.2002 -0.2740 -0.3835
  994YOPC   GL214418   0.759   6.181   5.408  0.2958  0.2949  0.0700
  994YOPC   C1A14419   1.275   5.979   5.571  0.1324 -0.0251 -0.3485
  994YOPC   D2A14420   1.426   6.004   6.028  0.0964 -0.0682  0.4582
  994YOPC   C3A14421   1.415   6.310   6.240  0.1106 -0.2471  0.1218
  994YOPC   C4A14422   1.370   6.512   6.683  0.0813  0.1905 -0.0026
  994YOPC   C1B14423   0.383   6.293   5.706 -0.2865 -0.3867  0.2139
  994YOPC   C2B14424   0.179   6.356   6.093  0.0226 -0.0084  0.1701
  994YOPC   D3B14425   0.387   6.368   6.448  0.0219  0.2884  0.0218
  994YOPC   C4B14426   0.681   6.578   6.786 -0.2677  0.1064 -0.2880
  995YOPC   NC314427   4.968   8.620   4.755  0.2467  0.0725 -0.0008
  995YOPC   PO414428   4.467   8.679   4.862  0.0765 -0.0200 -0.2241
  995YOPC   GL114429   4.328   8.705   5.230  0.4405  0.4743  0.3264
  995YOPC   GL214430   4.254   8.423   5.405 -0.2415  0.0182 -0.1428
  995YOPC   C1A14431   4.385   8.791   5.675  0.2461  0.1967  0.1211
  995YOPC   D2A14432   4.307   8.991   6.171 -0.3029  0.0605 -0.0602
  995YOPC   C3A14433   3.942   9.188   6.426 -0.0524 -0.1590  0.0842
  995YOPC   C4A14434   3.622   9.565   6.561 -0.0618  0.0744  0.1377
  995YOPC   C1B14435   3.986   8.530   5.637 -0.1126 -0.0703  0.0611
  995YOPC   C2B14436   4.013   8.612   6.091 -0.1283  0.3189 -0.1812
  995YOPC   D3B14437   3.531   8.895   6.211 -0.1669  0.0790 -0.0246
  995YOPC   C4B14438   3.294   9.189   5.970 -0.0255  0.1380 -0.0203
  996YOPC   NC314439   4.318   3.229   4.635 -0.2426 -0.2680 -0.1820
  996YOPC   PO414440   4.839   3.059   4.494 -0.0642  0.3743  0.2520
  996YOPC   GL114441   4.733   2.906   4.930  0.0757 -0.1377  0.0264
  996YOPC   GL214442   4.775   3.185   5.181  0.0218 -0.0736 -0.0178
  996YOPC   C1A14443   4.610   2.708   5.341 -0.0893  0.1731  0.1561
  996YOPC   D2A14444   4.373   2.545   5.709  0.2875 -0.0149 -0.0064
  996YOPC   C3A14445   4.647   2.236   5.826 -0.2207 -0.2903  0.1718
  996YOPC   C4A14446   4.702   1.828   5.807 -0.0318  0.3152  0.1921
  996YOPC   C1B14447   5.074   3.268   5.441 -0.0587 -0.0754  0.2561
  996YOPC   C2B14448   5.127   3.195   5.905  0.1956  0.2500 -0.0868
  996YOPC   D3B14449   5.257   2.911   6.171 -0.0751 -0.1650 -0.0623
  996YOPC   C4B14450   5.600   2.802   6.442  0.2309  0.1907  0.1835
  997YOPC   NC314451  11.549   4.481   4.888  0.1292  0.1237  0.1232
  997YOPC   PO414452  11.898   4.468   4.628  0.2149 -0.1298  0.1500
  997YOPC   GL114453  12.038   4.549   5.119  0.1108 -0.0113 -0.1312
  997YOPC   GL214454  12.163   4.805   5.126 -0.0204  0.1144  0.2027
  997YOPC   C1A14455  11.876   4.496   5.523 -0.0756 -0.1134  0.1062
  997YOPC   D2A14456  12.040   4.508   5.990 -0.2160  0.3159 -0.1346
  997YOPC   C3A14457  12.391   4.243   6.043  0.1256  0.1519  0.0232
  997YOPC   C4A14458  12.763   3.982   6.279  0.1201  0.0744  0.1171
  997YOPC   C1B14459  12.355   4.746   5.549 -0.0419 -0.1166  0.1107
  997YOPC   C2B14460  12.391   4.860   6.050 -0.3208  0.0655 -0.0821
  997YOPC   D3B14461  12.643   5.195   6.250 -0.0511 -0.1853  0.0677
  997YOPC   C4B14462  13.104   5.345   6.415 -0.1960 -0.1057 -0.0515
  998YOPC   NC314463   3.473  17.980   4.806 -0.0861 -0.0407 -0.0804
  998YOPC   PO414464   3.751  18.126   5.035  0.2106 -0.0307 -0.0024
  998YOPC   GL114465   3.471  18.011   5.357  0.0013  0.3135 -0.2618
  998YOPC   GL214466   3.241  18.264   5.258  0.1081  0.0651 -0.0605
  998YOPC   C1A14467   3.500  17.869   5.804  0.0337  0.3720 -0.2963
  998YOPC   D2A14468   3.318  17.603   6.140  0.0191 -0.1643 -0.0245
  998YOPC   C3A14469   3.453  17.337   6.342  0.2001 -0.5795 -0.2179
  998YOPC   C4A14470   3.627  17.036   6.710 -0.0330  0.0139 -0.4336
  998YOPC   C1B14471   3.375  18.767   5.327 -0.0275  0.1367  0.1013
  998YOPC   C2B14472   3.465  19.140   5.578 -0.3291 -0.1887 -0.1507
  998YOPC   D3B14473   3.522  19.475   5.818  0.0054  0.0690  0.0663
  998YOPC   C4B14474   3.532  19.722   6.209  0.0986  0.0576  0.5883
  999YOPC   NC314475   9.001  11.014   4.948 -0.3426  0.0407 -0.0642
  999YOPC   PO414476   8.768  11.313   5.197 -0.3471 -0.2810 -0.3752
  999YOPC   GL114477   8.606  11.224   5.590  0.0340 -0.2176 -0.4120
  999YOPC   GL214478   8.258  11.303   5.591  0.0394 -0.2451  0.0603
  999YOPC   C1A14479   8.721  11.011   6.090 -0.2816 -0.1840 -0.2823
  999YOPC   D2A14480   8.871  10.878   6.474  0.1333  0.3154 -0.0583
  999YOPC   C3A14481   8.956  11.170   6.697 -0.0905 -0.0760 -0.0412
  999YOPC   C4A14482   8.640  11.096   7.000  0.1450  0.0360 -0.2074
  999YOPC   C1B14483   8.283  10.925   5.952 -0.2596 -0.1587 -0.0382
  999YOPC   C2B14484   8.324  10.717   6.302 -0.2933 -0.1168 -0.0500
  999YOPC   D3B14485   8.495  10.493   6.695 -0.0339  0.1732  0.0115
  999YOPC   C4B14486   8.503  10.650   7.131  0.0736  0.5640  0.2640
 1000YOPC   NC314487  10.988  16.529   5.469  0.1614 -0.0035  0.0325
 1000YOPC   PO414488  10.841  16.117   5.363 -0.1219 -0.0031  0.0220
 1000YOPC   GL114489  10.786  16.270   5.853 -0.3359 -0.1422  0.2593
 1000YOPC   GL214490  11.069  16.387   5.921 -0.0453  0.2003  0.2940
 1000YOPC   C1A14491  10.780  16.393   6.371  0.0904 -0.0999  0.0163
 1000YOPC   D2A14492  10.615  16.332   6.837 -0.2163  0.0043 -0.1434
 1000YOPC   C3A14493  10.500  16.672   6.984  0.1004  0.0580 -0.1957
 1000YOPC   C4A14494  10.534  17.070   7.117  0.0060  0.1615 -0.0115
 1000YOPC   C1B14495  11.226  16.591   6.165  0.1207  0.2298  0.1911
 1000YOPC   C2B14496  11.183  16.593   6.652  0.1228  0.1301  0.2064
 1000YOPC   D3B14497  10.959  16.999   6.786 -0.0651 -0.1664  0.4161
 1000YOPC   C4B14498  10.762  17.455   6.838  0.1739 -0.0632  0.0114
 1001YOPC   NC314499  12.252   9.181   4.855 -0.0937 -0.0823  0.1664
 1001YOPC   PO414500  12.571   9.501   4.935 -0.0759 -0.1715  0.4083
 1001YOPC   GL114501  12.302   9.554   5.229 -0.0519 -0.1925  0.0925
 1001YOPC   GL214502  12.387   9.676   5.483 -0.0088  0.1041  0.0877
 1001YOPC   C1A14503  11.851   9.653   5.326  0.0457 -0.2006  0.0276
 1001YOPC   D2A14504  11.693   9.799   5.754 -0.1570  0.2461  0.0012
 1001YOPC   C3A14505  11.931   9.749   6.147  0.0834  0.1459  0.2288
 1001YOPC   C4A14506  12.039  10.123   6.333 -0.2286  0.2752  0.0454
 1001YOPC   C1B14507  12.157   9.466   5.800  0.5595  0.0578 -0.1068
 1001YOPC   C2B14508  12.095   9.311   6.155  0.4496  0.2557 -0.1410
 1001YOPC   D3B14509  11.953   9.488   6.628  0.0161 -0.1618 -0.2387
 1001YOPC   C4B14510  12.079   9.348   7.002 -0.1166 -0.1630  0.4204
 1002YOPC   NC314511  15.833   9.605   5.709 -0.1372  0.0750 -0.3446
 1002YOPC   PO414512  15.958   9.187   5.743 -0.2528 -0.2371  0.1236
 1002YOPC   GL114513  15.646   9.168   5.922 -0.2231 -0.2873  0.0502
 1002YOPC   GL214514  15.764   9.397   6.206 -0.2466 -0.1921 -0.1065
 1002YOPC   C1A14515  15.318   9.225   6.270 -0.0817  0.1656 -0.2821
 1002YOPC   D2A14516  15.354   8.923   6.631 -0.0999  0.1729  0.0740
 1002YOPC   C3A14517  14.958   8.785   6.790 -0.4502  0.0789 -0.2446
 1002YOPC   C4A14518  14.633   9.068   6.721  0.0536  0.1717  0.2431
 1002YOPC   C1B14519  15.519   9.618   6.555 -0.1652  0.0131  0.1084
 1002YOPC   C2B14520  15.242   9.912   6.712  0.2086 -0.3394  0.1190
 1002YOPC   D3B14521  15.111  10.159   7.093  0.1763  0.1433  0.1045
 1002YOPC   C4B14522  14.934  10.665   7.245  0.1648 -0.1012  0.1892
 1003YOPC   NC314523   0.176  17.349   4.695 -0.0408  0.3547  0.2240
 1003YOPC   PO414524   0.021  17.161   4.950  0.0895  0.1852 -0.4180
 1003YOPC   GL114525  -0.027  17.108   5.339  0.3221 -0.0985  0.2448
 1003YOPC   GL214526  -0.041  16.809   5.584  0.3479 -0.1919 -0.2915
 1003YOPC   C1A14527   0.106  17.484   5.572 -0.1288  0.2200  0.0207
 1003YOPC   D2A14528   0.327  17.680   5.981 -0.1565 -0.2263 -0.3801
 1003YOPC   C3A14529   0.355  17.532   6.301  0.2222  0.0154  0.0384
 1003YOPC   C4A14530   0.350  17.846   6.709  0.2600  0.0412  0.0978
 1003YOPC   C1B14531  -0.326  17.013   5.887 -0.2531  0.0518 -0.2774
 1003YOPC   C2B14532  -0.537  17.195   6.218 -0.1139  0.3140  0.0703
 1003YOPC   D3B14533  -0.600  16.778   6.363  0.1564 -0.3096 -0.0690
 1003YOPC   C4B14534  -0.879  16.499   6.498  0.1886 -0.2222  0.1463
 1004YOPC   NC314535   1.589   6.155   5.115 -0.1409 -0.0436  0.0849
 1004YOPC   PO414536   1.566   6.632   4.997  0.0250  0.0510 -0.1393
 1004YOPC   GL114537   1.837   6.497   5.369  0.0970 -0.2805 -0.0189
 1004YOPC   GL214538   2.185   6.350   5.369 -0.1319  0.0814 -0.0826
 1004YOPC   C1A14539   1.746   6.272   5.719 -0.1317  0.0106  0.0845
 1004YOPC   D2A14540   2.060   6.094   6.116 -0.1125  0.0289 -0.0525
 1004YOPC   C3A14541   1.975   6.010   6.475 -0.1020 -0.2991  0.0881
 1004YOPC   C4A14542   1.741   6.103   6.764  0.0763  0.0235 -0.1498
 1004YOPC   C1B14543   2.229   6.457   5.804  0.0236 -0.1176 -0.1778
 1004YOPC   C2B14544   2.380   6.460   6.170 -0.1778 -0.3649 -0.2572
 1004YOPC   D3B14545   2.231   6.392   6.522  0.0528 -0.4582 -0.0445
 1004YOPC   C4B14546   2.400   6.760   6.815  0.0064  0.0624 -0.0690
 1005YOPC   NC314547  17.042   9.219   4.887  0.3516  0.3324 -0.2942
 1005YOPC   PO414548  17.262   9.639   4.918  0.0595 -0.2273 -0.0694
 1005YOPC   GL114549  17.374   9.600   5.258  0.0781 -0.0195 -0.1108
 1005YOPC   GL214550  17.722   9.574   5.414  0.0051  0.0014 -0.0189
 1005YOPC   C1A14551  17.184   9.706   5.742 -0.3375 -0.0799 -0.0834
 1005YOPC   D2A14552  17.381   9.770   6.137  0.1026  0.4401 -0.0043
 1005YOPC   C3A14553  17.525   9.448   6.386 -0.2579 -0.1116 -0.0054
 1005YOPC   C4A14554  17.543   9.569   6.769  0.3379 -0.0054 -0.0041
 1005YOPC   C1B14555  17.814   9.529   5.928 -0.1147 -0.1271 -0.2188
 1005YOPC   C2B14556  17.959   9.659   6.356  0.2657 -0.1237 -0.1568
 1005YOPC   D3B14557  18.081   9.407   6.687  0.0178 -0.1114 -0.1724
 1005YOPC   C4B14558  18.297   9.287   7.038  0.0523 -0.2027  0.1939
 1006YOPC   NC314559   2.540  17.682   4.975  0.3645  0.1199  0.3276
 1006YOPC   PO414560   2.758  17.431   4.900 -0.1500 -0.2772 -0.2493
 1006YOPC   GL114561   2.708  17.222   5.285  0.3222 -0.1227 -0.3235
 1006YOPC   GL214562   2.415  17.249   5.284 -0.2121 -0.1362 -0.0468
 1006YOPC   C1A14563   2.801  17.031   5.788  0.1990  0.1829  0.0537
 1006YOPC   D2A14564   2.741  17.366   6.166 -0.1021  0.2785  0.0061
 1006YOPC   C3A14565   2.957  17.434   6.455  0.2738 -0.0095  0.1208
 1006YOPC   C4A14566   3.244  17.409   6.794 -0.0064 -0.2045 -0.3558
 1006YOPC   C1B14567   2.371  17.191   5.704 -0.0620  0.2379 -0.3019
 1006YOPC   C2B14568   2.275  17.336   5.982 -0.1278 -0.3937  0.1453
 1006YOPC   D3B14569   2.278  17.669   6.107  0.3337 -0.1416  0.1991
 1006YOPC   C4B14570   1.995  18.135   6.045  0.3945  0.0143  0.3221
 1007YOPC   NC314571  16.552   1.284   5.494  0.1746 -0.2410 -0.0419
 1007YOPC   PO414572  16.432   0.881   5.377 -0.2329  0.0946 -0.0671
 1007YOPC   GL114573  16.683   0.796   5.691 -0.2921 -0.1266 -0.0844
 1007YOPC   GL214574  16.504   0.809   5.904 -0.0108 -0.0268 -0.5660
 1007YOPC   C1A14575  16.943   1.041   6.053  0.0648 -0.1525  0.0793
 1007YOPC   D2A14576  16.982   1.040   6.493  0.2988  0.1783  0.1366
 1007YOPC   C3A14577  16.906   1.293   6.856  0.0515 -0.0146  0.1766
 1007YOPC   C4A14578  17.214   1.382   7.173  0.1862 -0.0080  0.1073
 1007YOPC   C1B14579  16.163   0.944   6.152 -0.0991  0.3878 -0.0817
 1007YOPC   C2B14580  16.017   1.230   6.400  0.1494 -0.0536 -0.0589
 1007YOPC   D3B14581  15.893   1.089   6.846  0.0990 -0.5457  0.0143
 1007YOPC   C4B14582  15.859   1.072   7.340 -0.0430 -0.3321 -0.1304
 1008YOPC   NC314583   2.184   3.532   4.887  0.5306  0.0979 -0.1063
 1008YOPC   PO414584   1.746   3.634   4.995 -0.0131 -0.1611 -0.1002
 1008YOPC   GL114585   1.992   3.834   5.238 -0.2360  0.2189 -0.0367
 1008YOPC   GL214586   2.076   4.196   5.288  0.2220  0.0223 -0.2212
 1008YOPC   C1A14587   2.390   3.830   5.578  0.1727 -0.0563  0.3700
 1008YOPC   D2A14588   2.675   3.704   5.918  0.3202  0.0131 -0.0204
 1008YOPC   C3A14589   2.641   3.619   6.397  0.3484  0.1193 -0.2148
 1008YOPC   C4A14590   2.691   3.411   6.706  0.0195  0.2227 -0.0460
 1008YOPC   C1B14591   1.961   4.208   5.749  0.0659 -0.1104 -0.2668
 1008YOPC   C2B14592   2.172   3.911   6.019  0.2929 -0.2858  0.0465
 1008YOPC   D3B14593   2.517   4.095   6.228 -0.0040  0.4628 -0.1923
 1008YOPC   C4B14594   2.836   4.353   6.141 -0.2349 -0.4017  0.1676
 1009YOPC   NC314595   3.645  17.282   4.306  0.0454 -0.0441  0.0852
 1009YOPC   PO414596   3.725  17.575   4.608  0.0014  0.1144 -0.0977
 1009YOPC   GL114597   3.687  17.613   5.073 -0.1920  0.0746 -0.3723
 1009YOPC   GL214598   3.963  17.717   5.303  0.3074  0.2503  0.0287
 1009YOPC   C1A14599   3.436  17.508   5.444 -0.2113  0.1239  0.0211
 1009YOPC   D2A14600   3.041  17.667   5.622  0.1908 -0.0263 -0.1688
 1009YOPC   C3A14601   2.643  17.609   5.664 -0.3454 -0.1522 -0.0667
 1009YOPC   C4A14602   2.255  17.638   5.567 -0.2260  0.2395 -0.3117
 1009YOPC   C1B14603   4.065  17.899   5.724  0.3771 -0.0455  0.3250
 1009YOPC   C2B14604   3.845  18.064   6.092  0.1102 -0.1433  0.3253
 1009YOPC   D3B14605   3.753  17.887   6.438 -0.0319  0.1371 -0.0056
 1009YOPC   C4B14606   3.778  17.733   6.848 -0.1549  0.1458 -0.1106
 1010YOPC   NC314607   7.565   7.233   4.891 -0.0349  0.2427 -0.4505
 1010YOPC   PO414608   7.864   7.246   5.153 -0.1712  0.1159  0.0549
 1010YOPC   GL114609   8.012   7.219   5.558  0.1148 -0.1396  0.3191
 1010YOPC   GL214610   7.938   7.475   5.702 -0.2127  0.3092 -0.1827
 1010YOPC   C1A14611   7.927   7.012   5.918  0.1497  0.1819  0.1215
 1010YOPC   D2A14612   7.962   7.129   6.448 -0.0001 -0.0986 -0.1701
 1010YOPC   C3A14613   8.274   7.075   6.825 -0.0284 -0.0371  0.1250
 1010YOPC   C4A14614   8.660   7.311   7.017 -0.2619  0.3496  0.2119
 1010YOPC   C1B14615   7.791   7.470   6.130  0.0227 -0.2754  0.3300
 1010YOPC   C2B14616   7.477   7.269   6.389 -0.1461 -0.1023 -0.1895
 1010YOPC   D3B14617   7.511   6.864   6.362 -0.3100 -0.0768 -0.3582
 1010YOPC   C4B14618   7.444   6.380   6.234 -0.0900 -0.0519 -0.2039
 1011YOPC   NC314619   2.157   1.174   5.051  0.1942  0.2351 -0.1682
 1011YOPC   PO414620   2.474   1.234   4.915 -0.0234 -0.1368 -0.0344
 1011YOPC   GL114621   2.556   1.211   5.331  0.0171  0.0563 -0.0484
 1011YOPC   GL214622   2.912   1.346   5.368 -0.2513  0.2447  0.1673
 1011YOPC   C1A14623   2.390   1.165   5.681  0.0819 -0.1515  0.0826
 1011YOPC   D2A14624   2.749   0.887   5.873  0.0987 -0.1010  0.1650
 1011YOPC   C3A14625   2.675   0.868   6.302  0.1076 -0.0298 -0.0620
 1011YOPC   C4A14626   2.636   1.238   6.608  0.2182  0.1363  0.2390
 1011YOPC   C1B14627   3.039   1.326   5.784 -0.0225  0.4350 -0.1861
 1011YOPC   C2B14628   3.014   1.286   6.204 -0.0657  0.2384  0.0519
 1011YOPC   D3B14629   3.083   1.688   6.448  0.0627  0.0474 -0.0416
 1011YOPC   C4B14630   2.726   1.920   6.711  0.1065 -0.1921 -0.0222
 1012YOPC   NC314631   7.373   2.367   5.422 -0.2402  0.2232 -0.0752
 1012YOPC   PO414632   6.980   2.435   5.505  0.0383 -0.0317  0.1621
 1012YOPC   GL114633   6.652   2.509   5.704  0.1880 -0.1881  0.2859
 1012YOPC   GL214634   6.539   2.651   5.938 -0.3160  0.1344 -0.0385
 1012YOPC   C1A14635   6.154   2.603   5.591 -0.0196  0.0777 -0.1504
 1012YOPC   D2A14636   5.829   2.822   5.456 -0.3713 -0.1208 -0.0938
 1012YOPC   C3A14637   5.339   2.701   5.507  0.4376 -0.3911  0.2333
 1012YOPC   C4A14638   4.894   2.722   5.759  0.0513  0.0202  0.0882
 1012YOPC   C1B14639   6.330   2.525   6.353  0.1442  0.3192 -0.4598
 1012YOPC   C2B14640   6.260   2.081   6.437  0.2229  0.0931 -0.4666
 1012YOPC   D3B14641   6.140   1.891   6.813  0.0130 -0.1045 -0.2426
 1012YOPC   C4B14642   6.044   1.956   7.309  0.3479 -0.0098 -0.1423
 1013YOPC   NC314643  10.685  10.908   5.067 -0.0456 -0.1076  0.2292
 1013YOPC   PO414644  11.110  11.143   5.281  0.1714 -0.2183 -0.2104
 1013YOPC   GL114645  10.956  10.899   5.596  0.1184 -0.0274  0.2470
 1013YOPC   GL214646  10.832  10.671   5.464 -0.1945  0.0696 -0.0972
 1013YOPC   C1A14647  11.114  10.994   6.090  0.0657  0.0001  0.0902
 1013YOPC   D2A14648  11.454  11.089   6.283 -0.3281  0.1669  0.0952
 1013YOPC   C3A14649  11.503  11.059   6.622 -0.0123 -0.0161 -0.2060
 1013YOPC   C4A14650  11.511  11.161   7.050 -0.2794 -0.0512  0.3461
 1013YOPC   C1B14651  10.570  10.260   5.609 -0.1978 -0.0812 -0.0992
 1013YOPC   C2B14652  10.102  10.267   5.657  0.1139 -0.0037  0.1958
 1013YOPC   D3B14653   9.965  10.579   6.019  0.1875  0.1442  0.1004
 1013YOPC   C4B14654  10.160  10.642   6.393  0.2166 -0.1300 -0.1952
 1014YOPC   NC314655   8.723  13.499   4.797 -0.0066 -0.3857 -0.0340
 1014YOPC   PO414656   8.779  13.372   5.240 -0.1170 -0.0044 -0.1781
 1014YOPC   GL114657   8.707  13.279   5.632 -0.1328  0.1773 -0.0704
 1014YOPC   GL214658   8.958  13.145   5.836 -0.1550 -0.2688 -0.4151
 1014YOPC   C1A14659   8.493  13.480   5.858 -0.0161 -0.1061 -0.0684
 1014YOPC   D2A14660   8.546  13.821   6.223 -0.1655 -0.0560  0.1013
 1014YOPC   C3A14661   8.850  14.064   6.346  0.3851 -0.0406 -0.0142
 1014YOPC   C4A14662   9.258  14.194   6.322 -0.2525 -0.3767 -0.0838
 1014YOPC   C1B14663   8.944  12.998   6.223 -0.3166  0.1695  0.0074
 1014YOPC   C2B14664   8.746  12.834   6.537 -0.2623  0.4268 -0.0362
 1014YOPC   D3B14665   9.090  12.562   6.805  0.2025  0.0645 -0.1457
 1014YOPC   C4B14666   8.963  12.086   6.961  0.1128 -0.0447  0.0306
 1015YOPC   NC314667  17.977   1.426   5.098  0.1891  0.2416 -0.2545
 1015YOPC   PO414668  17.555   1.199   4.948  0.1053 -0.2946 -0.0913
 1015YOPC   GL114669  17.441   1.289   5.447 -0.0087 -0.0254 -0.2545
 1015YOPC   GL214670  17.191   1.450   5.656 -0.1330 -0.0111  0.1507
 1015YOPC   C1A14671  17.653   1.082   5.746  0.0333 -0.0197  0.0257
 1015YOPC   D2A14672  17.831   0.692   5.684  0.0484  0.3198 -0.0292
 1015YOPC   C3A14673  17.915   0.455   6.006 -0.0722 -0.1594  0.2054
 1015YOPC   C4A14674  17.767   0.462   6.408 -0.0239 -0.1350 -0.1838
 1015YOPC   C1B14675  17.423   1.583   6.023  0.0643 -0.0068  0.1638
 1015YOPC   C2B14676  17.643   1.919   6.160 -0.2931 -0.0177 -0.1063
 1015YOPC   D3B14677  17.720   2.324   5.912 -0.0752 -0.4475 -0.0141
 1015YOPC   C4B14678  17.620   2.471   5.502  0.1341 -0.4524 -0.1247
 1016YOPC   NC314679   2.247   0.292   4.647  0.1385  0.2185 -0.2448
 1016YOPC   PO414680   1.897   0.497   4.708 -0.0351 -0.3627  0.0297
 1016YOPC   GL114681   2.135   0.593   5.098 -0.3372  0.1681  0.0229
 1016YOPC   GL214682   2.010   0.424   5.331  0.2087  0.2457  0.1133
 1016YOPC   C1A14683   2.527   0.638   5.418  0.0267  0.0719 -0.5975
 1016YOPC   D2A14684   2.756   0.395   5.879 -0.0105 -0.0239  0.1131
 1016YOPC   C3A14685   2.561   0.286   6.296 -0.1189  0.0474 -0.2644
 1016YOPC   C4A14686   2.602  -0.072   6.620 -0.0279 -0.2630  0.0666
 1016YOPC   C1B14687   1.816   0.335   5.784  0.2803  0.1933  0.2698
 1016YOPC   C2B14688   1.515   0.365   6.107  0.1346  0.0844  0.2428
 1016YOPC   D3B14689   1.279   0.205   6.465  0.0314  0.1861  0.0906
 1016YOPC   C4B14690   1.428   0.052   6.917 -0.1938 -0.3169 -0.1175
 1017YOPC   NC314691   0.067   3.096   5.221  0.1706 -0.3776  0.3895
 1017YOPC   PO414692   0.439   2.933   5.059 -0.3345  0.0605 -0.1965
 1017YOPC   GL114693   0.442   3.086   5.539 -0.3373 -0.0879 -0.1600
 1017YOPC   GL214694   0.202   2.919   5.754 -0.0598 -0.3340 -0.2130
 1017YOPC   C1A14695   0.672   3.327   5.825  0.0426  0.1966  0.2150
 1017YOPC   D2A14696   0.777   3.559   6.155 -0.1477 -0.2609 -0.4608
 1017YOPC   C3A14697   1.169   3.548   6.268 -0.1228  0.3798  0.0548
 1017YOPC   C4A14698   1.404   3.498   6.488 -0.0782 -0.1971 -0.3735
 1017YOPC   C1B14699   0.430   2.509   5.734  0.0075 -0.0932 -0.0378
 1017YOPC   C2B14700   0.740   2.220   5.783  0.1528 -0.0999 -0.1298
 1017YOPC   D3B14701   0.671   1.710   6.030  0.2524 -0.0061 -0.2530
 1017YOPC   C4B14702   0.442   1.428   6.090  0.0308  0.3886 -0.2243
 1018YOPC   NC314703  18.347   0.032   4.795  0.1001 -0.3105 -0.1268
 1018YOPC   PO414704  18.699   0.046   5.068  0.0477  0.1133  0.0971
 1018YOPC   GL114705  18.891   0.278   5.363 -0.1974 -0.1128  0.2449
 1018YOPC   GL214706  19.077   0.195   5.500  0.1648  0.2347 -0.0133
 1018YOPC   C1A14707  18.735   0.372   5.772 -0.0065 -0.3700 -0.2164
 1018YOPC   D2A14708  18.864   0.636   6.024 -0.2358 -0.1446  0.1743
 1018YOPC   C3A14709  19.039   0.609   6.338 -0.0258  0.1908  0.0296
 1018YOPC   C4A14710  18.938   0.774   6.794  0.0495 -0.1758 -0.1041
 1018YOPC   C1B14711  19.290  -0.121   5.747  0.2131  0.0929  0.0982
 1018YOPC   C2B14712  19.242  -0.251   6.158  0.0845 -0.0785 -0.1880
 1018YOPC   D3B14713  19.060  -0.566   6.472  0.0004  0.2968  0.0914
 1018YOPC   C4B14714  18.719  -0.557   6.836 -0.0687 -0.0357 -0.0822
 1019YOPC   NC314715   3.024   4.924   4.816 -0.1653 -0.1290 -0.3599
 1019YOPC   PO414716   3.088   5.459   4.779  0.3169  0.2032 -0.3036
 1019YOPC   GL114717   3.057   5.273   5.212  0.0222  0.1238  0.5040
 1019YOPC   GL214718   3.318   5.295   5.514  0.0229  0.0839 -0.0841
 1019YOPC   C1A14719   2.970   4.955   5.539 -0.0974  0.1482  0.2084
 1019YOPC   D2A14720   3.160   4.572   5.696  0.1246  0.1685  0.3379
 1019YOPC   C3A14721   3.349   4.501   6.000 -0.2444 -0.1536 -0.1488
 1019YOPC   C4A14722   3.689   4.398   6.220 -0.0545 -0.0797 -0.3354
 1019YOPC   C1B14723   3.036   5.585   5.641  0.0415  0.2582  0.0853
 1019YOPC   C2B14724   2.945   5.552   6.092  0.2751  0.1377 -0.0194
 1019YOPC   D3B14725   3.095   5.855   6.479  0.1076 -0.0972 -0.0641
 1019YOPC   C4B14726   3.081   6.080   6.964  0.3516 -0.1828  0.0409
 1020YOPC   NC314727  13.637   2.681   4.729  0.3113 -0.2298  0.0293
 1020YOPC   PO414728  13.750   2.899   5.155 -0.0510 -0.1279  0.1150
 1020YOPC   GL114729  13.982   2.641   5.381  0.4172 -0.2846 -0.0412
 1020YOPC   GL214730  13.884   2.415   5.653  0.0418 -0.2822 -0.1793
 1020YOPC   C1A14731  14.011   2.842   5.781 -0.2004  0.0723 -0.0906
 1020YOPC   D2A14732  13.781   3.124   6.086  0.1408 -0.2166  0.1730
 1020YOPC   C3A14733  13.412   3.152   6.150  0.0900 -0.0734  0.2460
 1020YOPC   C4A14734  13.113   2.864   6.273 -0.1029  0.1213  0.1005
 1020YOPC   C1B14735  13.828   2.576   6.126 -0.0278 -0.1035 -0.2239
 1020YOPC   C2B14736  13.623   2.808   6.542  0.1899 -0.2782 -0.1303
 1020YOPC   D3B14737  13.767   2.576   6.864  0.1670  0.1422  0.3089
 1020YOPC   C4B14738  14.007   2.560   7.282 -0.0508  0.0407 -0.3182
 1021YOPC   NC314739   4.185  18.851   4.816 -0.5108  0.1921  0.2779
 1021YOPC   PO414740   4.608  18.983   4.995 -0.2254  0.0676  0.0308
 1021YOPC   GL114741   4.131  19.062   5.282 -0.0768 -0.0891 -0.0522
 1021YOPC   GL214742   3.885  19.225   5.175 -0.0570  0.2335  0.1982
 1021YOPC   C1A14743   3.883  18.789   5.528  0.2018  0.0858 -0.0016
 1021YOPC   D2A14744   3.990  18.547   5.855  0.2634  0.3302  0.0941
 1021YOPC   C3A14745   4.155  18.422   6.220 -0.2212  0.0418 -0.0951
 1021YOPC   C4A14746   4.201  18.128   6.481  0.0313  0.1123  0.3879
 1021YOPC   C1B14747   3.662  19.633   5.326 -0.1704  0.0385  0.2301
 1021YOPC   C2B14748   3.658  20.099   5.383 -0.4806 -0.1518 -0.2792
 1021YOPC   D3B14749   3.316  20.393   5.659  0.1272 -0.0035  0.1038
 1021YOPC   C4B14750   3.212  20.455   6.032 -0.0151 -0.0461  0.1268
 1022YOPC   NC314751  14.659  16.514   5.352 -0.4093 -0.0417  0.1687
 1022YOPC   PO414752  15.135  16.392   5.167  0.1613  0.0320  0.0378
 1022YOPC   GL114753  15.050  16.521   5.624  0.2465  0.0200 -0.3350
 1022YOPC   GL214754  15.064  16.872   5.678  0.0705 -0.0942  0.3413
 1022YOPC   C1A14755  15.164  16.282   5.967  0.0962 -0.1801 -0.2468
 1022YOPC   D2A14756  15.311  16.452   6.333  0.3037 -0.1269  0.0220
 1022YOPC   C3A14757  15.537  16.295   6.640 -0.1658  0.0638  0.0241
 1022YOPC   C4A14758  15.479  16.479   7.025 -0.2005 -0.0014 -0.2137
 1022YOPC   C1B14759  14.743  16.718   5.929 -0.4135  0.0544  0.0002
 1022YOPC   C2B14760  14.766  16.455   6.334  0.1846  0.2510  0.3146
 1022YOPC   D3B14761  14.626  16.538   6.609 -0.1649 -0.4070  0.1211
 1022YOPC   C4B14762  14.543  16.455   6.994 -0.1587 -0.1468 -0.2346
 1023YOPC   NC314763   3.371   3.040   4.681 -0.0729  0.1566 -0.1366
 1023YOPC   PO414764   3.256   2.599   4.706  0.1033  0.0688  0.2834
 1023YOPC   GL114765   3.123   2.717   5.042  0.1517  0.2859  0.0970
 1023YOPC   GL214766   2.998   2.437   5.164  0.0761 -0.2668  0.0882
 1023YOPC   C1A14767   2.863   2.778   5.429  0.1680  0.0499 -0.1857
 1023YOPC   D2A14768   2.950   2.912   5.714 -0.2334 -0.0831  0.2087
 1023YOPC   C3A14769   2.606   3.134   5.928  0.0102 -0.0189  0.2683
 1023YOPC   C4A14770   2.234   3.361   6.015  0.2137  0.2618 -0.0634
 1023YOPC   C1B14771   3.072   2.279   5.653  0.0720 -0.1351 -0.0873
 1023YOPC   C2B14772   3.232   2.528   5.933 -0.0626 -0.0573 -0.3867
 1023YOPC   D3B14773   3.576   2.562   6.153 -0.2723 -0.1105 -0.2703
 1023YOPC   C4B14774   3.941   2.211   6.512  0.2367 -0.1766  0.1865
 1024YOPC   NC314775  11.921   1.335   4.872  0.0780 -0.1923  0.1197
 1024YOPC   PO414776  11.506   1.165   5.151  0.0372  0.0544 -0.0925
 1024YOPC   GL114777  11.394   1.091   5.586 -0.0622 -0.2438  0.1923
 1024YOPC   GL214778  11.267   1.438   5.777 -0.2109  0.0739 -0.0665
 1024YOPC   C1A14779  11.245   0.929   5.876  0.1612  0.0009  0.2776
 1024YOPC   D2A14780  11.350   0.845   6.360  0.0735 -0.2813  0.0183
 1024YOPC   C3A14781  11.704   0.616   6.482 -0.3922 -0.3290 -0.1725
 1024YOPC   C4A14782  12.012   0.645   6.866  0.3108  0.1291  0.0524
 1024YOPC   C1B14783  11.156   1.292   6.247  0.1823  0.0033 -0.1385
 1024YOPC   C2B14784  11.281   1.487   6.504  0.1319  0.1172 -0.3326
 1024YOPC   D3B14785  11.172   1.865   6.693  0.0109 -0.3255  0.1811
 1024YOPC   C4B14786  10.891   1.917   7.134 -0.1709 -0.0185  0.2269
 1025YOPC   NC314787   3.900   6.804   5.110 -0.1804  0.4009 -0.1905
 1025YOPC   PO414788   3.501   6.685   4.972 -0.0746  0.0001  0.2857
 1025YOPC   GL114789   3.509   6.346   5.243 -0.0648 -0.1001  0.6633
 1025YOPC   GL214790   3.303   6.526   5.427 -0.3739  0.2840 -0.1265
 1025YOPC   C1A14791   3.697   6.020   5.523 -0.1570 -0.0472 -0.2335
 1025YOPC   D2A14792   3.727   5.597   5.632  0.1291  0.0704  0.1882
 1025YOPC   C3A14793   3.470   5.499   6.047 -0.1527 -0.2107  0.3532
 1025YOPC   C4A14794   3.387   5.382   6.400 -0.1094  0.2666 -0.2952
 1025YOPC   C1B14795   3.479   6.443   5.769  0.2393  0.2123  0.2220
 1025YOPC   C2B14796   3.755   6.530   6.129  0.0859 -0.0742 -0.0844
 1025YOPC   D3B14797   3.887   6.312   6.483  0.3112  0.1987  0.4212
 1025YOPC   C4B14798   4.115   6.140   6.896  0.2025  0.2463  0.1819
 1026YOPC   NC314799   7.839  19.575   4.828  0.2849 -0.0264 -0.4150
 1026YOPC   PO414800   7.816  19.269   5.102  0.2081  0.0616  0.0181
 1026YOPC   GL114801   7.659  19.199   5.495  0.0948  0.0650 -0.0221
 1026YOPC   GL214802   7.545  19.488   5.704 -0.2108 -0.0085 -0.0646
 1026YOPC   C1A14803   7.552  19.045   5.950  0.1795  0.5944  0.1194
 1026YOPC   D2A14804   7.558  19.355   6.307 -0.1898 -0.2058  0.1676
 1026YOPC   C3A14805   7.922  19.519   6.497 -0.3335 -0.0744 -0.1575
 1026YOPC   C4A14806   8.354  19.518   6.466 -0.1366 -0.2060 -0.3032
 1026YOPC   C1B14807   7.259  19.733   5.863  0.0552  0.1408  0.2815
 1026YOPC   C2B14808   7.107  19.840   6.282 -0.4038  0.2009 -0.0780
 1026YOPC   D3B14809   7.336  19.641   6.643 -0.1877  0.1582  0.1603
 1026YOPC   C4B14810   7.329  19.561   7.098 -0.1462  0.0535  0.1092
 1027YOPC   NC314811   4.255   6.152   4.501  0.1000 -0.0053  0.2506
 1027YOPC   PO414812   4.347   5.988   4.888  0.1162  0.0495 -0.0964
 1027YOPC   GL114813   4.626   5.923   5.335 -0.0826 -0.1772 -0.2627
 1027YOPC   GL214814   4.736   5.595   5.369 -0.4172  0.1469 -0.0543
 1027YOPC   C1A14815   4.616   5.797   5.822 -0.1109  0.5275  0.1413
 1027YOPC   D2A14816   4.806   5.768   6.213 -0.0611 -0.0632 -0.1245
 1027YOPC   C3A14817   4.741   5.966   6.589  0.2815  0.1075 -0.1260
 1027YOPC   C4A14818   4.843   6.173   6.822  0.1945  0.2795  0.1286
 1027YOPC   C1B14819   4.802   5.325   5.690  0.0846  0.0987  0.3139
 1027YOPC   C2B14820   4.645   5.335   6.119 -0.1707  0.1956 -0.1223
 1027YOPC   D3B14821   4.339   5.607   6.266  0.0404  0.2931  0.1352
 1027YOPC   C4B14822   4.237   5.971   6.433 -0.0281 -0.0719  0.2342
 1028YOPC   NC314823   8.056   1.970   5.216  0.0322 -0.1342  0.1461
 1028YOPC   PO414824   8.066   1.502   5.110  0.2215  0.2324 -0.1707
 1028YOPC   GL114825   8.100   1.599   5.518  0.0372  0.1537 -0.0420
 1028YOPC   GL214826   8.214   1.800   5.774  0.3837  0.0710  0.2006
 1028YOPC   C1A14827   7.750   1.627   5.884  0.1073  0.1848 -0.2701
 1028YOPC   D2A14828   7.473   1.392   6.111 -0.2229 -0.5094  0.4326
 1028YOPC   C3A14829   7.384   1.142   6.468 -0.4084 -0.0303  0.0090
 1028YOPC   C4A14830   7.128   1.152   6.894  0.0408  0.0154 -0.0560
 1028YOPC   C1B14831   8.035   2.015   6.037  0.0425  0.3398 -0.1563
 1028YOPC   C2B14832   8.237   1.766   6.296  0.0013  0.1085 -0.2528
 1028YOPC   D3B14833   8.220   1.621   6.663 -0.1791 -0.0400  0.0906
 1028YOPC   C4B14834   8.174   1.379   7.050  0.0233 -0.3941 -0.3161
 1029YOPC   NC314835   2.801   7.798   4.553 -0.2460  0.0937  0.2503
 1029YOPC   PO414836   2.911   7.974   4.941  0.0818  0.1359  0.4118
 1029YOPC   GL114837   2.640   7.873   5.242 -0.2542 -0.4105 -0.2742
 1029YOPC   GL214838   2.259   7.736   5.320 -0.3676 -0.1582 -0.3090
 1029YOPC   C1A14839   2.601   7.825   5.731 -0.1307  0.1668  0.0108
 1029YOPC   D2A14840   2.193   7.892   5.901 -0.1230  0.1715  0.1559
 1029YOPC   C3A14841   2.100   8.107   6.276 -0.0005 -0.1416 -0.1223
 1029YOPC   C4A14842   2.180   8.127   6.736  0.1335 -0.3146 -0.1019
 1029YOPC   C1B14843   2.200   7.280   5.592  0.0404 -0.2835 -0.1811
 1029YOPC   C2B14844   2.123   7.224   6.083 -0.0880  0.2517 -0.1276
 1029YOPC   D3B14845   1.994   7.613   6.293 -0.3497  0.2293 -0.2571
 1029YOPC   C4B14846   1.899   7.722   6.751 -0.0573 -0.2137  0.3734
 1030YOPC   NC314847  18.807   4.336   5.222 -0.1441  0.3031 -0.0086
 1030YOPC   PO414848  18.644   4.076   4.949 -0.0465 -0.0859  0.1589
 1030YOPC   GL114849  18.531   3.715   5.200  0.3190  0.0141 -0.0930
 1030YOPC   GL214850  18.263   3.362   5.063  0.0858 -0.1881 -0.2916
 1030YOPC   C1A14851  18.730   3.456   5.593  0.0410  0.0283 -0.4334
 1030YOPC   D2A14852  18.819   3.540   6.114 -0.0660 -0.3554 -0.2301
 1030YOPC   C3A14853  19.320   3.600   6.101 -0.0843  0.0410 -0.2164
 1030YOPC   C4A14854  19.593   3.686   6.498 -0.1302  0.1085  0.1972
 1030YOPC   C1B14855  18.116   3.433   5.498  0.0036  0.0685  0.2097
 1030YOPC   C2B14856  18.245   3.227   5.944  0.0505  0.3322 -0.0361
 1030YOPC   D3B14857  17.942   3.246   6.205 -0.3092  0.1483 -0.0780
 1030YOPC   C4B14858  17.742   3.310   6.537 -0.0036  0.1289  0.2386
 1031YOPC   NC314859   7.134  15.819   5.133  0.3753  0.0339 -0.0110
 1031YOPC   PO414860   7.348  15.386   5.274 -0.1922 -0.0680  0.3940
 1031YOPC   GL114861   7.443  15.309   5.674 -0.1414 -0.0402  0.5956
 1031YOPC   GL214862   7.565  14.998   5.857 -0.1098  0.1299  0.2410
 1031YOPC   C1A14863   7.515  15.473   6.109 -0.1830 -0.0852  0.1797
 1031YOPC   D2A14864   7.799  15.625   6.344  0.0850 -0.0280  0.1663
 1031YOPC   C3A14865   7.789  15.942   6.612  0.2618  0.0994 -0.2087
 1031YOPC   C4A14866   7.709  16.418   6.706 -0.0851 -0.2516 -0.1547
 1031YOPC   C1B14867   7.509  15.021   6.281  0.1558  0.0734 -0.2244
 1031YOPC   C2B14868   7.338  15.258   6.549  0.1595 -0.0409 -0.1054
 1031YOPC   D3B14869   7.048  15.470   6.256 -0.2618  0.1671  0.1660
 1031YOPC   C4B14870   6.994  15.523   5.820  0.0150  0.0479  0.0724
 1032YOPC   NC314871   1.820  12.103   5.327 -0.1114 -0.0889  0.0047
 1032YOPC   PO414872   1.782  12.523   5.094 -0.4059  0.1502  0.0539
 1032YOPC   GL114873   2.037  12.547   5.462 -0.1503 -0.1724  0.1276
 1032YOPC   GL214874   2.311  12.463   5.460 -0.2174 -0.0020  0.1486
 1032YOPC   C1A14875   1.885  12.386   5.878 -0.0374 -0.3921 -0.1427
 1032YOPC   D2A14876   1.535  12.234   6.057  0.1550 -0.2492 -0.0470
 1032YOPC   C3A14877   1.448  11.948   6.490  0.2793 -0.0079 -0.0552
 1032YOPC   C4A14878   1.352  11.626   6.857  0.2535  0.0865 -0.2016
 1032YOPC   C1B14879   2.448  12.451   5.862  0.2884  0.0623  0.3844
 1032YOPC   C2B14880   2.577  12.301   6.384  0.2263 -0.0786  0.0869
 1032YOPC   D3B14881   2.434  11.873   6.530 -0.2688  0.1517 -0.0764
 1032YOPC   C4B14882   2.569  11.515   6.608  0.0491 -0.1295  0.0180
 1033YOPC   NC314883   9.884   5.976   4.853  0.0172 -0.2187 -0.2691
 1033YOPC   PO414884   9.724   5.596   4.593 -0.1748  0.1272  0.2357
 1033YOPC   GL114885   9.555   5.638   5.004  0.0465  0.0271  0.2548
 1033YOPC   GL214886   9.313   5.388   5.069  0.2518 -0.1952 -0.0679
 1033YOPC   C1A14887   9.627   5.625   5.460 -0.1376 -0.2916  0.0634
 1033YOPC   D2A14888   9.847   5.415   5.895  0.2383 -0.0348  0.2188
 1033YOPC   C3A14889   9.728   5.248   6.274  0.1198 -0.0870 -0.1628
 1033YOPC   C4A14890   9.737   5.338   6.765  0.2417 -0.1250  0.0621
 1033YOPC   C1B14891   9.013   5.422   5.430  0.0700  0.0529 -0.0243
 1033YOPC   C2B14892   8.772   5.654   5.736  0.0838 -0.1579  0.1743
 1033YOPC   D3B14893   8.856   5.766   6.162 -0.0593  0.2081 -0.2640
 1033YOPC   C4B14894   8.823   5.719   6.643  0.0083  0.0263  0.1643
 1034YOPC   NC314895  16.472   6.889   5.013 -0.0736 -0.4159  0.0502
 1034YOPC   PO414896  16.620   7.360   5.041  0.0031  0.0451  0.1904
 1034YOPC   GL114897  16.770   7.279   5.420 -0.1560 -0.0147 -0.1696
 1034YOPC   GL214898  17.017   7.216   5.551  0.0476  0.2542 -0.4697
 1034YOPC   C1A14899  16.599   7.234   5.848 -0.1184  0.0974 -0.2024
 1034YOPC   D2A14900  16.278   7.216   6.122 -0.0109  0.0419 -0.0725
 1034YOPC   C3A14901  16.194   7.449   6.394 -0.1110 -0.0368  0.0244
 1034YOPC   C4A14902  16.320   7.463   6.963  0.1487  0.0512  0.1131
 1034YOPC   C1B14903  17.060   7.063   6.092  0.1161  0.1020 -0.1060
 1034YOPC   C2B14904  17.000   6.808   6.459  0.0401  0.3285  0.0461
 1034YOPC   D3B14905  16.783   7.082   6.777  0.2004 -0.2824 -0.0676
 1034YOPC   C4B14906  16.824   7.463   6.867  0.0424 -0.0439  0.1226
 1035YOPC   NC314907   0.488  14.566   5.195 -0.1059  0.0775  0.1955
 1035YOPC   PO414908   0.921  14.780   5.070  0.1076  0.1165 -0.0966
 1035YOPC   GL114909   0.861  14.825   5.545  0.0035 -0.1054  0.0295
 1035YOPC   GL214910   1.034  15.117   5.780  0.2369  0.0999  0.0920
 1035YOPC   C1A14911   0.693  14.782   5.940 -0.2533  0.0884 -0.0095
 1035YOPC   D2A14912   0.882  14.956   6.260 -0.1031 -0.2304 -0.0076
 1035YOPC   C3A14913   1.301  15.160   6.316  0.1319  0.0308  0.0858
 1035YOPC   C4A14914   1.598  15.492   5.999  0.0576  0.0845 -0.0245
 1035YOPC   C1B14915   1.185  14.682   5.975 -0.1043  0.1855 -0.1852
 1035YOPC   C2B14916   1.217  14.328   5.877  0.3319  0.0830 -0.2250
 1035YOPC   D3B14917   1.346  13.943   6.055  0.0597 -0.0113  0.3187
 1035YOPC   C4B14918   1.424  13.862   6.531 -0.0882  0.0312  0.2278
 1036YOPC   NC314919  13.909  16.690   5.346  0.0548  0.3265 -0.0817
 1036YOPC   PO414920  14.173  16.984   5.312  0.2384 -0.2277 -0.0444
 1036YOPC   GL114921  14.049  17.237   5.690  0.0985 -0.0705 -0.0388
 1036YOPC   GL214922  14.360  17.345   5.758 -0.0387 -0.2467 -0.1052
 1036YOPC   C1A14923  14.076  17.748   5.842  0.1319 -0.1515 -0.0795
 1036YOPC   D2A14924  14.013  17.990   6.181  0.2368 -0.0404 -0.1827
 1036YOPC   C3A14925  14.076  17.822   6.618 -0.3035  0.0057  0.1030
 1036YOPC   C4A14926  13.928  17.626   6.939  0.4180 -0.0454  0.3822
 1036YOPC   C1B14927  14.553  17.172   6.028  0.2179 -0.3169 -0.3401
 1036YOPC   C2B14928  14.727  16.980   6.397  0.4825  0.1421  0.1829
 1036YOPC   D3B14929  15.035  16.904   6.341  0.1453  0.2109  0.1850
 1036YOPC   C4B14930  15.398  16.971   6.115 -0.0100  0.2116  0.0961
 1037YOPC   NC314931  18.615   4.647   4.742 -0.1684  0.0015 -0.2552
 1037YOPC   PO414932  18.309   4.965   4.932 -0.0179 -0.0622 -0.0341
 1037YOPC   GL114933  18.122   4.690   5.305 -0.4226  0.2949  0.1422
 1037YOPC   GL214934  17.875   4.519   5.314 -0.1001 -0.1041  0.0281
 1037YOPC   C1A14935  18.062   4.548   5.817 -0.1608 -0.2892 -0.0548
 1037YOPC   D2A14936  18.006   4.407   6.183 -0.1928 -0.0672 -0.0630
 1037YOPC   C3A14937  18.332   4.204   6.384 -0.0932  0.0384 -0.0787
 1037YOPC   C4A14938  18.406   4.056   6.742 -0.0776  0.3491 -0.1016
 1037YOPC   C1B14939  17.522   4.495   5.694 -0.0186  0.1640 -0.0981
 1037YOPC   C2B14940  17.625   4.813   6.045 -0.0961  0.0723 -0.0855
 1037YOPC   D3B14941  17.770   4.732   6.525 -0.3761 -0.1260  0.2302
 1037YOPC   C4B14942  18.131   4.920   6.711  0.0043  0.2006 -0.1990
 1038YOPC   NC314943  15.356   3.265   4.611  0.0367  0.2401  0.2082
 1038YOPC   PO414944  15.408   3.142   5.086  0.4256 -0.2419 -0.1718
 1038YOPC   GL114945  15.354   3.083   5.474 -0.2038  0.0878 -0.0741
 1038YOPC   GL214946  15.293   2.745   5.560 -0.1774  0.4025 -0.2480
 1038YOPC   C1A14947  15.411   3.378   5.809  0.3179  0.0192  0.2576
 1038YOPC   D2A14948  15.157   3.626   6.002 -0.1236  0.1275 -0.2437
 1038YOPC   C3A14949  15.092   4.044   6.278 -0.0497 -0.0146  0.1580
 1038YOPC   C4A14950  14.997   4.398   6.168 -0.0258  0.2434 -0.1754
 1038YOPC   C1B14951  15.079   2.996   5.920  0.2463 -0.0198 -0.2657
 1038YOPC   C2B14952  14.873   2.828   6.375  0.1883 -0.0271  0.1165
 1038YOPC   D3B14953  14.858   3.074   6.804 -0.0687  0.5535 -0.4518
 1038YOPC   C4B14954  14.634   3.013   7.100  0.0384 -0.0409  0.0252
 1039YOPC   NC314955   1.560   9.357   4.686  0.0501  0.1230 -0.2126
 1039YOPC   PO414956   1.970   9.452   4.829  0.0803 -0.0223 -0.2000
 1039YOPC   GL114957   2.222   9.163   5.189  0.0941 -0.0912 -0.1298
 1039YOPC   GL214958   2.109   9.257   5.420 -0.0546  0.0771  0.1661
 1039YOPC   C1A14959   2.252   8.768   5.556  0.1539 -0.1120 -0.2646
 1039YOPC   D2A14960   2.449   8.540   5.915  0.1611  0.0189  0.3425
 1039YOPC   C3A14961   2.764   8.206   5.972  0.1998  0.2284  0.1827
 1039YOPC   C4A14962   2.916   7.775   6.071  0.0944  0.2231  0.2543
 1039YOPC   C1B14963   2.226   9.219   5.876  0.3001 -0.1252  0.4992
 1039YOPC   C2B14964   2.495   9.215   6.338 -0.1945  0.0719  0.0848
 1039YOPC   D3B14965   2.304   9.078   6.764 -0.3609 -0.1666 -0.3444
 1039YOPC   C4B14966   2.166   9.073   7.230  0.0519 -0.1293 -0.3051
 1040YOPC   NC314967   8.029   5.294   4.998 -0.0974 -0.0238  0.1280
 1040YOPC   PO414968   7.770   5.139   5.219  0.1762  0.1188 -0.2430
 1040YOPC   GL114969   7.828   4.868   5.529 -0.2399 -0.2751 -0.0902
 1040YOPC   GL214970   7.866   4.566   5.449 -0.0532  0.1696  0.3761
 1040YOPC   C1A14971   8.036   4.897   5.947 -0.2747 -0.0032  0.0740
 1040YOPC   D2A14972   8.373   4.878   6.290  0.0368  0.2352 -0.1432
 1040YOPC   C3A14973   8.416   4.454   6.302 -0.0830 -0.0987  0.0078
 1040YOPC   C4A14974   8.631   4.303   6.653  0.1444 -0.2431  0.0444
 1040YOPC   C1B14975   7.983   4.367   5.751 -0.0403  0.0640  0.2869
 1040YOPC   C2B14976   8.250   4.137   5.978  0.1054 -0.0096  0.2561
 1040YOPC   D3B14977   8.460   3.914   5.699  0.1756 -0.2184  0.1055
 1040YOPC   C4B14978   8.831   3.826   5.536 -0.1002 -0.1948  0.3521
 1041YOPC   NC314979   0.556   9.853   4.769  0.1782  0.1496 -0.0738
 1041YOPC   PO414980   0.544  10.151   5.074  0.1574  0.2770  0.0884
 1041YOPC   GL114981   0.560  10.336   5.377 -0.0328  0.1834 -0.3009
 1041YOPC   GL214982   0.362  10.152   5.571  0.4135 -0.1554  0.3318
 1041YOPC   C1A14983   0.838  10.217   5.718 -0.0545  0.1371 -0.1003
 1041YOPC   D2A14984   1.011  10.021   6.060  0.4163 -0.1459 -0.3550
 1041YOPC   C3A14985   0.749  10.302   6.391  0.0535  0.0094  0.3449
 1041YOPC   C4A14986   0.643  10.393   6.807 -0.1377  0.0731 -0.3596
 1041YOPC   C1B14987   0.516  10.106   6.003  0.1850  0.3014 -0.0568
 1041YOPC   C2B14988   0.615   9.742   6.345  0.0334 -0.0756  0.0469
 1041YOPC   D3B14989   1.016   9.723   6.466 -0.1036  0.1624 -0.2414
 1041YOPC   C4B14990   1.348   9.480   6.485  0.3491 -0.0090 -0.1412
 1042YOPC   NC314991   7.611  11.887   5.354  0.3494 -0.1634 -0.2929
 1042YOPC   PO414992   7.122  11.968   5.182 -0.2930 -0.1273  0.1898
 1042YOPC   GL114993   7.078  11.978   5.616 -0.0156  0.0244 -0.4657
 1042YOPC   GL214994   7.337  12.078   5.709  0.0637  0.1157  0.1321
 1042YOPC   C1A14995   6.994  11.769   6.056 -0.0761 -0.0860  0.1737
 1042YOPC   D2A14996   6.992  11.671   6.475 -0.3524  0.1843  0.0098
 1042YOPC   C3A14997   6.559  11.766   6.532  0.3139 -0.2340 -0.0876
 1042YOPC   C4A14998   6.479  11.910   6.110 -0.0903  0.0350  0.1041
 1042YOPC   C1B14999   7.673  12.285   6.036  0.1028  0.0862 -0.2084
 1042YOPC   C2B15000   7.977  12.331   6.434  0.3375  0.4344 -0.0058
 1042YOPC   D3B15001   8.191  12.830   6.377 -0.2724  0.0789 -0.0926
 1042YOPC   C4B15002   8.395  13.222   6.309  0.1167  0.1123 -0.3610
 1043YOPC   NC315003   5.271  14.655   5.089  0.0363  0.0013 -0.0268
 1043YOPC   PO415004   5.029  14.929   5.508  0.0792 -0.0195 -0.0661
 1043YOPC   GL115005   4.973  15.026   5.888  0.2865  0.0631 -0.2173
 1043YOPC   GL215006   4.817  15.290   5.834 -0.1993  0.0223 -0.1073
 1043YOPC   C1A15007   5.241  14.975   6.305  0.3301 -0.0555 -0.2250
 1043YOPC   D2A15008   5.160  15.128   6.762 -0.0135  0.0667  0.2299
 1043YOPC   C3A15009   4.761  15.047   6.857  0.3074 -0.1494  0.2328
 1043YOPC   C4A15010   4.510  14.720   7.139 -0.2904  0.0783 -0.1941
 1043YOPC   C1B15011   4.572  15.178   6.196 -0.0240  0.0054  0.0400
 1043YOPC   C2B15012   4.310  15.298   6.376  0.1018 -0.0869 -0.2089
 1043YOPC   D3B15013   4.210  15.550   6.720  0.0103 -0.0554  0.0672
 1043YOPC   C4B15014   4.369  15.949   6.662  0.1113 -0.1482  0.2159
 1044YOPC   NC315015  15.844  17.443   5.129  0.1270  0.0206 -0.0481
 1044YOPC   PO415016  15.347  17.384   5.176 -0.1885 -0.0949 -0.3526
 1044YOPC   GL115017  14.938  17.326   5.470  0.1858  0.3284  0.1848
 1044YOPC   GL215018  14.745  17.667   5.438  0.1055 -0.0087 -0.3086
 1044YOPC   C1A15019  15.013  17.243   5.926  0.5570  0.2418  0.0681
 1044YOPC   D2A15020  15.179  17.374   6.383  0.0139 -0.0644  0.1194
 1044YOPC   C3A15021  14.767  17.420   6.670  0.0949  0.0537 -0.1119
 1044YOPC   C4A15022  14.314  17.420   6.685 -0.1062  0.1621 -0.1246
 1044YOPC   C1B15023  14.586  17.794   5.852  0.0481 -0.0821  0.0514
 1044YOPC   C2B15024  14.423  17.585   6.238 -0.0987  0.1378  0.0914
 1044YOPC   D3B15025  14.060  17.286   6.165  0.3619 -0.2618  0.0377
 1044YOPC   C4B15026  14.262  16.794   6.238 -0.0037  0.2434 -0.0182
 1045YOPC   NC315027  15.957  13.428   5.637 -0.0372  0.1141 -0.4228
 1045YOPC   PO415028  15.956  12.961   5.593 -0.1564 -0.1156  0.0933
 1045YOPC   GL115029  15.683  12.954   5.917  0.1672 -0.1684 -0.2718
 1045YOPC   GL215030  15.329  12.915   5.856 -0.1533  0.1160 -0.0515
 1045YOPC   C1A15031  15.789  12.918   6.407  0.3130  0.0196  0.0291
 1045YOPC   D2A15032  15.967  13.022   6.845 -0.3143 -0.3094 -0.0023
 1045YOPC   C3A15033  16.100  12.609   7.050 -0.0893  0.2680 -0.0568
 1045YOPC   C4A15034  15.859  12.227   6.853 -0.0922  0.1146 -0.0487
 1045YOPC   C1B15035  15.270  13.074   6.245 -0.1027 -0.2473 -0.1994
 1045YOPC   C2B15036  15.309  13.190   6.629 -0.1335  0.1492  0.0575
 1045YOPC   D3B15037  15.645  13.382   6.756  0.1671  0.0696  0.2818
 1045YOPC   C4B15038  16.065  13.511   7.001  0.1118 -0.1920  0.2109
 1046YOPC   NC315039   6.350  13.066   5.290 -0.2131  0.0791  0.2287
 1046YOPC   PO415040   6.564  13.365   5.479 -0.0757  0.0358  0.0350
 1046YOPC   GL115041   6.250  13.197   5.813 -0.0276 -0.0503 -0.1018
 1046YOPC   GL215042   6.438  12.917   5.869  0.1814  0.0614  0.0173
 1046YOPC   C1A15043   5.911  12.974   6.133  0.0907 -0.3764 -0.0868
 1046YOPC   D2A15044   5.715  13.153   6.480  0.0047  0.3577  0.4547
 1046YOPC   C3A15045   5.697  13.560   6.802 -0.0042  0.0280 -0.0681
 1046YOPC   C4A15046   5.364  13.810   7.095 -0.2097  0.3660 -0.1925
 1046YOPC   C1B15047   6.601  12.718   6.298  0.3657 -0.1964  0.2625
 1046YOPC   C2B15048   6.737  12.670   6.664 -0.3348 -0.2865  0.2242
 1046YOPC   D3B15049   6.509  12.426   6.902  0.5230 -0.2949  0.0638
 1046YOPC   C4B15050   6.540  11.933   7.062  0.1045 -0.1244  0.1119
 1047YOPC   NC315051   9.226   9.955   5.151 -0.0862  0.0434 -0.4312
 1047YOPC   PO415052   8.848   9.756   4.932  0.5078 -0.0737 -0.1092
 1047YOPC   GL115053   8.717   9.530   5.303  0.3252  0.1013 -0.0729
 1047YOPC   GL215054   8.863   9.237   5.400 -0.3584 -0.1305  0.0981
 1047YOPC   C1A15055   8.581   9.786   5.596  0.0365 -0.0296 -0.1761
 1047YOPC   D2A15056   8.352   9.836   6.010 -0.2231 -0.4616  0.4391
 1047YOPC   C3A15057   8.354   9.433   6.358  0.0076  0.0878  0.0498
 1047YOPC   C4A15058   8.222   9.216   6.583 -0.0313 -0.2291  0.2170
 1047YOPC   C1B15059   9.084   9.528   5.590  0.2421 -0.0389 -0.0478
 1047YOPC   C2B15060   9.032   9.873   5.768 -0.2096  0.0004 -0.0855
 1047YOPC   D3B15061   8.798   9.666   6.090 -0.3141 -0.3989 -0.1316
 1047YOPC   C4B15062   8.781   9.443   6.540 -0.0803  0.1814  0.0920
 1048YOPC   NC315063  17.536   2.973   4.744  0.0844 -0.2651  0.3284
 1048YOPC   PO415064  17.889   2.955   4.841 -0.1256 -0.0064 -0.2678
 1048YOPC   GL115065  17.779   3.141   5.227 -0.0958  0.2439  0.0053
 1048YOPC   GL215066  17.453   2.978   5.266 -0.0210  0.2421  0.1483
 1048YOPC   C1A15067  17.899   2.942   5.727  0.1867 -0.2254 -0.4240
 1048YOPC   D2A15068  17.984   2.746   6.090  0.1213  0.0588 -0.0796
 1048YOPC   C3A15069  17.919   2.766   6.541 -0.0227  0.0588 -0.2101
 1048YOPC   C4A15070  18.091   3.165   6.853 -0.1547 -0.0666 -0.0285
 1048YOPC   C1B15071  17.429   2.860   5.722 -0.1655 -0.2051  0.0846
 1048YOPC   C2B15072  17.522   2.925   6.114  0.0363  0.0193 -0.0893
 1048YOPC   D3B15073  17.497   2.605   6.279  0.1590 -0.2340  0.0334
 1048YOPC   C4B15074  17.574   2.382   6.604  0.3966 -0.0379 -0.4733
 1049YOPC   NC315075   1.107  19.075   4.868 -0.0472 -0.1852 -0.1701
 1049YOPC   PO415076   1.290  19.166   5.255 -0.1307 -0.1272 -0.2606
 1049YOPC   GL115077   1.068  19.105   5.659 -0.4223  0.1624 -0.0340
 1049YOPC   GL215078   1.054  18.769   5.779  0.0194  0.1824  0.1122
 1049YOPC   C1A15079   0.762  19.141   5.949 -0.0413  0.1683 -0.0639
 1049YOPC   D2A15080   0.467  19.249   6.342 -0.1516 -0.2035  0.1966
 1049YOPC   C3A15081   0.456  19.602   6.648 -0.2899 -0.2118  0.1110
 1049YOPC   C4A15082   0.677  19.952   6.512 -0.1201 -0.1633 -0.1609
 1049YOPC   C1B15083   0.961  18.503   6.122  0.1582  0.1042  0.1911
 1049YOPC   C2B15084   1.186  18.332   6.525  0.1739  0.0443  0.3304
 1049YOPC   D3B15085   1.076  18.077   6.828  0.1926  0.0257 -0.1163
 1049YOPC   C4B15086   0.766  18.001   7.152 -0.2135 -0.1223 -0.1664
 1050YOPC   NC315087  19.352  14.700   5.426 -0.2085 -0.0879  0.0122
 1050YOPC   PO415088  18.958  15.002   5.373 -0.0696  0.3236 -0.1892
 1050YOPC   GL115089  18.830  14.840   5.671  0.0539  0.0967  0.3801
 1050YOPC   GL215090  18.678  14.585   5.635  0.1966 -0.1327 -0.0118
 1050YOPC   C1A15091  19.013  14.780   6.023 -0.0284 -0.1024 -0.2045
 1050YOPC   D2A15092  19.247  14.722   6.348 -0.2666  0.0390  0.0952
 1050YOPC   C3A15093  19.482  14.326   6.370 -0.1967 -0.0111 -0.2191
 1050YOPC   C4A15094  19.844  14.108   6.381 -0.2127 -0.0281  0.2055
 1050YOPC   C1B15095  18.513  14.720   5.960 -0.0286 -0.0340  0.1229
 1050YOPC   C2B15096  18.224  14.829   6.400 -0.2139 -0.0924  0.2041
 1050YOPC   D3B15097  18.407  14.574   6.708 -0.0451 -0.1466 -0.3287
 1050YOPC   C4B15098  18.577  14.220   6.901 -0.1433  0.4078  0.0028
 1051YOPC   NC315099   6.249   9.144   4.519  0.0494  0.0536  0.0693
 1051YOPC   PO415100   5.919   9.263   4.761  0.1714  0.0531  0.2815
 1051YOPC   GL115101   5.904   9.421   5.122 -0.1698  0.1206 -0.2151
 1051YOPC   GL215102   5.637   9.371   5.260  0.2900 -0.3704  0.0203
 1051YOPC   C1A15103   6.140   9.325   5.501  0.1731 -0.0748  0.0439
 1051YOPC   D2A15104   6.345   9.069   5.707  0.2810 -0.2864 -0.0352
 1051YOPC   C3A15105   6.475   9.248   6.147  0.1151  0.1670  0.0678
 1051YOPC   C4A15106   6.603   9.370   6.457 -0.0708 -0.0382  0.2311
 1051YOPC   C1B15107   5.659   9.829   5.305 -0.1007 -0.4704 -0.1961
 1051YOPC   C2B15108   5.834   9.969   5.767  0.2829  0.3576 -0.1004
 1051YOPC   D3B15109   5.669   9.759   6.065 -0.1298  0.0180  0.2475
 1051YOPC   C4B15110   5.588   9.513   6.347  0.0229  0.5385 -0.3373
 1052YOPC   NC315111   1.524  13.915   5.106  0.0201 -0.1586  0.3178
 1052YOPC   PO415112   1.402  13.422   4.975 -0.2688  0.1905 -0.0175
 1052YOPC   GL115113   1.524  13.357   5.395  0.0011  0.2770  0.0842
 1052YOPC   GL215114   1.372  13.444   5.756 -0.1852  0.0459  0.2559
 1052YOPC   C1A15115   1.889  13.386   5.663  0.1292  0.0872  0.1564
 1052YOPC   D2A15116   2.128  13.216   5.988  0.2112 -0.1464 -0.1308
 1052YOPC   C3A15117   2.077  12.807   6.069  0.2870  0.0355  0.1107
 1052YOPC   C4A15118   2.185  12.676   6.338 -0.0249  0.2022 -0.2198
 1052YOPC   C1B15119   1.552  13.479   6.118  0.0505 -0.1091 -0.1858
 1052YOPC   C2B15120   1.479  13.380   6.539  0.0110 -0.4588  0.1766
 1052YOPC   D3B15121   1.401  13.047   6.798 -0.2463 -0.1014  0.2203
 1052YOPC   C4B15122   1.400  12.654   6.777  0.1839 -0.2275  0.2007
 1053YOPC   NC315123  16.491  14.033   5.596 -0.3114  0.0207  0.1764
 1053YOPC   PO415124  16.345  13.650   5.375 -0.0008  0.0968 -0.1775
 1053YOPC   GL115125  16.436  13.647   5.849 -0.0997  0.2995  0.3263
 1053YOPC   GL215126  16.277  13.531   6.081 -0.3658 -0.2025  0.3310
 1053YOPC   C1A15127  16.779  13.833   6.183 -0.1073  0.0805 -0.0909
 1053YOPC   D2A15128  16.795  13.869   6.667  0.1298  0.0878 -0.2509
 1053YOPC   C3A15129  16.762  14.319   6.849  0.2418  0.1196 -0.4640
 1053YOPC   C4A15130  17.030  14.504   7.269 -0.1565 -0.0261  0.0489
 1053YOPC   C1B15131  16.103  13.986   6.059  0.4604 -0.3976 -0.1684
 1053YOPC   C2B15132  16.095  14.406   6.013  0.1977 -0.1557 -0.1646
 1053YOPC   D3B15133  15.822  14.668   6.293  0.1617 -0.1882  0.1399
 1053YOPC   C4B15134  15.549  14.628   6.599 -0.1836 -0.0092 -0.0450
 1054YOPC   NC315135  17.826   7.338   4.680  0.1605  0.3626 -0.2612
 1054YOPC   PO415136  17.471   7.561   4.920  0.0982  0.4746  0.3087
 1054YOPC   GL115137  17.219   7.651   5.290 -0.1727  0.2816 -0.2991
 1054YOPC   GL215138  17.281   7.961   5.500  0.3292  0.0756  0.3181
 1054YOPC   C1A15139  16.889   7.710   5.666 -0.1256 -0.4946 -0.0761
 1054YOPC   D2A15140  16.768   7.730   6.097  0.0597 -0.0129 -0.3214
 1054YOPC   C3A15141  16.387   8.048   6.270  0.0508  0.0081  0.1688
 1054YOPC   C4A15142  15.961   7.938   6.397  0.0326  0.3631  0.1290
 1054YOPC   C1B15143  17.241   8.085   5.856 -0.2690  0.2225  0.3762
 1054YOPC   C2B15144  17.063   8.227   6.213 -0.3099 -0.1110 -0.0748
 1054YOPC   D3B15145  16.949   7.950   6.499 -0.0568 -0.0397 -0.2800
 1054YOPC   C4B15146  16.574   7.772   6.617 -0.2272 -0.1407 -0.0727
 1055YOPC   NC315147   8.391  10.015   4.830 -0.0151  0.0387  0.1974
 1055YOPC   PO415148   8.100   9.704   5.173 -0.0185  0.0749 -0.1691
 1055YOPC   GL115149   8.033   9.760   5.644  0.1965 -0.3043 -0.0167
 1055YOPC   GL215150   8.051  10.114   5.739  0.0363 -0.0615  0.3186
 1055YOPC   C1A15151   7.954   9.649   6.072  0.1220  0.5451  0.1998
 1055YOPC   D2A15152   7.982   9.716   6.561 -0.1832  0.0254  0.0433
 1055YOPC   C3A15153   7.795   9.857   6.966 -0.0712 -0.0257  0.3104
 1055YOPC   C4A15154   7.591   9.926   7.274  0.2208  0.1178 -0.2077
 1055YOPC   C1B15155   8.200  10.263   6.255  0.0043 -0.4245  0.2758
 1055YOPC   C2B15156   8.103  10.212   6.664  0.1530 -0.2612 -0.0537
 1055YOPC   D3B15157   8.081  10.219   7.100 -0.1649 -0.2319  0.0703
 1055YOPC   C4B15158   8.026  10.018   7.520  0.1020 -0.1085 -0.1413
 1056YOPC   NC315159   1.053  18.680   5.264 -0.3437 -0.2917 -0.3842
 1056YOPC   PO415160   1.445  18.751   5.003 -0.2144 -0.0602 -0.1412
 1056YOPC   GL115161   1.585  18.822   5.419 -0.0615 -0.1770 -0.1649
 1056YOPC   GL215162   1.482  18.429   5.522 -0.0971 -0.0361 -0.0407
 1056YOPC   C1A15163   1.510  18.923   5.896  0.3385 -0.0418 -0.1614
 1056YOPC   D2A15164   1.259  19.104   6.106  0.1604  0.0467 -0.2535
 1056YOPC   C3A15165   1.350  18.918   6.517 -0.0379  0.0425 -0.3070
 1056YOPC   C4A15166   1.375  18.797   6.980  0.1322  0.0740 -0.3908
 1056YOPC   C1B15167   1.473  18.400   6.008 -0.1338 -0.1424 -0.0163
 1056YOPC   C2B15168   1.809  18.565   6.321 -0.0165  0.0030 -0.1934
 1056YOPC   D3B15169   1.819  18.537   6.716 -0.0788  0.2928 -0.1181
 1056YOPC   C4B15170   1.559  18.329   6.935  0.0817 -0.2591  0.1044
 1057YOPC   NC315171   4.528  17.019   4.850 -0.0719  0.1718  0.0705
 1057YOPC   PO415172   4.402  17.120   5.230  0.0777  0.1497  0.0981
 1057YOPC   GL115173   4.476  17.050   5.605  0.2602  0.0001 -0.0327
 1057YOPC   GL215174   4.182  17.221   5.738  0.0492 -0.0029  0.1101
 1057YOPC   C1A15175   4.402  16.888   6.008 -0.0831  0.1793  0.0669
 1057YOPC   D2A15176   4.436  16.647   6.303 -0.1858 -0.0529  0.1370
 1057YOPC   C3A15177   4.479  16.469   6.666  0.1753  0.0906 -0.2300
 1057YOPC   C4A15178   4.488  16.728   7.010  0.1345  0.0129  0.0769
 1057YOPC   C1B15179   3.936  17.089   6.131  0.3284 -0.0425  0.0538
 1057YOPC   C2B15180   3.606  16.695   6.016  0.3192 -0.2828 -0.0751
 1057YOPC   D3B15181   3.320  16.552   6.405 -0.1386  0.1573  0.3366
 1057YOPC   C4B15182   2.991  16.264   6.456  0.4526  0.1285 -0.1465
 1058YOPC   NC315183  16.073  10.656   5.180 -0.4584 -0.1539 -0.1355
 1058YOPC   PO415184  15.691  10.938   5.223  0.0337  0.0012 -0.0237
 1058YOPC   GL115185  15.942  11.033   5.623  0.2627 -0.0099 -0.0850
 1058YOPC   GL215186  15.901  11.402   5.725 -0.1405  0.1410  0.1022
 1058YOPC   C1A15187  16.100  11.077   5.998 -0.4911 -0.2675  0.1188
 1058YOPC   D2A15188  16.433  10.855   6.299 -0.0534  0.1976 -0.0157
 1058YOPC   C3A15189  16.592  10.980   6.637  0.2630  0.1980  0.3501
 1058YOPC   C4A15190  16.816  10.888   7.014 -0.0910  0.0068  0.0294
 1058YOPC   C1B15191  15.871  11.595   6.226 -0.3185 -0.4353  0.0078
 1058YOPC   C2B15192  16.068  11.242   6.476 -0.1018 -0.0520  0.1990
 1058YOPC   D3B15193  15.963  10.872   6.480  0.1297 -0.1130 -0.0624
 1058YOPC   C4B15194  16.046  10.460   6.341  0.0987  0.1592  0.2779
 1059YOPC   NC315195  12.153  17.573   5.298 -0.3332  0.3560  0.2465
 1059YOPC   PO415196  11.871  17.590   5.702  0.2872  0.1026  0.0738
 1059YOPC   GL115197  11.970  17.799   6.020 -0.2898 -0.3602  0.0874
 1059YOPC   GL215198  12.337  17.666   5.963 -0.0097 -0.0695 -0.0720
 1059YOPC   C1A15199  12.235  17.849   6.340  0.1642  0.1051  0.0131
 1059YOPC   D2A15200  12.694  17.690   6.497  0.1182  0.1263 -0.0958
 1059YOPC   C3A15201  12.783  17.418   6.906 -0.1523 -0.1063 -0.2817
 1059YOPC   C4A15202  12.649  17.119   7.277  0.2457 -0.2916  0.0895
 1059YOPC   C1B15203  12.420  17.350   6.109 -0.0964  0.1390  0.0585
 1059YOPC   C2B15204  12.331  17.008   6.402  0.3868  0.4614  0.0607
 1059YOPC   D3B15205  12.714  16.943   6.751 -0.3231  0.0944 -0.2172
 1059YOPC   C4B15206  12.651  16.658   7.118  0.0347  0.3681 -0.2582
 1060YOPC   NC315207   6.680  18.134   4.987 -0.3388 -0.4513  0.1936
 1060YOPC   PO415208   6.770  17.746   5.106  0.1264  0.0271  0.0225
 1060YOPC   GL115209   6.614  17.596   5.491  0.0659 -0.0109 -0.2068
 1060YOPC   GL215210   6.302  17.598   5.377  0.1472 -0.3469  0.1379
 1060YOPC   C1A15211   6.401  17.301   5.775  0.0541 -0.0210  0.0802
 1060YOPC   D2A15212   6.092  17.305   6.172 -0.5949  0.1883  0.2191
 1060YOPC   C3A15213   6.285  17.672   6.425 -0.0554  0.0260  0.1118
 1060YOPC   C4A15214   6.340  17.679   6.962  0.0107 -0.0787  0.1293
 1060YOPC   C1B15215   6.075  17.687   5.721  0.1881 -0.0305 -0.3496
 1060YOPC   C2B15216   6.138  18.069   5.916 -0.1656 -0.2674 -0.0901
 1060YOPC   D3B15217   6.009  18.130   6.368 -0.1648 -0.1285  0.1227
 1060YOPC   C4B15218   5.903  17.920   6.801 -0.1890 -0.3416 -0.1775
 1061YOPC   NC315219  12.632  15.831   5.501 -0.0999  0.0109 -0.1461
 1061YOPC   PO415220  12.249  15.798   5.635 -0.1843  0.2197 -0.0068
 1061YOPC   GL115221  12.102  15.533   5.940 -0.0430  0.0844  0.3685
 1061YOPC   GL215222  11.739  15.342   5.823  0.0824  0.1132  0.4049
 1061YOPC   C1A15223  12.131  15.197   6.339 -0.0700 -0.0484  0.0190
 1061YOPC   D2A15224  12.391  14.943   6.585 -0.0560  0.0187 -0.0467
 1061YOPC   C3A15225  12.224  14.928   6.952 -0.1782 -0.1532 -0.2474
 1061YOPC   C4A15226  11.851  15.292   7.131  0.1917 -0.2506 -0.3050
 1061YOPC   C1B15227  11.649  15.098   6.222  0.1215  0.1217  0.2969
 1061YOPC   C2B15228  11.637  15.157   6.578  0.1730  0.0890  0.1019
 1061YOPC   D3B15229  11.310  15.247   6.980  0.2470  0.1573  0.0328
 1061YOPC   C4B15230  11.061  15.189   7.472  0.3038 -0.0654  0.2562
 1062YOPC   NC315231   3.197  10.617   5.265  0.1062  0.2370 -0.1745
 1062YOPC   PO415232   3.497  10.674   5.511  0.2271  0.1883 -0.1313
 1062YOPC   GL115233   3.176  10.623   5.780 -0.4725  0.0942  0.1898
 1062YOPC   GL215234   3.125  10.453   6.023 -0.1148  0.1060 -0.2350
 1062YOPC   C1A15235   2.888  10.896   5.976 -0.1878 -0.0231 -0.0992
 1062YOPC   D2A15236   2.882  10.853   6.347 -0.0337  0.2977  0.2553
 1062YOPC   C3A15237   3.195  10.538   6.522 -0.4223 -0.0486 -0.0277
 1062YOPC   C4A15238   3.640  10.570   6.688 -0.0455 -0.0514 -0.0590
 1062YOPC   C1B15239   3.620  10.485   6.096  0.0214  0.2457  0.1292
 1062YOPC   C2B15240   3.965  10.658   6.282  0.0353  0.2277  0.3563
 1062YOPC   D3B15241   4.186  10.454   6.620 -0.0831  0.0288 -0.1450
 1062YOPC   C4B15242   4.489  10.341   6.858  0.3776 -0.1728 -0.3378
 1063YOPC   NC315243  13.215  14.571   5.544 -0.0531 -0.1263  0.0818
 1063YOPC   PO415244  13.574  14.814   5.377  0.1406  0.0427 -0.2223
 1063YOPC   GL115245  13.673  14.718   5.733  0.3124 -0.1570  0.0740
 1063YOPC   GL215246  13.627  14.338   5.840  0.0355  0.2603 -0.2256
 1063YOPC   C1A15247  13.761  14.964   6.117 -0.1327  0.0946  0.4272
 1063YOPC   D2A15248  13.642  15.311   6.303 -0.0271 -0.2772 -0.1480
 1063YOPC   C3A15249  13.769  15.445   6.642  0.1879  0.0006  0.2940
 1063YOPC   C4A15250  13.752  15.388   6.999  0.1343  0.1398 -0.1825
 1063YOPC   C1B15251  13.459  14.533   6.201  0.0145  0.1259 -0.0235
 1063YOPC   C2B15252  13.699  14.379   6.493  0.0007  0.1179  0.0709
 1063YOPC   D3B15253  14.009  14.391   6.197  0.0571 -0.1785  0.2913
 1063YOPC   C4B15254  14.127  14.517   5.845  0.1305  0.0710 -0.0504
 1064YOPC   NC315255  17.147   1.474   5.011 -0.0517 -0.0454  0.2677
 1064YOPC   PO415256  16.702   1.693   5.164 -0.0452 -0.1842 -0.0862
 1064YOPC   GL115257  16.820   1.771   5.548  0.1280  0.2440  0.0795
 1064YOPC   GL215258  16.522   1.905   5.723  0.1046  0.0225 -0.1528
 1064YOPC   C1A15259  16.842   1.557   5.989 -0.6387 -0.0889 -0.1565
 1064YOPC   D2A15260  16.985   1.629   6.417 -0.2178 -0.3292 -0.4053
 1064YOPC   C3A15261  17.299   1.431   6.618 -0.0610  0.1228 -0.1840
 1064YOPC   C4A15262  17.735   1.345   6.759  0.0726 -0.0233  0.0940
 1064YOPC   C1B15263  16.735   1.996   6.151  0.0952 -0.2429 -0.0706
 1064YOPC   C2B15264  16.603   1.982   6.475 -0.3270  0.3718  0.1620
 1064YOPC   D3B15265  16.473   1.575   6.730 -0.1131  0.1041 -0.2281
 1064YOPC   C4B15266  16.380   1.263   6.947  0.1479 -0.1272  0.2121
 1065YOPC   NC315267  18.403   2.001   4.861  0.0654 -0.2740 -0.0095
 1065YOPC   PO415268  18.432   2.337   5.214 -0.4431  0.2536 -0.1436
 1065YOPC   GL115269  18.518   2.502   5.607  0.0478  0.0267 -0.0872
 1065YOPC   GL215270  18.163   2.326   5.798  0.0424  0.1607  0.2706
 1065YOPC   C1A15271  18.443   2.803   5.860 -0.1101  0.0247 -0.2354
 1065YOPC   D2A15272  18.732   3.041   6.123  0.0333  0.0951  0.1783
 1065YOPC   C3A15273  19.030   2.934   6.378  0.3285  0.1257  0.0192
 1065YOPC   C4A15274  19.186   2.876   6.723 -0.0244 -0.1142 -0.0887
 1065YOPC   C1B15275  18.169   1.906   6.060  0.0023 -0.1830  0.0428
 1065YOPC   C2B15276  18.267   1.910   6.436  0.1678 -0.1420 -0.0781
 1065YOPC   D3B15277  18.665   2.041   6.589 -0.2777  0.0532 -0.2815
 1065YOPC   C4B15278  19.014   1.797   6.776  0.1598 -0.0690  0.1302
 1066YOPC   NC315279  16.447   9.296   5.515  0.0266 -0.1382 -0.2197
 1066YOPC   PO415280  16.280   9.760   5.555 -0.1560 -0.0322 -0.1998
 1066YOPC   GL115281  16.335  10.081   5.807 -0.1044 -0.1175  0.2388
 1066YOPC   GL215282  16.478   9.990   6.133 -0.2194 -0.0332  0.1780
 1066YOPC   C1A15283  16.646  10.500   6.044  0.1558 -0.0703 -0.2482
 1066YOPC   D2A15284  16.874  10.942   6.126 -0.0576  0.1283 -0.1291
 1066YOPC   C3A15285  17.302  10.961   5.997 -0.1227  0.5286 -0.1629
 1066YOPC   C4A15286  17.606  10.721   6.297 -0.1752  0.0330  0.4100
 1066YOPC   C1B15287  16.056   9.993   6.193 -0.4081 -0.0645 -0.1001
 1066YOPC   C2B15288  15.755  10.040   6.561  0.1890  0.1070  0.1113
 1066YOPC   D3B15289  15.960  10.371   6.816 -0.0829  0.2246  0.3860
 1066YOPC   C4B15290  16.168  10.732   6.945  0.1315  0.1220 -0.0784
 1067YOPC   NC315291   3.784   3.901   4.475 -0.1563  0.0542  0.1156
 1067YOPC   PO415292   4.138   3.728   4.761  0.2361  0.0452  0.0890
 1067YOPC   GL115293   4.055   3.522   5.164  0.2033 -0.2946  0.0633
 1067YOPC   GL215294   3.886   3.693   5.377  0.2938  0.1668 -0.0847
 1067YOPC   C1A15295   4.302   3.233   5.497 -0.1248  0.0993 -0.3879
 1067YOPC   D2A15296   4.603   3.143   5.815  0.1328  0.1593  0.0884
 1067YOPC   C3A15297   4.722   3.030   6.361  0.3322  0.2341 -0.0177
 1067YOPC   C4A15298   4.928   2.815   6.693 -0.0515 -0.0134 -0.3433
 1067YOPC   C1B15299   3.742   3.433   5.842 -0.4111  0.2392 -0.0316
 1067YOPC   C2B15300   3.788   3.160   6.312  0.0356 -0.2430  0.2273
 1067YOPC   D3B15301   3.605   3.403   6.695 -0.2327 -0.0513 -0.0081
 1067YOPC   C4B15302   3.432   3.345   7.095  0.1383 -0.1786 -0.1429
 1068YOPC   NC315303  17.070   2.153   5.159  0.0470 -0.0714  0.0142
 1068YOPC   PO415304  17.396   1.993   4.959  0.1691 -0.2074 -0.1493
 1068YOPC   GL115305  17.354   1.767   5.332 -0.2620 -0.0660 -0.2654
 1068YOPC   GL215306  17.734   1.722   5.482  0.0309  0.0403 -0.2364
 1068YOPC   C1A15307  17.370   1.949   5.717 -0.1317  0.2793 -0.1792
 1068YOPC   D2A15308  17.190   2.100   6.236  0.3511 -0.4359 -0.1488
 1068YOPC   C3A15309  17.062   2.270   6.621  0.3141 -0.1730 -0.3840
 1068YOPC   C4A15310  17.227   2.497   7.006 -0.1141  0.3672  0.0504
 1068YOPC   C1B15311  17.862   1.534   5.812 -0.2996  0.0770  0.2214
 1068YOPC   C2B15312  17.824   1.402   6.270 -0.0871 -0.1809  0.2332
 1068YOPC   D3B15313  17.500   1.109   6.304  0.1503 -0.2292 -0.1390
 1068YOPC   C4B15314  17.484   0.703   6.020  0.0026 -0.1682  0.1061
 1069YOPC   NC315315   6.012  10.537   4.798  0.1160  0.1773 -0.3638
 1069YOPC   PO415316   6.365  10.876   4.787  0.1491  0.3641 -0.1917
 1069YOPC   GL115317   6.592  10.861   5.211 -0.1447 -0.0994  0.0995
 1069YOPC   GL215318   6.840  11.079   5.359 -0.5568 -0.2104  0.2576
 1069YOPC   C1A15319   6.666  10.718   5.615 -0.2261  0.2049 -0.1526
 1069YOPC   D2A15320   6.737  10.329   5.931 -0.2650 -0.2861 -0.0474
 1069YOPC   C3A15321   7.139  10.105   5.850 -0.1891  0.2412 -0.1315
 1069YOPC   C4A15322   7.606  10.288   5.737  0.4095 -0.1191 -0.0193
 1069YOPC   C1B15323   7.052  11.034   5.678 -0.0816  0.0932  0.0871
 1069YOPC   C2B15324   7.211  11.195   6.033 -0.2699  0.0644 -0.0890
 1069YOPC   D3B15325   7.345  10.980   6.419 -0.1970 -0.2540  0.0221
 1069YOPC   C4B15326   7.308  10.816   6.776 -0.3046 -0.0294 -0.1691
 1070YOPC   NC315327   9.699   7.232   5.061 -0.3471 -0.1047 -0.1380
 1070YOPC   PO415328   9.751   6.857   5.051  0.3649 -0.0602  0.3147
 1070YOPC   GL115329   9.797   6.666   5.483 -0.1530 -0.2895  0.2493
 1070YOPC   GL215330  10.200   6.690   5.601 -0.2740 -0.1269  0.3693
 1070YOPC   C1A15331   9.816   6.517   5.878 -0.1321  0.0210 -0.1037
 1070YOPC   D2A15332   9.838   6.228   6.210  0.2457  0.2340 -0.0521
 1070YOPC   C3A15333   9.704   6.244   6.696 -0.2763 -0.1911 -0.0823
 1070YOPC   C4A15334   9.785   6.032   7.027  0.0170  0.3855  0.0128
 1070YOPC   C1B15335  10.197   6.237   5.797  0.1470  0.0819 -0.0075
 1070YOPC   C2B15336  10.484   6.153   6.154  0.1914  0.1023 -0.2334
 1070YOPC   D3B15337  10.338   6.301   6.459 -0.0047  0.0323  0.4898
 1070YOPC   C4B15338  10.033   6.622   6.485 -0.1828 -0.2100  0.1333
 1071YOPC   NC315339   0.135   8.570   5.338  0.3164 -0.1201  0.0006
 1071YOPC   PO415340   0.627   8.632   5.386 -0.2348  0.1020 -0.1901
 1071YOPC   GL115341   0.689   8.426   5.799  0.1253 -0.2719 -0.0255
 1071YOPC   GL215342   0.922   8.154   5.768  0.0149  0.0080 -0.1199
 1071YOPC   C1A15343   0.553   8.455   6.187  0.0591  0.1712  0.2085
 1071YOPC   D2A15344   0.582   8.179   6.377 -0.2216 -0.1677 -0.0219
 1071YOPC   C3A15345   0.497   8.273   6.824 -0.3085 -0.3089 -0.1076
 1071YOPC   C4A15346   0.319   8.614   7.100 -0.1201 -0.0069 -0.2694
 1071YOPC   C1B15347   1.092   8.154   6.120  0.4020  0.0361  0.0354
 1071YOPC   C2B15348   1.130   7.941   6.525 -0.1751 -0.3363  0.3003
 1071YOPC   D3B15349   0.902   7.743   6.878 -0.2893 -0.2532 -0.0148
 1071YOPC   C4B15350   0.518   7.732   7.119 -0.2433  0.0106  0.1726
 1072YOPC   NC315351  10.502  19.240   4.673  0.0325  0.2607 -0.0674
 1072YOPC   PO415352  10.346  19.354   5.094 -0.0247 -0.1274 -0.0272
 1072YOPC   GL115353  10.477  19.275   5.573 -0.1418  0.3453  0.1019
 1072YOPC   GL215354  10.495  19.090   5.699 -0.2197 -0.2620  0.1020
 1072YOPC   C1A15355  10.288  19.422   6.038 -0.0308 -0.2417 -0.1808
 1072YOPC   D2A15356  10.358  19.248   6.368 -0.1964 -0.0669 -0.0015
 1072YOPC   C3A15357  10.381  19.299   6.740 -0.0066 -0.1187  0.3672
 1072YOPC   C4A15358  10.715  19.336   7.019  0.2579  0.0202  0.0941
 1072YOPC   C1B15359  10.206  18.844   6.108 -0.3328  0.0768  0.1303
 1072YOPC   C2B15360  10.122  18.831   6.572  0.0164  0.0554  0.2854
 1072YOPC   D3B15361   9.851  18.648   6.821  0.0601 -0.0240 -0.0755
 1072YOPC   C4B15362   9.516  18.895   7.121 -0.1234 -0.0203 -0.0042
 1073YOPC   NC315363  18.632  10.859   4.983  0.2672  0.1242  0.0737
 1073YOPC   PO415364  18.820  11.212   4.917  0.2078 -0.0651 -0.1101
 1073YOPC   GL115365  18.891  11.279   5.300 -0.0288 -0.1417 -0.0317
 1073YOPC   GL215366  18.564  11.126   5.421 -0.0650  0.0049 -0.0119
 1073YOPC   C1A15367  19.116  10.998   5.637  0.1531  0.0437 -0.0853
 1073YOPC   D2A15368  18.951  10.778   6.101  0.1179  0.1634  0.3679
 1073YOPC   C3A15369  18.426  10.716   6.179  0.4183 -0.1277  0.0325
 1073YOPC   C4A15370  18.124  10.838   6.341  0.0260 -0.0934 -0.1623
 1073YOPC   C1B15371  18.347  11.481   5.532  0.2971  0.1000 -0.0396
 1073YOPC   C2B15372  18.007  11.569   5.838 -0.4352  0.4920 -0.0797
 1073YOPC   D3B15373  18.230  11.667   6.178  0.1656 -0.3120  0.1738
 1073YOPC   C4B15374  18.488  11.686   6.551  0.1088  0.1693  0.2114
 1074YOPC   NC315375  14.306  15.070   5.024 -0.0486  0.2014 -0.1041
 1074YOPC   PO415376  14.688  15.066   5.241  0.1455  0.2303  0.1244
 1074YOPC   GL115377  14.725  15.122   5.685  0.3015 -0.0727 -0.0332
 1074YOPC   GL215378  14.912  15.278   5.765 -0.3369 -0.0222  0.0424
 1074YOPC   C1A15379  14.538  15.339   6.139 -0.4448 -0.0530  0.0024
 1074YOPC   D2A15380  14.172  15.380   6.382  0.0068  0.1030 -0.4635
 1074YOPC   C3A15381  14.058  15.023   6.636 -0.2035  0.1149 -0.0424
 1074YOPC   C4A15382  14.118  14.644   6.664 -0.1047 -0.0494 -0.0319
 1074YOPC   C1B15383  15.016  15.312   6.235  0.2424  0.4023  0.1859
 1074YOPC   C2B15384  14.710  15.458   6.677 -0.1072  0.0705 -0.0179
 1074YOPC   D3B15385  14.932  15.330   7.035 -0.0892  0.0354 -0.0768
 1074YOPC   C4B15386  15.225  15.224   7.411  0.1917  0.2137  0.0991
 1075YOPC   NC315387   7.652   0.476   5.425 -0.2439  0.2045 -0.0743
 1075YOPC   PO415388   7.851   0.057   5.339  0.2729 -0.0690 -0.3197
 1075YOPC   GL115389   8.068   0.204   5.723  0.0782 -0.1338 -0.0827
 1075YOPC   GL215390   8.014   0.585   5.816  0.2464 -0.1227  0.3220
 1075YOPC   C1A15391   8.301   0.325   6.170  0.1369  0.0251 -0.0237
 1075YOPC   D2A15392   8.268   0.417   6.540  0.0122 -0.2087  0.0889
 1075YOPC   C3A15393   8.595   0.532   6.691 -0.2063  0.2512  0.0224
 1075YOPC   C4A15394   9.024   0.562   6.736  0.1754 -0.0964  0.1653
 1075YOPC   C1B15395   7.723   0.357   6.044  0.1993  0.0383 -0.4766
 1075YOPC   C2B15396   7.699   0.300   6.437  0.0567  0.1665 -0.5655
 1075YOPC   D3B15397   7.439   0.587   6.545 -0.0498 -0.0139 -0.5994
 1075YOPC   C4B15398   7.022   0.693   6.547 -0.3930 -0.0997 -0.1759
 1076YOPC   NC315399  18.407  13.600   5.360  0.0592  0.1153 -0.3416
 1076YOPC   PO415400  18.229  13.972   5.378 -0.0498  0.0040 -0.0559
 1076YOPC   GL115401  18.326  13.781   5.792 -0.0492 -0.1958  0.1111
 1076YOPC   GL215402  18.311  13.442   5.821  0.2088  0.3149 -0.2050
 1076YOPC   C1A15403  18.329  13.715   6.215  0.0954  0.1933  0.3502
 1076YOPC   D2A15404  17.968  13.708   6.544  0.0590 -0.0587 -0.3118
 1076YOPC   C3A15405  18.038  13.975   6.914  0.2535  0.0342 -0.2008
 1076YOPC   C4A15406  18.102  14.117   7.282 -0.0632 -0.0258  0.0742
 1076YOPC   C1B15407  18.488  13.285   6.119  0.1164  0.2505 -0.1889
 1076YOPC   C2B15408  18.586  13.254   6.587 -0.3984 -0.0960  0.0915
 1076YOPC   D3B15409  18.898  13.379   6.791  0.1048 -0.2288  0.3772
 1076YOPC   C4B15410  19.176  13.447   7.033  0.1656 -0.0824  0.0893
 1077YOPC   NC315411   4.108  13.361   4.709  0.0623 -0.0880 -0.4337
 1077YOPC   PO415412   3.834  13.382   5.038 -0.0214  0.0678 -0.1859
 1077YOPC   GL115413   3.593  13.378   5.520 -0.0719 -0.2798  0.2195
 1077YOPC   GL215414   3.505  13.595   5.798  0.3612 -0.0359 -0.0264
 1077YOPC   C1A15415   3.703  13.116   5.953 -0.0520 -0.3676  0.1422
 1077YOPC   D2A15416   3.811  13.233   6.355 -0.0214 -0.0770  0.0636
 1077YOPC   C3A15417   3.777  13.132   6.776  0.3240  0.0129 -0.0938
 1077YOPC   C4A15418   4.004  12.813   7.029  0.0293 -0.1002 -0.0047
 1077YOPC   C1B15419   3.301  13.977   5.988 -0.2313  0.0267  0.1850
 1077YOPC   C2B15420   3.090  14.349   6.224  0.1258  0.0025  0.0009
 1077YOPC   D3B15421   3.292  14.840   6.264  0.0583 -0.3220 -0.2056
 1077YOPC   C4B15422   3.506  15.158   6.049  0.0798 -0.5082  0.1115
 1078YOPC   NC315423  12.993   0.799   5.075  0.0923 -0.4036 -0.2799
 1078YOPC   PO415424  13.266   0.474   4.914 -0.1894 -0.1305  0.1545
 1078YOPC   GL115425  13.283   0.513   5.378  0.0555  0.2974 -0.0052
 1078YOPC   GL215426  13.311   0.125   5.383  0.5055  0.3664 -0.1626
 1078YOPC   C1A15427  13.415   0.662   5.820 -0.0343 -0.1270  0.2903
 1078YOPC   D2A15428  13.516   0.783   6.298 -0.4152  0.0441  0.1283
 1078YOPC   C3A15429  13.618   1.282   6.272 -0.2609  0.0671  0.3805
 1078YOPC   C4A15430  13.747   1.524   6.094 -0.2175  0.0087 -0.0606
 1078YOPC   C1B15431  13.166   0.229   5.815  0.0024  0.1341  0.0469
 1078YOPC   C2B15432  13.139   0.510   6.162 -0.0896  0.1602 -0.1427
 1078YOPC   D3B15433  12.856   0.485   6.431 -0.0405 -0.0509 -0.0996
 1078YOPC   C4B15434  13.008   0.313   6.825 -0.1290  0.1944  0.1605
 1079YOPC   NC315435   3.566  14.465   4.882  0.0486  0.1893  0.1914
 1079YOPC   PO415436   4.060  14.526   5.107 -0.2438  0.0797 -0.0992
 1079YOPC   GL115437   3.796  14.288   5.454  0.4055 -0.0315 -0.0609
 1079YOPC   GL215438   3.537  14.358   5.385  0.1466  0.3741 -0.0590
 1079YOPC   C1A15439   3.805  13.945   5.838 -0.5230 -0.1246  0.3851
 1079YOPC   D2A15440   3.634  13.684   6.280  0.2367  0.1827 -0.2282
 1079YOPC   C3A15441   3.889  13.702   6.668 -0.2411 -0.2325  0.1569
 1079YOPC   C4A15442   4.227  13.744   6.972  0.1214  0.0823  0.1910
 1079YOPC   C1B15443   3.502  14.441   5.831 -0.1252 -0.0136  0.1786
 1079YOPC   C2B15444   3.568  14.370   6.386 -0.0370 -0.0019 -0.0321
 1079YOPC   D3B15445   3.307  14.477   6.679  0.0245 -0.0576  0.0256
 1079YOPC   C4B15446   3.173  14.295   7.003 -0.1707  0.1696 -0.1626
 1080YOPC   NC315447   5.991  16.395   4.892  0.0287  0.1455  0.1220
 1080YOPC   PO415448   5.636  16.301   4.618 -0.0397 -0.1829  0.2322
 1080YOPC   GL115449   5.494  16.339   5.032 -0.1793  0.4332  0.0229
 1080YOPC   GL215450   5.643  16.059   5.157  0.1393 -0.0732 -0.2864
 1080YOPC   C1A15451   5.368  16.471   5.411  0.2379 -0.3257 -0.0816
 1080YOPC   D2A15452   5.296  16.609   5.743  0.3605 -0.3360  0.2749
 1080YOPC   C3A15453   4.955  16.541   5.956  0.0392  0.0370  0.1208
 1080YOPC   C4A15454   4.928  16.675   6.379  0.4832 -0.0877 -0.0921
 1080YOPC   C1B15455   5.688  16.232   5.623 -0.0714  0.1530  0.4544
 1080YOPC   C2B15456   5.286  16.198   6.034 -0.1631  0.0072  0.1839
 1080YOPC   D3B15457   5.389  15.985   6.293 -0.4139  0.0130  0.1253
 1080YOPC   C4B15458   5.532  15.963   6.603 -0.0946  0.2201  0.0557
 1081YOPC   NC315459   1.488  16.838   4.807 -0.1491 -0.1862 -0.0538
 1081YOPC   PO415460   1.655  16.670   5.183 -0.2319 -0.3232 -0.1793
 1081YOPC   GL115461   1.993  16.938   5.500 -0.1496  0.1975  0.0932
 1081YOPC   GL215462   2.293  16.797   5.445 -0.1440 -0.1938 -0.1467
 1081YOPC   C1A15463   1.900  16.948   5.862  0.3413  0.2587 -0.0578
 1081YOPC   D2A15464   1.888  17.197   6.259 -0.0330 -0.1828 -0.0986
 1081YOPC   C3A15465   1.584  16.994   6.478  0.0971  0.0666 -0.1539
 1081YOPC   C4A15466   1.262  17.108   6.737 -0.0475 -0.2631 -0.0840
 1081YOPC   C1B15467   2.419  16.646   5.805 -0.0546 -0.1594 -0.1642
 1081YOPC   C2B15468   2.438  16.850   6.148 -0.0631 -0.1897  0.0621
 1081YOPC   D3B15469   2.449  16.567   6.561 -0.1390 -0.0504 -0.1629
 1081YOPC   C4B15470   2.357  16.431   6.950 -0.0885  0.0780 -0.1178
 1082YOPC   NC315471  16.573   4.624   5.469  0.1765 -0.1810  0.0340
 1082YOPC   PO415472  16.579   4.192   5.398 -0.1219  0.4074 -0.0026
 1082YOPC   GL115473  16.738   4.142   5.742  0.0056 -0.0996 -0.4535
 1082YOPC   GL215474  16.773   4.489   5.909  0.1464 -0.0557  0.0397
 1082YOPC   C1A15475  17.181   4.186   5.976  0.0972  0.1230  0.1891
 1082YOPC   D2A15476  17.515   4.303   6.112 -0.1020 -0.1528  0.0416
 1082YOPC   C3A15477  17.567   4.253   6.553 -0.1997  0.3387  0.1936
 1082YOPC   C4A15478  17.588   4.267   7.112  0.0802 -0.1686 -0.1888
 1082YOPC   C1B15479  16.550   4.292   6.241 -0.0413  0.2056 -0.1520
 1082YOPC   C2B15480  16.391   3.929   6.386 -0.2415 -0.1071  0.1138
 1082YOPC   D3B15481  16.444   3.950   6.798 -0.0211 -0.2069 -0.1032
 1082YOPC   C4B15482  16.748   4.057   7.163 -0.1719 -0.0603 -0.1989
 1083YOPC   NC315483  14.318  11.964   5.372 -0.2731 -0.0388  0.2377
 1083YOPC   PO415484  14.160  11.553   5.329  0.0068  0.1059 -0.0311
 1083YOPC   GL115485  14.285  11.505   5.768 -0.2634 -0.1187 -0.2405
 1083YOPC   GL215486  14.555  11.661   5.872  0.1565  0.1527 -0.0116
 1083YOPC   C1A15487  14.150  11.474   6.210  0.2281  0.0212 -0.0970
 1083YOPC   D2A15488  13.869  11.445   6.591 -0.2265  0.3189 -0.2263
 1083YOPC   C3A15489  14.117  11.320   6.989 -0.2266 -0.0835  0.2878
 1083YOPC   C4A15490  14.181  11.079   7.288 -0.0318  0.2101 -0.0381
 1083YOPC   C1B15491  14.598  11.672   6.281 -0.2668  0.1696 -0.0532
 1083YOPC   C2B15492  14.349  11.572   6.662  0.1461  0.0310  0.1006
 1083YOPC   D3B15493  14.388  11.829   7.026 -0.1495 -0.0352 -0.1472
 1083YOPC   C4B15494  14.603  11.800   7.357  0.5589  0.2532  0.1292
 1084YOPC   NC315495   9.113   8.903   5.180 -0.0251  0.3524  0.2190
 1084YOPC   PO415496   9.520   8.625   5.127  0.0635 -0.1189  0.2670
 1084YOPC   GL115497   9.567   8.663   5.551  0.0908  0.1955  0.0581
 1084YOPC   GL215498   9.265   8.944   5.658 -0.1389 -0.1075 -0.1275
 1084YOPC   C1A15499   9.786   8.650   5.873  0.2587  0.1611  0.0656
 1084YOPC   D2A15500   9.896   8.291   6.091  0.0310  0.2725 -0.0316
 1084YOPC   C3A15501   9.767   8.024   6.400 -0.0060  0.0904 -0.1591
 1084YOPC   C4A15502   9.920   7.854   6.668 -0.0849  0.0537 -0.0735
 1084YOPC   C1B15503   9.493   9.046   6.050 -0.1800 -0.0337  0.1082
 1084YOPC   C2B15504   9.671   9.112   6.496  0.1526 -0.0116 -0.0140
 1084YOPC   D3B15505   9.282   9.398   6.545 -0.2634 -0.1744  0.0182
 1084YOPC   C4B15506   9.167   9.789   6.502 -0.0155 -0.2689  0.0278
 1085YOPC   NC315507   0.713  13.097   5.310  0.2111  0.0290 -0.3450
 1085YOPC   PO415508   0.276  13.311   5.438 -0.1458 -0.0182 -0.2290
 1085YOPC   GL115509   0.424  12.887   5.614  0.0715 -0.1669  0.1660
 1085YOPC   GL215510   0.459  12.507   5.418  0.1356  0.2254  0.2258
 1085YOPC   C1A15511   0.191  12.610   5.842  0.1656 -0.2207  0.5147
 1085YOPC   D2A15512   0.015  12.310   6.039  0.0256 -0.4647 -0.0510
 1085YOPC   C3A15513  -0.188  12.230   6.496  0.1271  0.0475 -0.1356
 1085YOPC   C4A15514  -0.257  12.044   6.845  0.0980  0.0438 -0.2437
 1085YOPC   C1B15515   0.584  12.290   5.836 -0.3788  0.0454 -0.1812
 1085YOPC   C2B15516   1.060  12.080   5.951  0.2492 -0.1539  0.0825
 1085YOPC   D3B15517   0.999  11.836   6.251  0.0431 -0.2318 -0.0491
 1085YOPC   C4B15518   1.200  11.470   6.425  0.0045  0.1959  0.1870
 1086YOPC   NC315519  18.509  12.999   4.479 -0.5628  0.3970  0.2193
 1086YOPC   PO415520  18.665  12.716   4.754 -0.1413 -0.0332  0.1878
 1086YOPC   GL115521  18.689  12.338   5.117  0.1061  0.1587 -0.1587
 1086YOPC   GL215522  18.818  12.598   5.430  0.0668  0.2098  0.0598
 1086YOPC   C1A15523  18.703  12.056   5.400 -0.3245  0.0826 -0.2609
 1086YOPC   D2A15524  18.609  11.924   5.852  0.2962 -0.2092  0.3661
 1086YOPC   C3A15525  18.500  12.175   6.231  0.0968 -0.0997  0.0207
 1086YOPC   C4A15526  18.524  12.295   6.695  0.0357 -0.0198 -0.0114
 1086YOPC   C1B15527  18.817  12.368   5.871 -0.1019  0.0881  0.0387
 1086YOPC   C2B15528  19.157  12.124   6.003  0.1008 -0.2993 -0.3047
 1086YOPC   D3B15529  19.032  11.920   6.306 -0.1638  0.0089 -0.1352
 1086YOPC   C4B15530  18.923  11.983   6.650  0.2912  0.1485 -0.0859
 1087YOPC   NC315531  17.486   0.018   4.850  0.4306  0.3064 -0.0920
 1087YOPC   PO415532  17.938  -0.202   4.837  0.0709 -0.0584 -0.1891
 1087YOPC   GL115533  18.025   0.084   5.204 -0.1547  0.1944  0.0893
 1087YOPC   GL215534  18.292   0.316   5.180  0.0534 -0.0902 -0.0025
 1087YOPC   C1A15535  17.888   0.096   5.561 -0.3569 -0.0618  0.2809
 1087YOPC   D2A15536  17.708  -0.070   5.997 -0.2645  0.0019 -0.2973
 1087YOPC   C3A15537  17.891  -0.377   6.155  0.1835  0.0901  0.0927
 1087YOPC   C4A15538  17.869  -0.589   6.558  0.3525  0.1093 -0.1280
 1087YOPC   C1B15539  18.224   0.494   5.541  0.0887 -0.1556 -0.0219
 1087YOPC   C2B15540  18.382   0.701   5.902  0.0512  0.0432  0.1470
 1087YOPC   D3B15541  18.435   0.474   6.232  0.0397  0.0922 -0.3982
 1087YOPC   C4B15542  18.642   0.399   6.502 -0.0762  0.0262  0.0454
 1088YOPC   NC315543   4.117  15.966   4.921 -0.0827 -0.0386  0.1346
 1088YOPC   PO415544   3.855  15.899   5.338 -0.1705 -0.0229 -0.3303
 1088YOPC   GL115545   3.646  15.936   5.777 -0.0388 -0.4065  0.2103
 1088YOPC   GL215546   3.738  16.168   6.059  0.2454 -0.2974  0.4825
 1088YOPC   C1A15547   3.576  15.661   6.091  0.4887  0.0867  0.1080
 1088YOPC   D2A15548   3.360  15.515   6.393 -0.3100  0.0501  0.0724
 1088YOPC   C3A15549   3.123  15.626   6.783 -0.1793  0.1386  0.2273
 1088YOPC   C4A15550   2.746  15.685   7.104 -0.1510 -0.1273 -0.0982
 1088YOPC   C1B15551   3.409  16.042   6.343 -0.1558  0.1797 -0.0598
 1088YOPC   C2B15552   3.005  15.819   6.252  0.0423 -0.0189 -0.2122
 1088YOPC   D3B15553   2.619  15.763   6.540 -0.1598  0.3334 -0.3023
 1088YOPC   C4B15554   2.256  15.986   6.698  0.0378 -0.2809 -0.3505
 1089YOPC   NC315555   3.205   8.975   5.132 -0.2110 -0.1233  0.3222
 1089YOPC   PO415556   2.818   9.151   5.157 -0.4361  0.1092  0.4000
 1089YOPC   GL115557   2.924   9.128   5.549 -0.2534 -0.1001  0.1834
 1089YOPC   GL215558   3.032   8.871   5.573  0.1413 -0.2577 -0.1936
 1089YOPC   C1A15559   2.686   9.027   5.918 -0.0724  0.1529  0.0774
 1089YOPC   D2A15560   2.807   8.844   6.295 -0.0290 -0.1233 -0.0505
 1089YOPC   C3A15561   2.662   8.395   6.468 -0.1344 -0.1558 -0.1060
 1089YOPC   C4A15562   2.549   7.967   6.337 -0.3198  0.2145 -0.0133
 1089YOPC   C1B15563   3.144   8.587   5.993 -0.2045 -0.2363  0.2057
 1089YOPC   C2B15564   3.290   8.239   6.211  0.0025  0.3728  0.0435
 1089YOPC   D3B15565   3.150   7.933   6.512  0.1010  0.1392 -0.1038
 1089YOPC   C4B15566   2.839   7.902   6.766  0.2729  0.2843  0.3683
 1090YOPC   NC315567   4.578  18.476   4.828  0.2335  0.3341  0.1368
 1090YOPC   PO415568   4.134  18.340   4.814  0.0429  0.0380 -0.0621
 1090YOPC   GL115569   4.168  18.543   5.204 -0.1180  0.1282  0.2160
 1090YOPC   GL215570   4.020  18.312   5.406  0.1289  0.0512 -0.0914
 1090YOPC   C1A15571   4.374  18.669   5.552 -0.1765  0.2582  0.0290
 1090YOPC   D2A15572   4.475  18.611   5.930 -0.1537 -0.1077 -0.0687
 1090YOPC   C3A15573   4.659  18.413   6.387 -0.2672 -0.0832  0.2909
 1090YOPC   C4A15574   4.652  18.199   6.662 -0.0081 -0.1652 -0.1699
 1090YOPC   C1B15575   3.605  18.379   5.638 -0.0234 -0.2408  0.0996
 1090YOPC   C2B15576   3.504  18.401   6.109 -0.0089 -0.3609  0.0954
 1090YOPC   D3B15577   3.358  18.085   6.286 -0.1592  0.1099  0.0088
 1090YOPC   C4B15578   2.914  17.914   6.264 -0.2067 -0.0488  0.1103
 1091YOPC   NC315579  18.976   6.204   4.569 -0.3924  0.1206 -0.2603
 1091YOPC   PO415580  18.838   6.079   5.003 -0.0435  0.3864  0.0504
 1091YOPC   GL115581  18.910   5.857   5.353  0.3135 -0.2872 -0.0283
 1091YOPC   GL215582  18.768   6.032   5.637 -0.0374  0.0074 -0.2047
 1091YOPC   C1A15583  19.310   5.841   5.606  0.2778 -0.6296  0.1202
 1091YOPC   D2A15584  19.655   5.851   5.884 -0.0156  0.3737 -0.0853
 1091YOPC   C3A15585  20.072   5.761   5.870 -0.2472  0.0009  0.2028
 1091YOPC   C4A15586  20.419   5.804   5.699 -0.1618 -0.2584  0.1168
 1091YOPC   C1B15587  18.826   5.594   5.803  0.4213 -0.0252  0.0786
 1091YOPC   C2B15588  18.392   5.379   5.899  0.0051 -0.0802 -0.2578
 1091YOPC   D3B15589  18.258   5.012   6.019  0.3503 -0.0386  0.3332
 1091YOPC   C4B15590  18.362   4.798   6.316 -0.3127 -0.0631 -0.0199
 1092YOPC   NC315591   3.056  16.188   4.894  0.0172  0.1712  0.0063
 1092YOPC   PO415592   3.060  16.416   5.246  0.0168 -0.4660 -0.1080
 1092YOPC   GL115593   2.989  16.317   5.637 -0.1176 -0.2604  0.0585
 1092YOPC   GL215594   3.266  16.265   5.848  0.1802 -0.0858  0.2089
 1092YOPC   C1A15595   2.745  16.276   6.020  0.0524 -0.2312  0.2293
 1092YOPC   D2A15596   2.311  16.140   6.163 -0.2799  0.1247  0.2148
 1092YOPC   C3A15597   2.032  16.514   6.313  0.0797 -0.0069 -0.1093
 1092YOPC   C4A15598   1.560  16.476   6.396  0.2424 -0.0150 -0.0388
 1092YOPC   C1B15599   3.040  16.678   5.979 -0.0500  0.1919 -0.0228
 1092YOPC   C2B15600   3.100  16.932   6.267  0.3712 -0.1984  0.2018
 1092YOPC   D3B15601   2.745  17.034   6.578 -0.1614 -0.3174  0.3104
 1092YOPC   C4B15602   2.376  17.410   6.576 -0.3497  0.0946 -0.1857
 1093YOPC   NC315603  16.654   3.698   5.433 -0.1104 -0.1166 -0.0198
 1093YOPC   PO415604  17.012   4.003   5.219 -0.4218 -0.0162 -0.0481
 1093YOPC   GL115605  17.161   3.667   5.664 -0.2350 -0.2170  0.0615
 1093YOPC   GL215606  17.012   3.359   5.627  0.1668  0.3514  0.2776
 1093YOPC   C1A15607  17.006   3.710   5.992 -0.1879 -0.3319  0.0478
 1093YOPC   D2A15608  16.912   3.914   6.312  0.2563  0.1647  0.0884
 1093YOPC   C3A15609  16.872   3.657   6.626  0.0362 -0.5633 -0.2999
 1093YOPC   C4A15610  16.679   3.595   7.027 -0.0429  0.2529 -0.0812
 1093YOPC   C1B15611  17.200   3.268   6.001 -0.3127  0.1138  0.2988
 1093YOPC   C2B15612  17.160   3.307   6.393  0.1676 -0.2704 -0.2854
 1093YOPC   D3B15613  17.250   2.864   6.603 -0.0305 -0.1203  0.1292
 1093YOPC   C4B15614  17.566   2.903   6.885  0.0615 -0.0282  0.2165
 1094YOPC   NC315615   7.082  12.306   4.772 -0.2209 -0.0374 -0.0542
 1094YOPC   PO415616   6.912  12.481   5.176 -0.1251  0.0096 -0.1475
 1094YOPC   GL115617   7.068  12.468   5.651 -0.2393 -0.3485  0.1471
 1094YOPC   GL215618   6.756  12.342   5.818 -0.0710  0.1727  0.2796
 1094YOPC   C1A15619   7.416  12.680   5.812 -0.0755 -0.1806 -0.1453
 1094YOPC   D2A15620   7.667  12.788   6.115  0.2716 -0.2037 -0.3533
 1094YOPC   C3A15621   7.691  12.713   6.644  0.0748  0.2290 -0.2485
 1094YOPC   C4A15622   7.350  12.604   6.875  0.0180 -0.0715 -0.0124
 1094YOPC   C1B15623   7.141  12.292   6.097  0.1281 -0.0172 -0.0650
 1094YOPC   C2B15624   7.378  12.421   6.399  0.4040  0.3749  0.1556
 1094YOPC   D3B15625   7.398  12.150   6.771  0.4145  0.1150 -0.0142
 1094YOPC   C4B15626   7.482  12.188   7.175 -0.0962 -0.0669 -0.0296
 1095YOPC   NC315627   3.790   4.895   4.837 -0.0692 -0.0259 -0.2456
 1095YOPC   PO415628   3.499   5.068   5.105 -0.1017 -0.2543 -0.0166
 1095YOPC   GL115629   3.559   4.835   5.569 -0.0240 -0.3287 -0.0005
 1095YOPC   GL215630   3.882   4.856   5.613  0.2658 -0.0989 -0.2562
 1095YOPC   C1A15631   3.524   4.990   5.946 -0.2137  0.0708 -0.0002
 1095YOPC   D2A15632   3.611   4.866   6.300  0.0783 -0.1362 -0.1470
 1095YOPC   C3A15633   3.955   4.973   6.562 -0.0988 -0.4510 -0.0423
 1095YOPC   C4A15634   4.397   5.102   6.486  0.6751 -0.3031 -0.2827
 1095YOPC   C1B15635   3.982   4.862   5.961  0.1828  0.0170  0.1098
 1095YOPC   C2B15636   4.163   4.627   6.375 -0.2262 -0.0918 -0.1094
 1095YOPC   D3B15637   4.401   4.561   6.658 -0.3939 -0.0506  0.2011
 1095YOPC   C4B15638   4.595   4.516   7.141  0.0455  0.2988  0.2123
 1096YOPC   NC315639   9.230  11.838   5.035  0.1119  0.0833 -0.0383
 1096YOPC   PO415640   8.846  11.918   5.237 -0.1305  0.3837 -0.0005
 1096YOPC   GL115641   8.981  11.783   5.543 -0.0729  0.0967 -0.5289
 1096YOPC   GL215642   8.912  12.001   5.785 -0.3597 -0.0030 -0.0740
 1096YOPC   C1A15643   9.044  11.480   5.847 -0.4845  0.1483 -0.2273
 1096YOPC   D2A15644   9.086  11.353   6.260 -0.0883  0.0209 -0.2452
 1096YOPC   C3A15645   9.350  10.959   6.352  0.1381 -0.1048 -0.0552
 1096YOPC   C4A15646   9.545  10.614   6.263  0.1956  0.3198 -0.1861
 1096YOPC   C1B15647   8.672  12.024   6.185 -0.1493  0.2325  0.0396
 1096YOPC   C2B15648   8.669  12.149   6.590  0.0324 -0.2010  0.1479
 1096YOPC   D3B15649   8.438  12.475   6.562 -0.1094 -0.1218 -0.0393
 1096YOPC   C4B15650   8.171  12.665   6.845  0.0203 -0.3677  0.0721
 1097YOPC   NC315651  12.334   0.459   5.074 -0.0021 -0.1866  0.2168
 1097YOPC   PO415652  12.532   0.908   5.207  0.0883 -0.2652  0.2638
 1097YOPC   GL115653  12.320   0.726   5.606  0.0155  0.2260  0.2043
 1097YOPC   GL215654  12.133   0.381   5.503 -0.1316  0.1140 -0.1316
 1097YOPC   C1A15655  12.328   0.914   5.999 -0.1467  0.0854 -0.0485
 1097YOPC   D2A15656  12.348   0.791   6.427  0.3157 -0.0022  0.1853
 1097YOPC   C3A15657  12.744   0.941   6.576 -0.4859  0.4845 -0.2640
 1097YOPC   C4A15658  13.110   0.804   6.761  0.0069 -0.0030 -0.2518
 1097YOPC   C1B15659  12.114   0.400   6.049  0.0413  0.1779  0.0401
 1097YOPC   C2B15660  12.338   0.265   6.382  0.3005 -0.3710  0.1373
 1097YOPC   D3B15661  12.663   0.030   6.535  0.2116  0.1029  0.1682
 1097YOPC   C4B15662  12.719  -0.145   6.930  0.1463 -0.1549 -0.3658
 1098YOPC   NC315663  14.758   2.295   4.754 -0.2082 -0.2301 -0.0924
 1098YOPC   PO415664  14.662   1.867   5.020 -0.0256 -0.2552 -0.0481
 1098YOPC   GL115665  14.750   2.085   5.367  0.3012  0.0526 -0.0173
 1098YOPC   GL215666  15.048   1.984   5.500 -0.1616 -0.2699 -0.0319
 1098YOPC   C1A15667  14.560   2.126   5.709  0.1675 -0.3504  0.0938
 1098YOPC   D2A15668  14.697   2.184   6.102 -0.0483 -0.0460 -0.3256
 1098YOPC   C3A15669  14.553   2.423   6.381 -0.0258  0.2782  0.0075
 1098YOPC   C4A15670  14.310   2.585   6.793  0.0257 -0.0008  0.1315
 1098YOPC   C1B15671  15.187   2.141   5.951 -0.1528  0.3828 -0.0023
 1098YOPC   C2B15672  15.107   2.019   6.474  0.0240 -0.2258  0.0840
 1098YOPC   D3B15673  14.683   1.977   6.634 -0.1463 -0.1574  0.0966
 1098YOPC   C4B15674  14.471   1.592   6.743  0.0156  0.0738  0.0090
 1099YOPC   NC315675  12.668  18.900   4.835 -0.1821 -0.3433 -0.1830
 1099YOPC   PO415676  12.315  18.810   5.168  0.1018  0.1625 -0.3227
 1099YOPC   GL115677  12.527  18.871   5.625  0.0132 -0.4495 -0.1122
 1099YOPC   GL215678  12.819  18.584   5.679 -0.1544 -0.1659  0.0016
 1099YOPC   C1A15679  12.869  19.114   5.834 -0.0612  0.0105  0.3491
 1099YOPC   D2A15680  13.089  19.395   5.931 -0.1134  0.1860 -0.1961
 1099YOPC   C3A15681  13.206  19.644   6.304 -0.1558  0.1501  0.1691
 1099YOPC   C4A15682  13.182  19.500   6.742  0.3316 -0.1073  0.4975
 1099YOPC   C1B15683  12.940  18.644   6.094  0.1418  0.1887  0.2378
 1099YOPC   C2B15684  13.051  18.657   6.447  0.0202  0.2039  0.1566
 1099YOPC   D3B15685  13.377  18.207   6.623  0.0866  0.0177 -0.2559
 1099YOPC   C4B15686  13.562  17.780   6.447 -0.1963 -0.5128  0.0043
 1100YOPC   NC315687  14.439  11.216   5.044  0.2588 -0.2113  0.0981
 1100YOPC   PO415688  14.931  11.395   4.926  0.2156 -0.0425  0.2344
 1100YOPC   GL115689  14.977  11.254   5.426  0.0123 -0.1531  0.1546
 1100YOPC   GL215690  14.748  11.120   5.526 -0.0798 -0.3823 -0.0551
 1100YOPC   C1A15691  14.996  11.496   5.849 -0.3894 -0.0023 -0.2268
 1100YOPC   D2A15692  14.942  11.346   6.193 -0.3599 -0.0455  0.0802
 1100YOPC   C3A15693  15.038  11.010   6.405  0.0345  0.0407 -0.0289
 1100YOPC   C4A15694  15.000  10.727   6.700 -0.1666  0.1935  0.4530
 1100YOPC   C1B15695  14.922  10.982   5.903 -0.0281 -0.1617 -0.0950
 1100YOPC   C2B15696  14.870  10.651   6.057 -0.3549  0.1058  0.0760
 1100YOPC   D3B15697  14.582  10.609   6.398  0.1118 -0.3871  0.1514
 1100YOPC   C4B15698  14.640  10.345   6.721 -0.2784 -0.0346 -0.4946
 1101YOPC   NC315699  10.679  13.345   4.780 -0.1775  0.1490 -0.1843
 1101YOPC   PO415700  10.701  12.957   5.032 -0.0863 -0.0773 -0.2868
 1101YOPC   GL115701  10.530  13.077   5.423 -0.0711  0.3078  0.1995
 1101YOPC   GL215702  10.741  13.365   5.682  0.3890 -0.0213  0.0355
 1101YOPC   C1A15703  10.416  12.987   5.833  0.4025 -0.3518  0.2134
 1101YOPC   D2A15704  10.485  12.854   6.299 -0.1174  0.2191  0.1116
 1101YOPC   C3A15705  10.279  12.594   6.627  0.1573  0.2438  0.0660
 1101YOPC   C4A15706  10.020  12.398   6.858 -0.3109 -0.2239 -0.0311
 1101YOPC   C1B15707  10.830  13.210   6.037  0.2533  0.2396  0.2333
 1101YOPC   C2B15708  10.835  13.101   6.575 -0.1707 -0.0203  0.0419
 1101YOPC   D3B15709  10.575  13.268   6.831 -0.0505  0.3561  0.1385
 1101YOPC   C4B15710  10.749  13.464   7.208  0.3020 -0.2252  0.4180
 1102YOPC   NC315711   4.457  14.600   4.826  0.2306 -0.1051  0.1937
 1102YOPC   PO415712   4.856  14.438   5.139 -0.0146 -0.0548 -0.5146
 1102YOPC   GL115713   4.815  14.308   5.501  0.0641  0.0229 -0.0022
 1102YOPC   GL215714   4.778  14.514   5.670 -0.1147 -0.2668  0.1569
 1102YOPC   C1A15715   5.069  14.122   5.828 -0.0195 -0.1600 -0.0381
 1102YOPC   D2A15716   5.001  13.662   6.061 -0.0436 -0.2526  0.2728
 1102YOPC   C3A15717   4.658  13.617   6.194 -0.2384 -0.2214 -0.1343
 1102YOPC   C4A15718   4.251  13.726   6.293  0.0671 -0.0106 -0.3089
 1102YOPC   C1B15719   5.102  14.593   6.092 -0.0489  0.0839 -0.0434
 1102YOPC   C2B15720   5.436  14.407   6.251 -0.3688  0.3548  0.1503
 1102YOPC   D3B15721   5.491  14.607   6.622  0.0800  0.2005  0.1200
 1102YOPC   C4B15722   5.515  14.809   6.909 -0.1429  0.0555 -0.3057
 1103YOPC   NC315723   7.308   1.795   4.665  0.1744  0.1584  0.2843
 1103YOPC   PO415724   7.193   1.674   5.020 -0.1927 -0.0777  0.2224
 1103YOPC   GL115725   7.052   1.854   5.470  0.0588  0.0987 -0.2261
 1103YOPC   GL215726   7.336   1.855   5.650 -0.0491  0.4643 -0.0467
 1103YOPC   C1A15727   6.929   1.898   5.899 -0.1233 -0.1894  0.2641
 1103YOPC   D2A15728   7.023   1.548   6.223  0.0978  0.0812 -0.0451
 1103YOPC   C3A15729   6.847   1.144   6.010 -0.1502 -0.0968 -0.0278
 1103YOPC   C4A15730   6.559   1.037   5.702  0.3377  0.2443  0.0352
 1103YOPC   C1B15731   7.365   1.894   6.075  0.4393 -0.2876  0.0892
 1103YOPC   C2B15732   7.236   2.122   6.475 -0.1019  0.1186 -0.2436
 1103YOPC   D3B15733   7.259   1.992   6.974 -0.3778  0.0038 -0.0323
 1103YOPC   C4B15734   7.646   2.191   7.115  0.1081  0.0136  0.1536
 1104YOPC   NC315735  14.511   5.319   5.320 -0.1321  0.1227  0.0715
 1104YOPC   PO415736  14.597   5.769   5.438 -0.2180  0.2822 -0.0795
 1104YOPC   GL115737  14.220   5.780   5.640 -0.0809  0.1310  0.0208
 1104YOPC   GL215738  14.090   5.425   5.789  0.2535 -0.0274  0.0960
 1104YOPC   C1A15739  13.892   6.056   5.759  0.2860 -0.2549  0.0622
 1104YOPC   D2A15740  13.834   6.158   6.144  0.1628 -0.0211  0.0776
 1104YOPC   C3A15741  14.111   6.483   6.295  0.3252  0.0940  0.2172
 1104YOPC   C4A15742  14.543   6.654   6.379  0.2341  0.1342 -0.0399
 1104YOPC   C1B15743  13.872   5.638   6.150  0.2649  0.1560  0.0387
 1104YOPC   C2B15744  14.063   5.892   6.513 -0.2724  0.2280  0.2486
 1104YOPC   D3B15745  13.964   6.138   6.909  0.0493 -0.0378 -0.1012
 1104YOPC   C4B15746  14.047   6.580   7.174 -0.1143  0.3240  0.1635
 1105YOPC   NC315747   6.189   6.460   4.614 -0.3225  0.4370  0.2819
 1105YOPC   PO415748   5.745   6.233   4.824 -0.0456  0.2750  0.2685
 1105YOPC   GL115749   5.960   6.187   5.270 -0.0401  0.3852 -0.0530
 1105YOPC   GL215750   5.865   6.418   5.376  0.0660  0.0643  0.3081
 1105YOPC   C1A15751   6.032   5.944   5.560  0.0847  0.1985 -0.0618
 1105YOPC   D2A15752   5.783   5.954   5.960 -0.1603 -0.0486 -0.1886
 1105YOPC   C3A15753   5.497   5.629   5.998 -0.1516 -0.0455  0.0322
 1105YOPC   C4A15754   5.142   5.769   5.809 -0.0186 -0.1391  0.0362
 1105YOPC   C1B15755   5.943   6.468   5.823  0.1962 -0.1605 -0.0459
 1105YOPC   C2B15756   6.123   6.326   6.149  0.2232  0.0393 -0.1122
 1105YOPC   D3B15757   6.270   6.391   6.546  0.0410 -0.1718  0.1411
 1105YOPC   C4B15758   5.946   6.446   6.794 -0.1862  0.1332  0.2051
 1106YOPC   NC315759   8.856   2.095   5.202  0.0154  0.0379  0.2506
 1106YOPC   PO415760   9.149   2.439   5.246  0.3942  0.1440  0.2420
 1106YOPC   GL115761   9.511   2.333   5.504 -0.2767 -0.1104  0.1413
 1106YOPC   GL215762   9.824   2.251   5.559  0.0414 -0.2238 -0.0839
 1106YOPC   C1A15763   9.424   2.168   5.864 -0.0752 -0.0735  0.2032
 1106YOPC   D2A15764   9.347   1.945   6.128  0.1863  0.2729  0.0226
 1106YOPC   C3A15765   9.064   1.947   6.481 -0.3815  0.0613  0.1926
 1106YOPC   C4A15766   8.633   1.946   6.628 -0.0328 -0.3085  0.2355
 1106YOPC   C1B15767  10.211   2.253   5.728 -0.1732 -0.3094  0.0938
 1106YOPC   C2B15768  10.378   2.289   6.091  0.0062  0.2472  0.1609
 1106YOPC   D3B15769  10.781   2.061   6.229  0.2289  0.1584 -0.0798
 1106YOPC   C4B15770  11.077   1.751   6.133 -0.3322 -0.2543 -0.1112
 1107YOPC   NC315771  15.014   1.531   4.857 -0.0257 -0.1027 -0.1198
 1107YOPC   PO415772  15.276   1.532   5.101  0.0628  0.4530 -0.3124
 1107YOPC   GL115773  14.875   1.542   5.411  0.0550  0.0612 -0.0205
 1107YOPC   GL215774  15.171   1.498   5.614 -0.0045 -0.1988 -0.0848
 1107YOPC   C1A15775  14.645   1.479   5.803  0.0983 -0.0029 -0.0086
 1107YOPC   D2A15776  14.471   1.744   6.190 -0.0085  0.2901 -0.2525
 1107YOPC   C3A15777  14.074   1.782   6.446 -0.1383 -0.1002  0.1460
 1107YOPC   C4A15778  13.928   1.705   6.826 -0.0689 -0.3492 -0.2273
 1107YOPC   C1B15779  15.113   1.580   6.024  0.0986  0.0169  0.1552
 1107YOPC   C2B15780  14.938   1.470   6.525 -0.1697 -0.0539  0.1002
 1107YOPC   D3B15781  15.068   1.697   6.960 -0.1065 -0.1976 -0.0413
 1107YOPC   C4B15782  15.102   2.162   7.120  0.4391 -0.1946 -0.3240
 1108YOPC   NC315783   0.729  16.151   5.045  0.0667 -0.0704 -0.0164
 1108YOPC   PO415784   1.082  15.819   5.067  0.0872  0.1983 -0.3865
 1108YOPC   GL115785   0.749  15.790   5.328 -0.1812  0.1708  0.2223
 1108YOPC   GL215786   0.846  15.536   5.574  0.2331 -0.0338 -0.2055
 1108YOPC   C1A15787   0.611  16.023   5.739 -0.0529 -0.3144  0.1486
 1108YOPC   D2A15788   0.725  16.290   5.954  0.0446 -0.0772 -0.1081
 1108YOPC   C3A15789   0.933  16.621   5.896  0.1749 -0.1876  0.0414
 1108YOPC   C4A15790   0.853  17.006   5.944 -0.1684 -0.0885  0.1310
 1108YOPC   C1B15791   1.043  15.817   5.947  0.1255 -0.0789 -0.0560
 1108YOPC   C2B15792   1.348  16.082   6.090 -0.0820 -0.0225  0.0279
 1108YOPC   D3B15793   1.406  16.523   5.912 -0.0676 -0.0631 -0.0438
 1108YOPC   C4B15794   1.422  17.001   6.027  0.1087  0.2425  0.1477
 1109YOPC   NC315795  13.839   4.705   5.098  0.1049 -0.3686 -0.0214
 1109YOPC   PO415796  13.490   4.604   4.845 -0.0198  0.1382  0.1820
 1109YOPC   GL115797  13.459   4.574   5.312 -0.1184  0.3411 -0.2516
 1109YOPC   GL215798  13.715   4.312   5.431 -0.0053 -0.1173 -0.3259
 1109YOPC   C1A15799  13.296   4.521   5.705 -0.2137  0.0869 -0.0608
 1109YOPC   D2A15800  13.185   4.236   6.030 -0.1026 -0.0236  0.2046
 1109YOPC   C3A15801  12.849   3.944   5.777 -0.0400  0.0979  0.0118
 1109YOPC   C4A15802  12.490   3.843   5.515  0.0289 -0.1554 -0.1550
 1109YOPC   C1B15803  13.780   4.095   5.750 -0.0012  0.0679 -0.0502
 1109YOPC   C2B15804  13.629   3.986   6.087  0.3924 -0.0226 -0.2287
 1109YOPC   D3B15805  13.633   3.593   6.329  0.1973  0.1710 -0.0377
 1109YOPC   C4B15806  13.516   3.258   6.631  0.1768  0.3874 -0.2889
 1110YOPC   NC315807   1.332   3.236   5.056  0.0628  0.1080  0.1269
 1110YOPC   PO415808   1.486   2.846   4.965 -0.0031 -0.1088 -0.1145
 1110YOPC   GL115809   1.396   2.781   5.306 -0.0979  0.0606  0.2730
 1110YOPC   GL215810   1.385   2.512   5.428 -0.3088  0.3722  0.1846
 1110YOPC   C1A15811   1.450   2.939   5.674 -0.3450 -0.0071 -0.1364
 1110YOPC   D2A15812   1.466   2.670   6.139 -0.2745 -0.1230  0.0852
 1110YOPC   C3A15813   1.702   2.769   6.564  0.3826 -0.0583  0.0168
 1110YOPC   C4A15814   2.065   2.359   6.688 -0.0990 -0.2234  0.4549
 1110YOPC   C1B15815   1.180   2.470   5.812  0.2763  0.0929 -0.0436
 1110YOPC   C2B15816   0.906   2.429   6.179  0.2440  0.2411 -0.0968
 1110YOPC   D3B15817   0.514   2.599   6.268  0.2030 -0.0028  0.4497
 1110YOPC   C4B15818   0.237   2.829   6.205  0.1667 -0.1504 -0.0516
 1111YOPC   NC315819  17.143  17.226   5.430 -0.0293  0.1034  0.0020
 1111YOPC   PO415820  16.902  17.481   5.209 -0.2526 -0.1866 -0.2416
 1111YOPC   GL115821  16.661  17.360   5.538 -0.1353  0.0823  0.0422
 1111YOPC   GL215822  16.591  16.997   5.463 -0.2049 -0.0898 -0.1216
 1111YOPC   C1A15823  16.517  17.419   5.974  0.0229  0.0421  0.2330
 1111YOPC   D2A15824  16.626  17.157   6.229  0.0816  0.0113 -0.0951
 1111YOPC   C3A15825  17.053  17.001   6.360  0.2305 -0.2827 -0.2791
 1111YOPC   C4A15826  17.208  17.369   6.526  0.0625  0.1021 -0.0945
 1111YOPC   C1B15827  16.475  16.867   5.790 -0.3414  0.1060 -0.1227
 1111YOPC   C2B15828  16.307  16.508   6.047  0.3878 -0.2991  0.0042
 1111YOPC   D3B15829  16.587  16.287   6.276 -0.0487  0.1308 -0.4391
 1111YOPC   C4B15830  16.942  16.492   6.368 -0.0664 -0.0626 -0.1363
 1112YOPC   NC315831   0.165  15.303   4.962  0.0577  0.0243 -0.1640
 1112YOPC   PO415832  -0.097  15.674   5.212  0.3714 -0.0539 -0.0032
 1112YOPC   GL115833  -0.266  16.022   5.494 -0.0599 -0.0439 -0.0268
 1112YOPC   GL215834  -0.199  16.333   5.496  0.2450 -0.1062 -0.1466
 1112YOPC   C1A15835  -0.153  16.078   5.914 -0.0716 -0.2194  0.1856
 1112YOPC   D2A15836  -0.106  16.042   6.399  0.0949  0.2025  0.1032
 1112YOPC   C3A15837   0.151  16.018   6.745  0.0684  0.0417  0.1918
 1112YOPC   C4A15838   0.106  15.682   6.934  0.0795 -0.0749  0.0370
 1112YOPC   C1B15839   0.164  16.370   5.723 -0.0618 -0.0767  0.0715
 1112YOPC   C2B15840   0.312  16.449   6.174  0.1803  0.2045  0.1280
 1112YOPC   D3B15841   0.635  16.698   6.270  0.0209 -0.0908 -0.1287
 1112YOPC   C4B15842   1.120  16.812   6.371 -0.3368 -0.1950  0.3848
 1113YOPC   NC315843   1.909   1.813   5.051  0.1063 -0.0115 -0.0504
 1113YOPC   PO415844   1.718   1.450   5.109 -0.1740  0.0282  0.0558
 1113YOPC   GL115845   1.511   1.478   5.456 -0.0206 -0.2460 -0.5471
 1113YOPC   GL215846   1.208   1.453   5.405  0.2829 -0.0563  0.2099
 1113YOPC   C1A15847   1.459   1.983   5.649  0.2384 -0.0674  0.2376
 1113YOPC   D2A15848   1.622   2.231   5.849  0.2075 -0.2711  0.1343
 1113YOPC   C3A15849   1.872   2.221   6.243  0.0068 -0.0719  0.1579
 1113YOPC   C4A15850   2.163   2.015   6.297  0.2940 -0.5093 -0.3015
 1113YOPC   C1B15851   1.277   1.430   5.874 -0.2428 -0.3470 -0.0497
 1113YOPC   C2B15852   1.431   1.376   6.247 -0.3879  0.0541  0.0247
 1113YOPC   D3B15853   1.246   1.126   6.641  0.4123 -0.2143 -0.2516
 1113YOPC   C4B15854   0.996   1.425   7.040  0.1829  0.0550  0.2570
 1114YOPC   NC315855  13.125  16.789   5.303 -0.1489 -0.0312  0.1575
 1114YOPC   PO415856  13.363  16.428   5.640 -0.0173  0.1389  0.2352
 1114YOPC   GL115857  13.503  16.254   6.009  0.1478  0.1631 -0.1523
 1114YOPC   GL215858  13.282  16.240   6.276 -0.1922  0.1785 -0.0437
 1114YOPC   C1A15859  13.696  16.208   6.511  0.1125  0.1589  0.0517
 1114YOPC   D2A15860  13.614  15.877   6.832  0.2259  0.0217 -0.1558
 1114YOPC   C3A15861  13.173  15.910   7.023 -0.1819  0.1583  0.0807
 1114YOPC   C4A15862  12.740  15.703   6.920 -0.0463 -0.0837 -0.3155
 1114YOPC   C1B15863  13.322  16.349   6.714  0.1058  0.0596  0.3475
 1114YOPC   C2B15864  13.192  16.663   6.963 -0.1660 -0.3787  0.2421
 1114YOPC   D3B15865  13.331  16.964   7.281  0.0402  0.1487  0.3382
 1114YOPC   C4B15866  13.623  16.647   7.568 -0.2568  0.0524 -0.3153
 1115YOPC   NC315867  15.213   9.267   5.099 -0.1787  0.1465  0.3980
 1115YOPC   PO415868  15.099   9.569   5.385 -0.2651  0.2689  0.2095
 1115YOPC   GL115869  15.225   9.736   5.598 -0.1772  0.0518  0.0216
 1115YOPC   GL215870  15.228   9.566   5.959  0.0437  0.1034 -0.0793
 1115YOPC   C1A15871  15.343  10.051   5.950 -0.3265  0.4273 -0.4801
 1115YOPC   D2A15872  15.075  10.206   6.369  0.3141 -0.0655 -0.0708
 1115YOPC   C3A15873  15.421  10.369   6.686 -0.0316  0.1804  0.0919
 1115YOPC   C4A15874  15.391  10.542   7.248  0.0334  0.4120  0.2146
 1115YOPC   C1B15875  15.065   9.631   6.333  0.1195 -0.2207  0.2015
 1115YOPC   C2B15876  15.130   9.417   6.794  0.1225 -0.2219 -0.3614
 1115YOPC   D3B15877  15.516   9.399   7.046 -0.0492 -0.0027 -0.1305
 1115YOPC   C4B15878  15.845   9.260   7.136  0.0238 -0.3994  0.0725
 1116YOPC   NC315879   8.159  15.923   5.180  0.1743  0.0254 -0.2680
 1116YOPC   PO415880   8.187  16.349   5.279  0.1654 -0.0884  0.1211
 1116YOPC   GL115881   8.022  16.467   5.716  0.1494 -0.0689 -0.0121
 1116YOPC   GL215882   7.831  16.455   5.701 -0.0603 -0.0784 -0.3019
 1116YOPC   C1A15883   7.893  16.568   6.194  0.0924  0.0868  0.4726
 1116YOPC   D2A15884   8.145  16.692   6.547 -0.1073  0.0318 -0.0180
 1116YOPC   C3A15885   8.127  17.109   6.725  0.2016 -0.1828  0.0411
 1116YOPC   C4A15886   7.940  17.459   6.798  0.1053  0.1241 -0.1435
 1116YOPC   C1B15887   7.482  16.731   5.702 -0.0231  0.2233  0.1334
 1116YOPC   C2B15888   7.219  16.830   5.966  0.3069  0.3193  0.1325
 1116YOPC   D3B15889   7.169  17.110   6.317 -0.0487  0.2684 -0.0805
 1116YOPC   C4B15890   7.227  17.465   6.654  0.0750 -0.0443  0.4482
 1117YOPC   NC315891  15.359  12.410   5.036 -0.1160 -0.4895 -0.0807
 1117YOPC   PO415892  15.027  12.261   5.321  0.3492 -0.0342  0.1032
 1117YOPC   GL115893  14.727  12.108   5.649 -0.0199 -0.1428 -0.0737
 1117YOPC   GL215894  15.002  12.005   5.792 -0.1381 -0.0139  0.0978
 1117YOPC   C1A15895  14.563  12.174   6.041  0.1304 -0.1247  0.2668
 1117YOPC   D2A15896  14.285  12.047   6.434 -0.1449 -0.3571  0.2024
 1117YOPC   C3A15897  14.407  12.210   6.719 -0.0959 -0.3897  0.2013
 1117YOPC   C4A15898  14.493  12.427   7.123 -0.0905  0.1267  0.1711
 1117YOPC   C1B15899  15.154  11.810   6.209 -0.3025 -0.2996  0.1208
 1117YOPC   C2B15900  15.334  11.917   6.634  0.0770  0.1043  0.1638
 1117YOPC   D3B15901  15.682  11.866   6.588 -0.1224 -0.0919 -0.2081
 1117YOPC   C4B15902  16.139  11.953   6.543 -0.4270 -0.3540 -0.3244
 1118YOPC   NC315903  17.086  16.326   4.948  0.1240 -0.1221  0.1879
 1118YOPC   PO415904  17.020  16.168   5.410 -0.3907  0.0563 -0.0161
 1118YOPC   GL115905  17.171  16.346   5.808 -0.4125  0.0720  0.2060
 1118YOPC   GL215906  17.398  16.470   5.956 -0.1241  0.2500 -0.1882
 1118YOPC   C1A15907  16.933  16.747   5.918 -0.3110  0.0786  0.1072
 1118YOPC   D2A15908  16.949  17.152   5.865 -0.0359 -0.2560 -0.0558
 1118YOPC   C3A15909  17.078  17.477   6.079  0.0309 -0.3015 -0.1639
 1118YOPC   C4A15910  16.848  17.735   6.321  0.1321  0.0803 -0.1298
 1118YOPC   C1B15911  17.408  16.686   6.328 -0.0896 -0.1129  0.1280
 1118YOPC   C2B15912  17.734  16.634   6.654 -0.0957  0.1383  0.0858
 1118YOPC   D3B15913  18.190  16.465   6.622  0.0538 -0.3684  0.0791
 1118YOPC   C4B15914  18.335  16.420   6.913 -0.3762 -0.2030 -0.0096
 1119YOPC   NC315915  14.915   7.412   5.319  0.2399 -0.0466 -0.2617
 1119YOPC   PO415916  15.154   7.437   5.689 -0.0681 -0.2456  0.1179
 1119YOPC   GL115917  15.037   7.395   6.119 -0.2817  0.0730  0.1135
 1119YOPC   GL215918  14.631   7.278   6.181  0.1670  0.1570  0.0291
 1119YOPC   C1A15919  14.855   7.708   6.534 -0.0145 -0.0525 -0.1662
 1119YOPC   D2A15920  14.442   7.940   6.850  0.2076 -0.1216  0.0395
 1119YOPC   C3A15921  13.957   7.929   6.986 -0.1596 -0.0239 -0.1467
 1119YOPC   C4A15922  13.684   8.191   6.775 -0.4260  0.1342  0.0618
 1119YOPC   C1B15923  14.508   7.310   6.563 -0.0691 -0.0607  0.1140
 1119YOPC   C2B15924  14.517   7.049   6.968  0.4956 -0.0638  0.0314
 1119YOPC   D3B15925  14.545   6.781   7.197 -0.2704  0.1773  0.2214
 1119YOPC   C4B15926  14.880   6.580   7.407 -0.1607  0.1002 -0.0969
 1120YOPC   NC315927   8.475  15.631   5.519  0.0110  0.1891  0.0492
 1120YOPC   PO415928   8.973  15.730   5.450  0.0022 -0.4264  0.2320
 1120YOPC   GL115929   8.793  15.901   5.799 -0.1962  0.1321 -0.0870
 1120YOPC   GL215930   8.928  16.163   5.857 -0.1298 -0.0306  0.0360
 1120YOPC   C1A15931   8.572  15.791   6.155 -0.0153  0.1039 -0.2656
 1120YOPC   D2A15932   8.337  15.722   6.478  0.2721 -0.0187  0.4166
 1120YOPC   C3A15933   8.142  15.535   6.719 -0.3199 -0.0306  0.1873
 1120YOPC   C4A15934   8.210  15.279   7.048 -0.0244 -0.1366 -0.0885
 1120YOPC   C1B15935   8.673  16.298   6.122 -0.3059  0.0476  0.0841
 1120YOPC   C2B15936   8.368  16.622   6.087  0.1409 -0.1552 -0.1151
 1120YOPC   D3B15937   8.234  16.994   6.144  0.0687  0.1446  0.4496
 1120YOPC   C4B15938   8.207  17.371   6.264  0.2857  0.0472  0.2298
 1121YOPC   NC315939  15.449  16.837   5.289  0.0812 -0.2872 -0.1493
 1121YOPC   PO415940  15.819  16.963   5.229 -0.0012  0.0425 -0.0176
 1121YOPC   GL115941  16.026  17.109   5.660  0.4534 -0.1223 -0.0349
 1121YOPC   GL215942  16.007  17.407   5.575 -0.1562 -0.0537 -0.0205
 1121YOPC   C1A15943  16.146  17.016   6.135 -0.2492  0.3843 -0.0370
 1121YOPC   D2A15944  16.024  17.067   6.571 -0.0949  0.0668  0.1275
 1121YOPC   C3A15945  15.552  16.993   6.673 -0.0434 -0.1706  0.3802
 1121YOPC   C4A15946  15.191  17.102   6.809  0.2610 -0.3433  0.3001
 1121YOPC   C1B15947  15.995  17.483   5.986 -0.0578 -0.0811  0.1134
 1121YOPC   C2B15948  16.282  17.730   6.242  0.0821 -0.0476 -0.0365
 1121YOPC   D3B15949  16.399  17.790   6.703 -0.0945  0.4588  0.3244
 1121YOPC   C4B15950  16.510  18.170   6.957  0.3491 -0.1798 -0.2327
 1122YOPC   NC315951   1.386   7.421   5.097 -0.3716 -0.4804  0.1728
 1122YOPC   PO415952   1.813   7.561   5.044 -0.0073 -0.2016 -0.0237
 1122YOPC   GL115953   1.772   7.749   5.444 -0.0865 -0.0333 -0.0159
 1122YOPC   GL215954   1.908   8.064   5.488  0.2823  0.2840  0.0954
 1122YOPC   C1A15955   1.780   7.486   5.807  0.1248 -0.2809  0.2001
 1122YOPC   D2A15956   1.510   7.230   5.868 -0.2257  0.1013 -0.0625
 1122YOPC   C3A15957   1.669   7.196   6.266  0.0885  0.0265  0.1854
 1122YOPC   C4A15958   1.595   7.067   6.786 -0.0713 -0.3243 -0.1120
 1122YOPC   C1B15959   1.958   8.459   5.863  0.1754 -0.1633  0.0627
 1122YOPC   C2B15960   1.745   8.491   6.252 -0.1478  0.2291  0.0715
 1122YOPC   D3B15961   1.726   8.925   6.458 -0.1534 -0.1634 -0.1800
 1122YOPC   C4B15962   1.858   9.294   6.722 -0.2092 -0.0154 -0.1067
 1123YOPC   NC315963   0.625   2.468   4.968  0.1253  0.0345  0.0533
 1123YOPC   PO415964   0.233   2.150   5.053  0.3693  0.4609  0.3170
 1123YOPC   GL115965   0.274   2.103   5.490  0.4796  0.2735 -0.0489
 1123YOPC   GL215966   0.559   1.899   5.453 -0.1199  0.1410  0.0178
 1123YOPC   C1A15967   0.272   1.970   5.927  0.0589  0.2893  0.1409
 1123YOPC   D2A15968   0.448   2.113   6.294 -0.3401  0.0584 -0.0876
 1123YOPC   C3A15969   0.098   2.332   6.542  0.2702 -0.1006 -0.2918
 1123YOPC   C4A15970  -0.228   2.572   6.416 -0.0598 -0.0162  0.0717
 1123YOPC   C1B15971   0.968   1.786   5.599  0.1077  0.0628 -0.0361
 1123YOPC   C2B15972   1.111   1.935   6.036  0.1135  0.0194  0.1338
 1123YOPC   D3B15973   1.361   2.173   6.279  0.1583  0.1174 -0.3840
 1123YOPC   C4B15974   1.222   2.445   6.563  0.0277 -0.0741  0.4132
 1124YOPC   NC315975  13.343   8.348   4.875  0.0586 -0.2229 -0.1641
 1124YOPC   PO415976  12.845   8.368   4.879 -0.1576  0.4268  0.0424
 1124YOPC   GL115977  12.899   8.476   5.309 -0.4599 -0.6422  0.1672
 1124YOPC   GL215978  13.028   8.814   5.251 -0.2336 -0.1493  0.0962
 1124YOPC   C1A15979  12.965   8.271   5.632 -0.1023 -0.1963  0.0598
 1124YOPC   D2A15980  13.262   8.373   5.998 -0.1774  0.1353 -0.0408
 1124YOPC   C3A15981  13.173   8.410   6.478  0.2747 -0.0451 -0.0792
 1124YOPC   C4A15982  13.303   8.481   6.918 -0.0176 -0.0897  0.3128
 1124YOPC   C1B15983  13.017   8.835   5.659  0.0379 -0.0825  0.1395
 1124YOPC   C2B15984  13.022   8.794   6.140 -0.2032  0.0246  0.0455
 1124YOPC   D3B15985  13.067   8.902   6.580 -0.3282  0.1528 -0.2311
 1124YOPC   C4B15986  12.712   8.891   6.802  0.0937  0.2705 -0.1444
 1125YOPC   NC315987  19.333   6.811   5.144  0.2057  0.2175  0.0262
 1125YOPC   PO415988  19.234   6.359   5.021 -0.1138  0.0021  0.0966
 1125YOPC   GL115989  19.193   6.425   5.516 -0.2578  0.2198 -0.2859
 1125YOPC   GL215990  19.524   6.637   5.627 -0.0266 -0.1498 -0.0171
 1125YOPC   C1A15991  19.236   6.274   6.038 -0.0268  0.2304  0.1632
 1125YOPC   D2A15992  19.188   5.871   6.140  0.1860  0.0199  0.0676
 1125YOPC   C3A15993  18.827   5.596   6.331 -0.1511  0.0008 -0.2797
 1125YOPC   C4A15994  18.708   5.621   6.747 -0.2507 -0.0159 -0.0484
 1125YOPC   C1B15995  19.880   6.822   5.770 -0.2589 -0.0595 -0.1999
 1125YOPC   C2B15996  20.314   6.904   5.915  0.1693 -0.1430 -0.0741
 1125YOPC   D3B15997  20.618   7.231   5.966 -0.4157 -0.3000 -0.0947
 1125YOPC   C4B15998  20.674   7.424   6.464  0.0454  0.2048 -0.5015
 1126YOPC   NC315999   0.770   0.636   4.883  0.1654 -0.1391  0.1687
 1126YOPC   PO416000   1.107   0.363   4.984 -0.1178 -0.1977 -0.0645
 1126YOPC   GL116001   1.126   0.665   5.263  0.0071  0.2076 -0.1284
 1126YOPC   GL216002   1.185   0.847   5.450 -0.1240 -0.1247  0.0543
 1126YOPC   C1A16003   1.011   0.482   5.699 -0.0069 -0.0462 -0.2015
 1126YOPC   D2A16004   0.983   0.316   6.098  0.1390  0.1931 -0.0222
 1126YOPC   C3A16005   1.184  -0.060   5.929  0.0631 -0.3061  0.1134
 1126YOPC   C4A16006   1.647  -0.214   5.891 -0.1178  0.0282 -0.0250
 1126YOPC   C1B16007   1.434   0.845   5.890  0.1135  0.1919 -0.3932
 1126YOPC   C2B16008   1.803   1.043   6.211  0.0880  0.1907 -0.0273
 1126YOPC   D3B16009   2.183   1.046   6.092 -0.1962  0.2432 -0.2849
 1126YOPC   C4B16010   2.317   0.651   5.896  0.1827  0.2365  0.1467
 1127YOPC   NC316011   5.512   6.800   5.345  0.1675 -0.0484 -0.3305
 1127YOPC   PO416012   5.849   7.145   5.289  0.0183  0.0119  0.1162
 1127YOPC   GL116013   5.723   7.487   5.453 -0.2551  0.2170  0.1712
 1127YOPC   GL216014   5.878   7.757   5.273  0.0649  0.0932 -0.2131
 1127YOPC   C1A16015   5.551   7.644   5.910 -0.1410 -0.2437 -0.1710
 1127YOPC   D2A16016   5.583   7.800   6.324  0.2415  0.0643 -0.0483
 1127YOPC   C3A16017   5.921   7.964   6.600 -0.1154  0.0682 -0.0154
 1127YOPC   C4A16018   5.950   8.030   7.029 -0.2066 -0.3205 -0.2176
 1127YOPC   C1B16019   5.623   7.960   5.471 -0.1215  0.0860 -0.0421
 1127YOPC   C2B16020   5.244   8.212   5.526 -0.0696  0.1242 -0.0777
 1127YOPC   D3B16021   5.145   8.548   5.878 -0.0113  0.0450  0.0286
 1127YOPC   C4B16022   5.520   8.701   5.931  0.0231 -0.0746  0.2736
 1128YOPC   NC316023  18.425  16.732   5.510  0.0712  0.1688 -0.0887
 1128YOPC   PO416024  18.452  16.269   5.548 -0.0271 -0.2862 -0.1592
 1128YOPC   GL116025  18.678  16.031   5.953  0.0550 -0.1480  0.2618
 1128YOPC   GL216026  18.971  15.862   5.786 -0.0234  0.2167 -0.0236
 1128YOPC   C1A16027  18.962  16.195   6.214 -0.0545  0.1817 -0.3730
 1128YOPC   D2A16028  19.150  16.290   6.647 -0.1196  0.2272  0.0515
 1128YOPC   C3A16029  19.060  16.599   6.913  0.3057 -0.1575 -0.0341
 1128YOPC   C4A16030  19.217  16.722   7.325 -0.0409 -0.2965  0.0692
 1128YOPC   C1B16031  19.199  15.673   6.178  0.2408 -0.2516  0.0672
 1128YOPC   C2B16032  19.061  15.319   6.411 -0.0730 -0.0830 -0.0035
 1128YOPC   D3B16033  19.238  15.269   6.885 -0.1217  0.2607  0.2228
 1128YOPC   C4B16034  19.383  15.038   7.170 -0.3281 -0.4153  0.1319
 1129YOPC   NC316035   9.374   7.643   4.981  0.0288  0.2044 -0.2536
 1129YOPC   PO416036   9.746   7.752   5.070 -0.3462 -0.1866  0.2925
 1129YOPC   GL116037   9.528   7.630   5.439 -0.2359 -0.3204 -0.2740
 1129YOPC   GL216038   9.793   7.416   5.573 -0.2441  0.0800  0.3266
 1129YOPC   C1A16039   9.286   7.707   5.806 -0.0917 -0.0444 -0.1055
 1129YOPC   D2A16040   8.920   7.852   6.003 -0.0808  0.0476 -0.0704
 1129YOPC   C3A16041   8.953   7.792   6.534  0.3730  0.0201 -0.1857
 1129YOPC   C4A16042   9.123   7.535   6.802  0.1891 -0.1486 -0.2490
 1129YOPC   C1B16043  10.227   7.344   5.753 -0.3697  0.1376 -0.2425
 1129YOPC   C2B16044  10.494   7.471   6.163 -0.3382  0.1165  0.3282
 1129YOPC   D3B16045  10.470   7.080   6.513  0.2316 -0.0903 -0.2238
 1129YOPC   C4B16046  10.371   6.855   6.844  0.0457  0.2801  0.0158
 1130YOPC   NC316047   9.834  12.042   5.604  0.2036 -0.3254  0.1862
 1130YOPC   PO416048   9.661  12.446   5.657 -0.0408 -0.5740  0.0458
 1130YOPC   GL116049   9.450  12.071   6.019  0.0897 -0.1247  0.0940
 1130YOPC   GL216050   9.745  11.984   6.166 -0.0312  0.0910  0.1047
 1130YOPC   C1A16051   9.145  11.824   6.275  0.3444 -0.0324  0.0495
 1130YOPC   D2A16052   8.964  11.682   6.600 -0.2686 -0.0633 -0.2180
 1130YOPC   C3A16053   9.345  11.728   6.918 -0.0856 -0.1529 -0.0441
 1130YOPC   C4A16054   9.347  11.844   7.290 -0.1444  0.1376 -0.0431
 1130YOPC   C1B16055   9.831  11.890   6.568  0.1711  0.1934  0.1723
 1130YOPC   C2B16056   9.999  11.534   6.790 -0.2343 -0.0804 -0.3142
 1130YOPC   D3B16057   9.755  11.436   7.052 -0.1063  0.0832 -0.1292
 1130YOPC   C4B16058   9.741  11.069   7.338 -0.1661 -0.1469 -0.1477
 1131YOPC   NC316059   0.895   4.837   4.827  0.0913 -0.3276 -0.0627
 1131YOPC   PO416060   0.575   5.098   4.733 -0.2344 -0.4441 -0.2812
 1131YOPC   GL116061   0.768   5.054   5.239  0.2094 -0.0488  0.3401
 1131YOPC   GL216062   0.816   4.747   5.296 -0.2640 -0.0885 -0.0584
 1131YOPC   C1A16063   0.616   5.362   5.568  0.3696  0.1871 -0.0998
 1131YOPC   D2A16064   0.504   5.290   6.024  0.0844  0.2720  0.0955
 1131YOPC   C3A16065   0.405   5.603   6.335  0.0414 -0.0830  0.1198
 1131YOPC   C4A16066   0.032   5.833   6.407  0.0197 -0.1383 -0.2248
 1131YOPC   C1B16067   0.778   4.833   5.722 -0.2886 -0.1308  0.2905
 1131YOPC   C2B16068   0.777   4.771   6.179  0.1246  0.3245  0.0562
 1131YOPC   D3B16069   0.400   5.028   6.391  0.0918  0.0723 -0.2207
 1131YOPC   C4B16070   0.171   5.319   6.744  0.1545  0.1769  0.2042
 1132YOPC   NC316071   3.541   9.793   5.184 -0.1429 -0.1824  0.2865
 1132YOPC   PO416072   3.816  10.140   5.376 -0.0412 -0.1392  0.1647
 1132YOPC   GL116073   3.924  10.054   5.731  0.1969  0.0591  0.2432
 1132YOPC   GL216074   4.042   9.739   5.684 -0.0845 -0.1917  0.0129
 1132YOPC   C1A16075   3.980  10.120   6.061 -0.3472  0.0940  0.1405
 1132YOPC   D2A16076   3.941   9.951   6.481 -0.4018 -0.2707 -0.1237
 1132YOPC   C3A16077   3.903  10.144   6.849 -0.0584  0.2726  0.0916
 1132YOPC   C4A16078   4.019  10.525   7.168 -0.3047  0.3064  0.1126
 1132YOPC   C1B16079   4.041   9.623   6.094  0.3155 -0.1822 -0.3927
 1132YOPC   C2B16080   4.282   9.563   6.389 -0.2123 -0.0409 -0.1833
 1132YOPC   D3B16081   4.402   9.356   6.716  0.1212  0.0905  0.4578
 1132YOPC   C4B16082   4.717   9.394   6.986 -0.0246  0.1798  0.0235
 1133YOPC   NC316083  10.033   9.714   5.074  0.2448  0.0332  0.0392
 1133YOPC   PO416084   9.602   9.605   4.922  0.1723  0.2238  0.0679
 1133YOPC   GL116085   9.593   9.598   5.333  0.1602  0.2323  0.0360
 1133YOPC   GL216086   9.949   9.661   5.540 -0.0511  0.2059  0.2118
 1133YOPC   C1A16087   9.525   9.826   5.751 -0.1816 -0.0198 -0.2244
 1133YOPC   D2A16088   9.731  10.137   6.027  0.2113 -0.0626 -0.2678
 1133YOPC   C3A16089   9.931  10.193   6.516 -0.3905 -0.0635  0.4858
 1133YOPC   C4A16090   9.864  10.198   6.904 -0.0858 -0.0237 -0.1221
 1133YOPC   C1B16091  10.053   9.790   5.850 -0.0200  0.0390  0.0215
 1133YOPC   C2B16092  10.255  10.193   6.125 -0.0654  0.0182  0.0400
 1133YOPC   D3B16093  10.402  10.223   6.573 -0.0112 -0.2544 -0.1280
 1133YOPC   C4B16094  10.777  10.085   6.732 -0.1194  0.1855  0.2909
 1134YOPC   NC316095  16.905  14.787   5.326  0.2663  0.2281 -0.1524
 1134YOPC   PO416096  16.818  14.317   5.406 -0.1042 -0.0627 -0.0532
 1134YOPC   GL116097  16.596  14.508   5.686 -0.1713 -0.1615 -0.0054
 1134YOPC   GL216098  16.399  14.764   5.556  0.3321  0.0418  0.1133
 1134YOPC   C1A16099  16.699  14.296   6.121 -0.0998 -0.7186  0.1739
 1134YOPC   D2A16100  16.422  14.171   6.435 -0.3715  0.2342 -0.2287
 1134YOPC   C3A16101  16.202  13.808   6.571 -0.2764 -0.0497 -0.2604
 1134YOPC   C4A16102  16.076  13.377   6.476  0.0330  0.2311 -0.0318
 1134YOPC   C1B16103  16.051  14.868   5.814 -0.3841  0.0450  0.0403
 1134YOPC   C2B16104  16.039  15.093   6.268 -0.3641 -0.0172  0.0898
 1134YOPC   D3B16105  16.401  15.177   6.587 -0.0219 -0.4829  0.1285
 1134YOPC   C4B16106  16.944  15.293   6.635 -0.0185  0.0313  0.3632
 1135YOPC   NC316107  12.407  10.748   5.496 -0.2011  0.0389  0.0576
 1135YOPC   PO416108  12.746  11.097   5.633  0.1462  0.2999 -0.0473
 1135YOPC   GL116109  12.700  11.139   6.045 -0.0243  0.1310 -0.2308
 1135YOPC   GL216110  12.533  11.353   6.097 -0.3704  0.0858 -0.0142
 1135YOPC   C1A16111  12.583  11.047   6.515  0.0280 -0.3171  0.3040
 1135YOPC   D2A16112  12.264  10.892   6.615 -0.1771 -0.3336 -0.0286
 1135YOPC   C3A16113  11.973  10.668   6.970  0.2094 -0.2301  0.2636
 1135YOPC   C4A16114  11.526  10.684   6.959  0.0811 -0.4073  0.3553
 1135YOPC   C1B16115  12.621  11.752   6.211 -0.1547 -0.2146  0.2218
 1135YOPC   C2B16116  12.883  11.813   6.468  0.1032  0.0183 -0.0551
 1135YOPC   D3B16117  12.884  11.887   6.864  0.1284 -0.1297 -0.0924
 1135YOPC   C4B16118  12.901  12.076   7.286  0.2460 -0.0805  0.2134
 1136YOPC   NC316119   9.665  13.732   5.419  0.1760  0.0369 -0.0178
 1136YOPC   PO416120   9.814  13.414   5.581 -0.0576 -0.2497  0.0385
 1136YOPC   GL116121   9.939  13.138   5.983 -0.1013 -0.0297 -0.3408
 1136YOPC   GL216122   9.914  12.839   6.030  0.0037  0.1822 -0.0049
 1136YOPC   C1A16123   9.769  13.332   6.443 -0.0630  0.0803 -0.0228
 1136YOPC   D2A16124   9.591  13.195   6.864  0.2219 -0.0515 -0.0619
 1136YOPC   C3A16125   9.601  12.710   6.875 -0.0094  0.1265 -0.0247
 1136YOPC   C4A16126   9.503  12.214   6.902  0.1968  0.2775 -0.0814
 1136YOPC   C1B16127   9.741  12.861   6.378 -0.2326  0.1544  0.1123
 1136YOPC   C2B16128   9.319  12.895   6.540  0.0251 -0.1527  0.0974
 1136YOPC   D3B16129   9.081  13.046   6.890 -0.2188  0.2135  0.0530
 1136YOPC   C4B16130   9.114  12.888   7.304  0.0782 -0.3341 -0.0765
 1137YOPC   NC316131   2.440  15.594   5.429 -0.2486 -0.1517  0.2024
 1137YOPC   PO416132   2.849  15.888   5.237 -0.2732 -0.1557 -0.3075
 1137YOPC   GL116133   2.850  15.829   5.656  0.1937  0.1924 -0.3723
 1137YOPC   GL216134   2.613  15.842   5.865 -0.0801  0.0845 -0.0005
 1137YOPC   C1A16135   3.092  15.474   5.917  0.1582 -0.0247  0.2842
 1137YOPC   D2A16136   3.007  15.156   6.072  0.1873 -0.0265  0.1226
 1137YOPC   C3A16137   2.818  15.204   6.393  0.2849  0.2490 -0.0119
 1137YOPC   C4A16138   2.758  15.186   6.833 -0.0710 -0.0169  0.2191
 1137YOPC   C1B16139   2.570  15.427   6.016  0.3898 -0.0552 -0.0751
 1137YOPC   C2B16140   2.541  14.984   5.924  0.2412  0.1236  0.1406
 1137YOPC   D3B16141   2.699  14.700   6.174 -0.1278 -0.0524 -0.2028
 1137YOPC   C4B16142   2.868  14.734   6.544 -0.0003  0.1391  0.1369
 1138YOPC   NC316143   4.708  13.944   5.017  0.4521 -0.0958 -0.1525
 1138YOPC   PO416144   4.345  13.634   5.140  0.1138  0.1579 -0.2439
 1138YOPC   GL116145   4.438  13.593   5.513  0.1496 -0.1252 -0.1498
 1138YOPC   GL216146   4.350  13.426   5.784 -0.0628  0.1336  0.1125
 1138YOPC   C1A16147   4.517  13.932   5.811  0.1773 -0.0251  0.1523
 1138YOPC   D2A16148   4.676  14.286   6.085  0.2940  0.3783  0.0004
 1138YOPC   C3A16149   4.964  14.136   6.341 -0.2085 -0.1190  0.0251
 1138YOPC   C4A16150   5.016  13.779   6.587 -0.3856  0.0850  0.0061
 1138YOPC   C1B16151   4.283  13.168   6.130  0.2605  0.2197  0.0810
 1138YOPC   C2B16152   4.325  12.895   6.529 -0.1409 -0.0643  0.2652
 1138YOPC   D3B16153   4.232  13.299   6.867 -0.2704  0.2507  0.2120
 1138YOPC   C4B16154   4.452  13.454   7.304 -0.1408  0.0406 -0.2758
 1139YOPC   NC316155  14.411   1.200   4.716  0.0879 -0.0818 -0.2254
 1139YOPC   PO416156  14.774   1.033   4.851 -0.1959 -0.0002 -0.2137
 1139YOPC   GL116157  14.700   0.986   5.322  0.0588  0.0508 -0.1946
 1139YOPC   GL216158  14.697   0.691   5.245  0.0685 -0.2649  0.0147
 1139YOPC   C1A16159  14.455   0.963   5.654  0.3271 -0.0130  0.1413
 1139YOPC   D2A16160  14.503   0.805   6.075 -0.2918  0.2049  0.0672
 1139YOPC   C3A16161  14.813   0.661   6.156 -0.1430  0.1126  0.1906
 1139YOPC   C4A16162  15.144   0.994   6.456 -0.0616 -0.1305  0.0296
 1139YOPC   C1B16163  14.874   0.628   5.661 -0.1886 -0.0914  0.3441
 1139YOPC   C2B16164  15.108   0.171   5.877 -0.0379 -0.2672  0.4066
 1139YOPC   D3B16165  15.085  -0.285   6.006 -0.4786  0.1456  0.2233
 1139YOPC   C4B16166  14.717  -0.494   6.133 -0.2390  0.1215 -0.6584
 1140YOPC   NC316167   5.792   3.074   5.033  0.1921 -0.2215 -0.2507
 1140YOPC   PO416168   5.650   2.756   4.791  0.1192  0.1177  0.3041
 1140YOPC   GL116169   5.838   2.427   5.144  0.1741  0.2432 -0.1469
 1140YOPC   GL216170   5.990   2.115   5.005 -0.2385 -0.1935 -0.0675
 1140YOPC   C1A16171   5.840   2.231   5.636  0.1416 -0.2045 -0.3754
 1140YOPC   D2A16172   5.962   2.384   6.060  0.1915  0.0468 -0.0508
 1140YOPC   C3A16173   6.025   2.757   6.059  0.3027  0.3026 -0.3152
 1140YOPC   C4A16174   5.692   3.120   5.816 -0.0404  0.0719  0.1847
 1140YOPC   C1B16175   6.283   2.068   5.413 -0.0036  0.2951 -0.2747
 1140YOPC   C2B16176   6.374   2.152   5.864 -0.0190  0.0526 -0.0022
 1140YOPC   D3B16177   6.755   2.253   6.182 -0.0426 -0.0115  0.0745
 1140YOPC   C4B16178   6.713   2.049   6.653  0.1291 -0.1258  0.1665
 1141YOPC   NC316179   5.314   6.879   4.915 -0.1615 -0.0753  0.1493
 1141YOPC   PO416180   4.998   6.767   5.248  0.2256  0.0038 -0.0323
 1141YOPC   GL116181   5.072   6.429   5.511  0.0951 -0.1215 -0.0550
 1141YOPC   GL216182   5.353   6.478   5.654  0.0670 -0.2114  0.2636
 1141YOPC   C1A16183   4.866   6.193   5.943 -0.1872 -0.2994 -0.2084
 1141YOPC   D2A16184   4.542   6.207   6.127 -0.2192 -0.0228  0.2270
 1141YOPC   C3A16185   4.570   6.480   6.575  0.0674 -0.3084 -0.3647
 1141YOPC   C4A16186   4.587   6.806   6.812 -0.2793 -0.2099 -0.2726
 1141YOPC   C1B16187   5.490   6.370   6.108 -0.4214 -0.2038  0.1016
 1141YOPC   C2B16188   5.606   6.184   6.481 -0.2967  0.0370  0.1043
 1141YOPC   D3B16189   6.044   5.921   6.488  0.1436  0.2244 -0.1772
 1141YOPC   C4B16190   6.349   5.589   6.494 -0.0978 -0.0452 -0.1001
 1142YOPC   NC316191  10.895  10.538   4.571  0.0731  0.1008  0.0344
 1142YOPC   PO416192  11.012  10.415   4.996 -0.1691  0.0103 -0.0239
 1142YOPC   GL116193  11.097  10.038   5.214 -0.0009 -0.0688  0.1992
 1142YOPC   GL216194  11.081  10.250   5.454  0.1593  0.2119  0.2180
 1142YOPC   C1A16195  10.802   9.785   5.555  0.1439  0.2302 -0.0860
 1142YOPC   D2A16196  10.886   9.362   5.711  0.0962 -0.2654 -0.0046
 1142YOPC   C3A16197  10.885   9.376   6.134  0.0390 -0.1348  0.5358
 1142YOPC   C4A16198  10.959   9.092   6.372  0.0936 -0.2126 -0.0177
 1142YOPC   C1B16199  11.149  10.106   5.880  0.2230  0.1330 -0.2139
 1142YOPC   C2B16200  11.058  10.217   6.349  0.0251  0.3378  0.2029
 1142YOPC   D3B16201  11.302  10.291   6.723 -0.1027  0.2484 -0.0203
 1142YOPC   C4B16202  11.761  10.243   6.759  0.1751  0.2776 -0.1863
 1143ERGO   ROH16203  18.893   9.969   5.589 -0.3707 -0.0249 -0.0967
 1143ERGO    R116204  18.783  10.030   5.843 -0.0559 -0.0160  0.0421
 1143ERGO    R216205  18.940  10.084   6.064  0.2224  0.0850 -0.1734
 1143ERGO    R316206  18.791  10.311   6.074  0.1512  0.0321 -0.0215
 1143ERGO    R416207  18.885  10.270   6.349 -0.0465 -0.2587  0.0075
 1143ERGO    R516208  18.678  10.298   6.286 -0.0065 -0.2450 -0.1176
 1143ERGO    C116209  18.714  10.592   6.526 -0.2699 -0.5084  0.2552
 1143ERGO    C216210  18.819  10.877   6.688 -0.0816  0.1662  0.1025
 1144ERGO   ROH16211   5.585   3.258   8.672  0.2126 -0.1805  0.1073
 1144ERGO    R116212   5.737   3.343   8.450 -0.0620 -0.0142 -0.0214
 1144ERGO    R216213   5.895   3.171   8.302  0.1760  0.1927 -0.0117
 1144ERGO    R316214   5.751   3.268   8.094 -0.1214 -0.1777  0.0097
 1144ERGO    R416215   6.004   3.179   7.974  0.1259  0.5055 -0.0250
 1144ERGO    R516216   5.913   3.376   7.954 -0.4166  0.2778 -0.0041
 1144ERGO    C116217   5.931   3.274   7.587 -0.1825  0.3400 -0.0125
 1144ERGO    C216218   5.953   3.268   7.296  0.0967 -0.3435 -0.1288
 1145ERGO   ROH16219  13.314   5.370   8.997 -0.2095  0.0274 -0.0120
 1145ERGO    R116220  13.256   5.228   8.759 -0.2758  0.0803 -0.0281
 1145ERGO    R216221  13.288   5.338   8.508 -0.1042  0.0524 -0.0219
 1145ERGO    R316222  13.440   5.116   8.466 -0.2947 -0.0888  0.0240
 1145ERGO    R416223  13.420   5.244   8.203  0.1786  0.1101  0.0795
 1145ERGO    R516224  13.371   5.037   8.251 -0.1129  0.1307 -0.1175
 1145ERGO    C116225  13.639   4.981   7.985  0.1644  0.0111  0.1817
 1145ERGO    C216226  13.799   5.006   7.726 -0.2146  0.1926  0.0158
 1146ERGO   ROH16227   4.423   4.695   9.107 -0.2681  0.0902 -0.0153
 1146ERGO    R116228   4.380   4.863   8.884 -0.1709  0.0834 -0.0394
 1146ERGO    R216229   4.578   4.918   8.699 -0.1572 -0.1099 -0.0830
 1146ERGO    R316230   4.392   4.830   8.522 -0.2588  0.0061 -0.0358
 1146ERGO    R416231   4.621   4.910   8.356 -0.0514 -0.5909 -0.0650
 1146ERGO    R516232   4.415   4.977   8.334  0.0672 -0.2479 -0.2075
 1146ERGO    C116233   4.472   4.822   7.990 -0.0853 -0.7619 -0.0103
 1146ERGO    C216234   4.678   4.650   7.786  0.0550 -0.2807  0.6775
 1147ERGO   ROH16235  14.003   4.591   9.117 -0.3232  0.0359  0.1175
 1147ERGO    R116236  14.112   4.475   8.883 -0.0675  0.0206  0.2439
 1147ERGO    R216237  14.036   4.225   8.792 -0.1287  0.1154  0.0640
 1147ERGO    R316238  13.987   4.361   8.561  0.3219  0.2126  0.0135
 1147ERGO    R416239  13.971   4.078   8.486 -0.5091  0.1930  0.1011
 1147ERGO    R516240  14.094   4.230   8.392 -0.0137 -0.1823  0.0753
 1147ERGO    C116241  13.887   4.120   8.092 -0.3074  0.3293  0.0752
 1147ERGO    C216242  13.792   4.205   7.778 -0.0512  0.0080 -0.3863
 1148ERGO   ROH16243   5.036   3.845   5.203  0.2205  0.0117 -0.0134
 1148ERGO    R116244   5.067   3.794   5.480  0.1664  0.1162  0.0115
 1148ERGO    R216245   4.918   3.925   5.673 -0.0313  0.0256 -0.0834
 1148ERGO    R316246   4.856   3.672   5.750  0.1821 -0.0138 -0.0319
 1148ERGO    R416247   4.850   3.829   5.997 -0.4440  0.1532 -0.1259
 1148ERGO    R516248   4.964   3.647   5.963 -0.1279  0.2749  0.1750
 1148ERGO    C116249   4.752   3.535   6.260 -0.4840  0.1904 -0.1023
 1148ERGO    C216250   4.504   3.472   6.526  0.1116 -0.0645 -0.3000
 1149ERGO   ROH16251  13.495  14.369   9.333 -0.0712 -0.1689  0.2092
 1149ERGO    R116252  13.527  14.216   9.097  0.0186 -0.1812  0.2281
 1149ERGO    R216253  13.313  14.112   8.956  0.0729 -0.2840  0.2101
 1149ERGO    R316254  13.428  14.244   8.748  0.0470 -0.2543  0.2157
 1149ERGO    R416255  13.262  14.037   8.623 -0.2247 -0.0133  0.1911
 1149ERGO    R516256  13.474  14.073   8.587 -0.2212 -0.1865  0.0674
 1149ERGO    C116257  13.339  14.118   8.233 -0.4224  0.1723  0.1854
 1149ERGO    C216258  13.220  14.090   7.925 -0.0736 -0.0015 -0.0557
 1150ERGO   ROH16259   2.471   5.941   5.399  0.2619  0.2959 -0.0437
 1150ERGO    R116260   2.535   5.875   5.667  0.0986  0.1105 -0.0489
 1150ERGO    R216261   2.767   5.960   5.790  0.0048  0.0556  0.1615
 1150ERGO    R316262   2.595   6.057   5.977 -0.1260 -0.1065  0.1280
 1150ERGO    R416263   2.858   6.070   6.105 -0.1062  0.4008  0.0781
 1150ERGO    R516264   2.679   5.974   6.185  0.0546  0.1533  0.1683
 1150ERGO    C116265   2.749   6.224   6.464 -0.2936  0.4497 -0.0018
 1150ERGO    C216266   2.750   6.478   6.639  0.3380 -0.0924  0.1404
 1151ERGO   ROH16267   0.676  16.978   5.487  0.0085 -0.1882 -0.0306
 1151ERGO    R116268   0.437  16.994   5.638  0.0213 -0.1729 -0.0126
 1151ERGO    R216269   0.392  16.840   5.863  0.1195 -0.0136  0.1159
 1151ERGO    R316270   0.346  17.081   5.980  0.0268  0.0597 -0.0677
 1151ERGO    R416271   0.179  16.892   6.130  0.0448  0.1168  0.0316
 1151ERGO    R516272   0.113  17.077   6.034  0.0138  0.0327 -0.1175
 1151ERGO    C116273   0.010  17.150   6.394 -0.0858  0.2616 -0.1898
 1151ERGO    C216274  -0.125  16.971   6.647  0.2484 -0.2915  0.0190
 1152ERGO   ROH16275   1.255   6.899   8.882  0.0860 -0.0470  0.0725
 1152ERGO    R116276   1.153   6.789   8.641  0.1652 -0.1374  0.0800
 1152ERGO    R216277   1.005   6.937   8.461 -0.0683 -0.2930  0.1416
 1152ERGO    R316278   1.193   6.851   8.285  0.0009 -0.0267  0.0792
 1152ERGO    R416279   0.957   6.908   8.120 -0.0911 -0.2187  0.1379
 1152ERGO    R516280   1.070   6.721   8.126  0.1132 -0.1031  0.0516
 1152ERGO    C116281   1.106   6.809   7.756 -0.0395  0.0745  0.0772
 1152ERGO    C216282   1.177   7.060   7.520 -0.0810 -0.0672  0.0569
 1153ERGO   ROH16283  17.752  10.576   8.739 -0.1512  0.0276 -0.0510
 1153ERGO    R116284  17.672  10.469   8.490  0.0464 -0.0114 -0.1004
 1153ERGO    R216285  17.522  10.612   8.307 -0.0933 -0.1502 -0.1017
 1153ERGO    R316286  17.725  10.548   8.138  0.0373  0.1506 -0.0654
 1153ERGO    R416287  17.492  10.585   7.964  0.0465 -0.0708 -0.1205
 1153ERGO    R516288  17.622  10.410   7.972  0.2544  0.0825 -0.1437
 1153ERGO    C116289  17.665  10.508   7.606  0.2503  0.2578 -0.0973
 1153ERGO    C216290  17.696  10.415   7.237 -0.2530 -0.1249  0.3002
 1154ERGO   ROH16291  14.372   7.381   8.993  0.0394 -0.2715  0.1635
 1154ERGO    R116292  14.463   7.547   8.783 -0.0722 -0.0930  0.2538
 1154ERGO    R216293  14.607   7.449   8.568  0.1217  0.1447  0.2736
 1154ERGO    R316294  14.411   7.570   8.423  0.0344 -0.0304  0.2416
 1154ERGO    R416295  14.651   7.591   8.256  0.0332  0.1278  0.2530
 1154ERGO    R516296  14.521   7.755   8.317 -0.0998  0.0394  0.2187
 1154ERGO    C116297  14.493   7.787   7.938 -0.1002 -0.0465  0.2110
 1154ERGO    C216298  14.567   7.740   7.646 -0.0001 -0.1344  0.1372
 1155ERGO   ROH16299  12.592  10.340   9.147 -0.1509 -0.1480 -0.0698
 1155ERGO    R116300  12.549  10.139   8.951  0.1339 -0.1433 -0.1402
 1155ERGO    R216301  12.499  10.199   8.686  0.0117 -0.1184 -0.1090
 1155ERGO    R316302  12.710  10.033   8.642  0.2656  0.2172 -0.2018
 1155ERGO    R416303  12.611  10.102   8.374 -0.2200 -0.2311 -0.1602
 1155ERGO    R516304  12.643   9.901   8.454  0.2505 -0.1039  0.0175
 1155ERGO    C116305  12.875   9.890   8.151 -0.1166  0.0185 -0.2771
 1155ERGO    C216306  12.850   9.792   7.839  0.1639  0.1244  0.0353
 1156ERGO   ROH16307  19.598  10.867   8.399 -0.1276  0.1800  0.0770
 1156ERGO    R116308  19.581  10.974   8.138  0.0152 -0.0396 -0.0240
 1156ERGO    R216309  19.537  10.816   7.915 -0.1389 -0.1964  0.1200
 1156ERGO    R316310  19.331  10.988   7.873  0.0537 -0.0019 -0.0604
 1156ERGO    R416311  19.444  10.940   7.606  0.0246 -0.4009 -0.0143
 1156ERGO    R516312  19.410  11.134   7.701  0.2355 -0.2604 -0.2066
 1156ERGO    C116313  19.197  11.174   7.387  0.3006 -0.3375 -0.2621
 1156ERGO    C216314  19.074  11.179   7.073  0.0321 -0.1341  0.1019
 1157ERGO   ROH16315  12.905  12.582   6.096  0.0501  0.0810 -0.1354
 1157ERGO    R116316  12.997  12.394   6.287  0.0343  0.0084 -0.1981
 1157ERGO    R216317  13.257  12.301   6.292  0.0638  0.0895 -0.1448
 1157ERGO    R316318  13.248  12.386   6.550 -0.0667 -0.0487 -0.1026
 1157ERGO    R416319  13.428  12.154   6.554 -0.0278 -0.0189 -0.1451
 1157ERGO    R516320  13.252  12.184   6.679 -0.0893 -0.1166 -0.2073
 1157ERGO    C116321  13.520  12.149   6.949 -0.2037 -0.2116 -0.1057
 1157ERGO    C216322  13.919  12.242   7.111 -0.2510  0.0920  0.0277
 1158ERGO   ROH16323  18.430  15.576   6.088  0.1457 -0.2228 -0.0869
 1158ERGO    R116324  18.346  15.491   6.344 -0.0128 -0.1160 -0.1021
 1158ERGO    R216325  18.519  15.467   6.558 -0.1027 -0.2374 -0.0406
 1158ERGO    R316326  18.340  15.631   6.680 -0.0033 -0.0652 -0.1230
 1158ERGO    R416327  18.547  15.582   6.882 -0.2041 -0.3726  0.0167
 1158ERGO    R516328  18.333  15.552   6.906 -0.2613 -0.1297 -0.1514
 1158ERGO    C116329  18.395  15.804   7.186 -0.1696 -0.2896 -0.0272
 1158ERGO    C216330  18.369  16.096   7.342  0.0198 -0.4187  0.2988
 1159ERGO   ROH16331  15.577   1.728   5.895 -0.3876 -0.1493 -0.0494
 1159ERGO    R116332  15.621   1.595   6.141 -0.2106  0.0355  0.0211
 1159ERGO    R216333  15.567   1.713   6.385 -0.4097  0.0791 -0.0420
 1159ERGO    R316334  15.419   1.488   6.423 -0.0811 -0.1298  0.0526
 1159ERGO    R416335  15.503   1.567   6.692 -0.3597  0.2289  0.0410
 1159ERGO    R516336  15.530   1.372   6.600  0.0028  0.1889  0.2168
 1159ERGO    C116337  15.326   1.271   6.906 -0.0223  0.1201  0.1782
 1159ERGO    C216338  15.274   1.109   7.308 -0.0638  0.1120  0.5051
 1160ERGO   ROH16339   1.520   4.220   5.359 -0.2389 -0.3656  0.0338
 1160ERGO    R116340   1.407   4.130   5.602 -0.3726  0.0018  0.1136
 1160ERGO    R216341   1.530   3.944   5.765 -0.7755 -0.2728  0.1183
 1160ERGO    R316342   1.499   4.135   5.954 -0.2031 -0.1161  0.0733
 1160ERGO    R416343   1.539   3.888   6.105 -0.8302 -0.2110  0.1292
 1160ERGO    R516344   1.374   4.028   6.128 -0.4591  0.2593  0.1388
 1160ERGO    C116345   1.514   4.035   6.482 -0.3247 -0.0279  0.0932
 1160ERGO    C216346   1.682   3.951   6.763 -0.1868  0.1785 -0.2345
 1161ERGO   ROH16347  14.120   9.787   5.940  0.0374 -0.3145 -0.0697
 1161ERGO    R116348  14.070   9.654   6.184  0.0084 -0.0968  0.0466
 1161ERGO    R216349  13.974   9.784   6.408 -0.0538  0.0999 -0.0865
 1161ERGO    R316350  13.781   9.592   6.398 -0.0251  0.0645  0.0466
 1161ERGO    R416351  13.797   9.669   6.681  0.1427  0.0695  0.0291
 1161ERGO    R516352  13.813   9.467   6.600  0.1260  0.0748  0.0263
 1161ERGO    C116353  13.513   9.421   6.831  0.2839  0.0186  0.2213
 1161ERGO    C216354  13.358   9.249   7.031 -0.0310  0.2050  0.1146
 1162ERGO   ROH16355   5.328   1.447   5.039  0.2801 -0.0775  0.0261
 1162ERGO    R116356   5.403   1.348   5.294 -0.1565  0.0564  0.2170
 1162ERGO    R216357   5.220   1.244   5.473 -0.4248 -0.2793 -0.2250
 1162ERGO    R316358   5.387   1.030   5.469 -0.0111  0.0184  0.1598
 1162ERGO    R416359   5.214   0.984   5.701 -0.3954 -0.2337 -0.1724
 1162ERGO    R516360   5.432   0.985   5.700 -0.3830  0.1640  0.2647
 1162ERGO    C116361   5.368   0.632   5.829  0.0102  0.0723  0.2196
 1162ERGO    C216362   5.383   0.426   6.164 -0.0448  0.3300  0.0101
 1163ERGO   ROH16363   2.733   6.335   5.390  0.0116  0.0361 -0.0778
 1163ERGO    R116364   2.731   6.357   5.673  0.0069  0.0271 -0.0771
 1163ERGO    R216365   2.962   6.378   5.822  0.0111 -0.1121 -0.0618
 1163ERGO    R316366   2.840   6.601   5.920  0.1330 -0.0444 -0.0619
 1163ERGO    R416367   3.063   6.553   6.103  0.0502 -0.2201 -0.0081
 1163ERGO    R516368   2.854   6.577   6.157  0.0519 -0.0885 -0.0620
 1163ERGO    C116369   3.008   6.863   6.358  0.1873 -0.2194  0.0231
 1163ERGO    C216370   3.192   6.883   6.593  0.1648  0.2030  0.1538
 1164ERGO   ROH16371  12.617  10.634   5.936 -0.0371 -0.0618 -0.2076
 1164ERGO    R116372  12.410  10.699   6.118  0.0629  0.0241 -0.1234
 1164ERGO    R216373  12.160  10.782   6.036 -0.0055 -0.0843 -0.0262
 1164ERGO    R316374  12.076  10.577   6.194  0.1323  0.0087  0.1716
 1164ERGO    R416375  11.844  10.756   6.173 -0.0255 -0.2128 -0.0954
 1164ERGO    R516376  11.935  10.683   6.357 -0.0103  0.0667  0.0162
 1164ERGO    C116377  11.580  10.549   6.401  0.0923 -0.2004  0.0499
 1164ERGO    C216378  11.214  10.671   6.481  0.0044  0.0185 -0.0188
 1165ERGO   ROH16379  16.908   2.218   5.608  0.0060  0.1408 -0.2507
 1165ERGO    R116380  16.986   2.297   5.868  0.0075  0.1029 -0.2394
 1165ERGO    R216381  17.091   2.546   5.923 -0.1213  0.1467 -0.1793
 1165ERGO    R316382  16.891   2.555   6.106 -0.0963 -0.0241 -0.1427
 1165ERGO    R416383  17.033   2.809   6.140 -0.0740 -0.0722  0.1037
 1165ERGO    R516384  16.988   2.664   6.296 -0.0659 -0.2288 -0.0408
 1165ERGO    C116385  16.811   2.969   6.439 -0.0231 -0.3600  0.3028
 1165ERGO    C216386  16.721   3.177   6.701 -0.1968 -0.1323  0.3224
 1166ERGO   ROH16387   0.204   7.171   9.037  0.2907 -0.1105 -0.0732
 1166ERGO    R116388   0.041   7.142   8.807  0.2050 -0.1640 -0.0057
 1166ERGO    R216389  -0.026   7.355   8.644  0.0951 -0.1930  0.0050
 1166ERGO    R316390   0.077   7.196   8.449  0.0491 -0.1858 -0.0261
 1166ERGO    R416391  -0.057   7.415   8.305 -0.0696 -0.2272  0.0127
 1166ERGO    R516392  -0.089   7.201   8.276 -0.0309 -0.2403  0.0456
 1166ERGO    C116393   0.021   7.300   7.924 -0.2085 -0.2404 -0.0120
 1166ERGO    C216394   0.047   7.246   7.604 -0.0457  0.1759 -0.0008
 1167ERGO   ROH16395  16.776   0.579   8.896  0.0208 -0.2268 -0.0267
 1167ERGO    R116396  16.755   0.754   8.673 -0.1882 -0.1051  0.0870
 1167ERGO    R216397  16.915   0.729   8.449 -0.2675  0.1377  0.0099
 1167ERGO    R316398  16.677   0.723   8.319 -0.3149  0.0632  0.0968
 1167ERGO    R416399  16.869   0.813   8.117 -0.3528 -0.1293 -0.0491
 1167ERGO    R516400  16.683   0.912   8.174 -0.3266 -0.0504 -0.0651
 1167ERGO    C116401  16.618   0.856   7.802 -0.4468 -0.3546 -0.0019
 1167ERGO    C216402  16.799   0.836   7.599  0.2390  0.3669 -0.2504
 1168ERGO   ROH16403   6.246  10.144   8.781  0.2038 -0.2226 -0.1331
 1168ERGO    R116404   6.118  10.319   8.599  0.0119 -0.2501 -0.0281
 1168ERGO    R216405   6.251  10.435   8.386 -0.1120  0.0264  0.0404
 1168ERGO    R316406   6.050  10.324   8.241  0.0092 -0.1098 -0.0256
 1168ERGO    R416407   6.179  10.513   8.058 -0.1478  0.0823  0.0614
 1168ERGO    R516408   5.967  10.505   8.107 -0.1465 -0.1376  0.0336
 1168ERGO    C116409   5.948  10.454   7.729 -0.0549 -0.0129  0.0117
 1168ERGO    C216410   5.963  10.487   7.413  0.3463  0.0895  0.3589
 1169ERGO   ROH16411   2.229  14.224   5.939  0.0474 -0.0078 -0.0644
 1169ERGO    R116412   2.367  14.114   6.161  0.1242  0.0827 -0.0665
 1169ERGO    R216413   2.609  14.213   6.251 -0.0016  0.3253  0.0089
 1169ERGO    R316414   2.477  14.230   6.488 -0.0688  0.1171 -0.0121
 1169ERGO    R416415   2.746  14.138   6.559 -0.0499  0.1688 -0.0070
 1169ERGO    R516416   2.558  14.043   6.614 -0.0305  0.0603 -0.1176
 1169ERGO    C116417   2.702  14.109   6.961 -0.1411 -0.1180 -0.0359
 1169ERGO    C216418   2.725  14.004   7.283  0.1193 -0.0487  0.1100
 1170ERGO   ROH16419   0.236   3.986   5.581  0.0031  0.0737 -0.0196
 1170ERGO    R116420   0.079   4.133   5.765 -0.1032 -0.0053 -0.0453
 1170ERGO    R216421  -0.154   4.033   5.875 -0.0156 -0.1687  0.0009
 1170ERGO    R316422  -0.031   4.092   6.110 -0.0412 -0.0068 -0.0266
 1170ERGO    R416423  -0.317   4.112   6.170 -0.0531 -0.3690  0.0347
 1170ERGO    R516424  -0.166   4.265   6.206 -0.2396 -0.1764 -0.0005
 1170ERGO    C116425  -0.295   4.214   6.561 -0.0992 -0.3335  0.0286
 1170ERGO    C216426  -0.226   4.427   6.924 -0.1076 -0.0348 -0.1916
 1171ERGO   ROH16427   5.498   7.203   6.428  0.0116 -0.0300  0.2519
 1171ERGO    R116428   5.264   7.361   6.449 -0.0730 -0.1596  0.2804
 1171ERGO    R216429   5.147   7.421   6.692  0.1672  0.1177  0.3261
 1171ERGO    R316430   5.172   7.677   6.604 -0.1130  0.0150 -0.0849
 1171ERGO    R416431   4.984   7.694   6.828  0.4816  0.2540  0.4414
 1171ERGO    R516432   4.952   7.770   6.626 -0.0906 -0.0096  0.4048
 1171ERGO    C116433   4.912   8.093   6.824  0.4015  0.2370  0.1227
 1171ERGO    C216434   4.754   8.416   6.851  0.3129  0.0114 -0.1908
 1172ERGO   ROH16435  14.690  12.794   5.918 -0.0301  0.0838  0.0833
 1172ERGO    R116436  14.811  12.910   6.147 -0.0836 -0.0891  0.2011
 1172ERGO    R216437  14.769  13.173   6.220  0.1780 -0.0402  0.1878
 1172ERGO    R316438  14.698  13.061   6.458 -0.1705  0.0203  0.1167
 1172ERGO    R416439  14.741  13.344   6.519  0.0966 -0.0318  0.1754
 1172ERGO    R516440  14.833  13.174   6.620 -0.1891 -0.1464  0.2502
 1172ERGO    C116441  14.657  13.339   6.916 -0.2781  0.0299  0.1015
 1172ERGO    C216442  14.422  13.496   7.095 -0.0589  0.0871  0.0297
 1173ERGO   ROH16443   4.379   3.857   5.241 -0.0816 -0.2883 -0.1637
 1173ERGO    R116444   4.434   3.703   5.472  0.0829 -0.1871 -0.1332
 1173ERGO    R216445   4.458   3.815   5.723  0.0196 -0.1043 -0.1629
 1173ERGO    R316446   4.268   3.632   5.788  0.1842 -0.2554 -0.0950
 1173ERGO    R416447   4.325   3.773   6.039 -0.0611  0.0040 -0.1820
 1173ERGO    R516448   4.330   3.558   6.007  0.1782 -0.0189 -0.0106
 1173ERGO    C116449   4.068   3.578   6.284  0.0466 -0.0747 -0.1294
 1173ERGO    C216450   4.013   3.693   6.546 -0.0339  0.0901  0.1523
 1174ERGO   ROH16451  11.178  13.537   9.594 -0.0784  0.1282  0.0410
 1174ERGO    R116452  11.241  13.464   9.328 -0.0365  0.0373  0.0757
 1174ERGO    R216453  11.105  13.267   9.191 -0.1942  0.1808  0.0314
 1174ERGO    R316454  11.071  13.463   9.006  0.1100  0.2036 -0.0062
 1174ERGO    R416455  11.030  13.213   8.858  0.1009  0.2113 -0.0423
 1174ERGO    R516456  11.169  13.374   8.806  0.2585  0.1323  0.0902
 1174ERGO    C116457  10.955  13.365   8.491  0.5585  0.2506 -0.1205
 1174ERGO    C216458  10.880  13.371   8.161 -0.0283  0.1306  0.1065
 1175ERGO   ROH16459   4.216  14.305   5.733 -0.0110  0.3004  0.0171
 1175ERGO    R116460   4.096  14.358   5.984 -0.0300  0.1500  0.0396
 1175ERGO    R216461   4.070  14.166   6.181  0.1274  0.0836 -0.0093
 1175ERGO    R316462   4.198  14.351   6.333  0.0018  0.1397  0.0312
 1175ERGO    R416463   4.092  14.157   6.526  0.2237 -0.0409 -0.0170
 1175ERGO    R516464   4.061  14.373   6.528  0.0286 -0.0647  0.0780
 1175ERGO    C116465   4.225  14.325   6.869  0.1618 -0.0610  0.0164
 1175ERGO    C216466   4.323  14.210   7.149 -0.2578  0.2263 -0.0178
 1176ERGO   ROH16467  18.750   6.521   5.922 -0.0787 -0.1807  0.1235
 1176ERGO    R116468  18.863   6.613   6.164 -0.1162 -0.2703  0.1748
 1176ERGO    R216469  18.809   6.863   6.268  0.1379 -0.1743  0.0782
 1176ERGO    R316470  18.740   6.721   6.489 -0.1901 -0.0355  0.0712
 1176ERGO    R416471  18.842   6.976   6.593  0.1520 -0.1670  0.0749
 1176ERGO    R516472  18.909   6.776   6.651 -0.1795 -0.2654  0.1437
 1176ERGO    C116473  18.795   6.908   6.990 -0.1477 -0.0325  0.0664
 1176ERGO    C216474  18.871   7.101   7.220 -0.0180 -0.0406 -0.0194
 1177ERGO   ROH16475   5.276  15.644   5.906  0.0334  0.1728  0.0377
 1177ERGO    R116476   5.049  15.633   6.076  0.0425 -0.1298  0.0353
 1177ERGO    R216477   5.019  15.440   6.271  0.3227 -0.1434  0.0699
 1177ERGO    R316478   4.986  15.656   6.433  0.0031 -0.1587  0.0299
 1177ERGO    R416479   4.832  15.442   6.562  0.2166 -0.3268  0.0043
 1177ERGO    R516480   4.759  15.639   6.508 -0.0054 -0.4224 -0.0476
 1177ERGO    C116481   4.692  15.645   6.883 -0.1451 -0.4479 -0.0715
 1177ERGO    C216482   4.526  15.541   7.136 -0.0437 -0.1691 -0.2467
 1178ERGO   ROH16483  11.919  17.297   9.220 -0.1361 -0.1517  0.0244
 1178ERGO    R116484  12.011  17.200   8.970 -0.2505 -0.3371  0.0514
 1178ERGO    R216485  11.844  17.079   8.786 -0.4711  0.0976 -0.0495
 1178ERGO    R316486  11.945  17.269   8.619  0.0756 -0.1045  0.0315
 1178ERGO    R416487  11.766  17.109   8.451 -0.2538  0.3674 -0.0801
 1178ERGO    R516488  11.975  17.154   8.411 -0.1134 -0.1386  0.0230
 1178ERGO    C116489  11.814  17.304   8.099  0.3858  0.3348 -0.0220
 1178ERGO    C216490  11.812  17.239   7.747 -0.2594 -0.3076  0.2430
 1179ERGO   ROH16491  16.471   3.856   8.863 -0.0006 -0.1062  0.0505
 1179ERGO    R116492  16.368   3.929   8.609  0.1765 -0.0658 -0.0116
 1179ERGO    R216493  16.526   3.942   8.383  0.2851 -0.2870  0.0457
 1179ERGO    R316494  16.339   3.774   8.281  0.1517 -0.1230  0.0184
 1179ERGO    R416495  16.512   3.838   8.053  0.2755 -0.3222  0.0578
 1179ERGO    R516496  16.295   3.859   8.062  0.2934 -0.1141 -0.0053
 1179ERGO    C116497  16.327   3.619   7.766  0.1449 -0.1888  0.0393
 1179ERGO    C216498  16.369   3.593   7.403  0.0200 -0.4937  0.2399
 1180ERGO   ROH16499   6.051  11.733   5.693 -0.3197 -0.1059 -0.0910
 1180ERGO    R116500   5.933  11.822   5.935 -0.1531 -0.1824  0.0207
 1180ERGO    R216501   5.971  11.692   6.175  0.3103 -0.0541  0.0283
 1180ERGO    R316502   6.050  11.938   6.259  0.0845  0.0848 -0.1569
 1180ERGO    R416503   5.946  11.808   6.500  0.2112  0.1724 -0.0589
 1180ERGO    R516504   5.885  12.002   6.420  0.0306  0.0570 -0.2036
 1180ERGO    C116505   6.005  12.108   6.767 -0.0584  0.4347 -0.2836
 1180ERGO    C216506   6.045  12.035   7.131 -0.3365  0.0033 -0.0483
 1181ERGO   ROH16507   0.109  15.649   9.293 -0.3221  0.1436  0.1634
 1181ERGO    R116508   0.038  15.590   9.025  0.0404  0.1871  0.0515
 1181ERGO    R216509  -0.225  15.571   8.941  0.1418 -0.2497 -0.2108
 1181ERGO    R316510  -0.146  15.755   8.758 -0.0188  0.0284 -0.0054
 1181ERGO    R416511  -0.363  15.610   8.627  0.3300 -0.2381 -0.2927
 1181ERGO    R516512  -0.164  15.643   8.548  0.3419  0.1612 -0.1094
 1181ERGO    C116513  -0.370  15.807   8.272  0.2890  0.0299 -0.1476
 1181ERGO    C216514  -0.516  16.003   8.067  0.2073  0.1116  0.0089
 1182ERGO   ROH16515   9.031   1.646   5.854  0.0050  0.0152  0.0777
 1182ERGO    R116516   9.008   1.461   6.068  0.0893  0.0786  0.1415
 1182ERGO    R216517   8.857   1.512   6.293  0.0350  0.0714  0.1043
 1182ERGO    R316518   8.741   1.275   6.229  0.1804 -0.0217  0.1789
 1182ERGO    R416519   8.642   1.336   6.498 -0.2255  0.2410 -0.0163
 1182ERGO    R516520   8.740   1.152   6.435 -0.0873  0.1911  0.3135
 1182ERGO    C116521   8.408   1.010   6.558 -0.2410  0.2523 -0.0166
 1182ERGO    C216522   8.341   0.910   6.935  0.0640  0.0195  0.4334
 1183ERGO   ROH16523   2.648   3.785   8.651  0.2572 -0.3764 -0.1226
 1183ERGO    R116524   2.648   3.968   8.435 -0.0982 -0.2833 -0.0502
 1183ERGO    R216525   2.864   3.999   8.266 -0.1255  0.2454 -0.0061
 1183ERGO    R316526   2.680   3.949   8.073  0.0012 -0.0767 -0.0544
 1183ERGO    R416527   2.914   4.049   7.928 -0.0848  0.2067 -0.0057
 1183ERGO    R516528   2.710   4.125   7.914 -0.1941 -0.0798 -0.0992
 1183ERGO    C116529   2.770   4.031   7.549  0.0578 -0.1182 -0.0509
 1183ERGO    C216530   2.958   4.070   7.263 -0.1041  0.0542 -0.1151
 1184ERGO   ROH16531  11.339  12.650   5.946  0.0370  0.0979 -0.1368
 1184ERGO    R116532  11.183  12.532   6.150  0.4576  0.0165  0.1529
 1184ERGO    R216533  11.232  12.575   6.419  0.5156  0.5912  0.0754
 1184ERGO    R316534  10.970  12.648   6.421  0.3148 -0.0726  0.0748
 1184ERGO    R416535  11.052  12.654   6.703  0.4402  0.6238  0.0166
 1184ERGO    R516536  10.882  12.546   6.619  0.6699  0.0408  0.2875
 1184ERGO    C116537  10.701  12.769   6.870  0.2077  0.0195 -0.0183
 1184ERGO    C216538  10.478  12.750   7.051 -0.0480  0.0919  0.0901
 1185ERGO   ROH16539  14.510  12.456   9.362 -0.0716  0.0249  0.0975
 1185ERGO    R116540  14.513  12.384   9.089 -0.0514 -0.1704  0.1466
 1185ERGO    R216541  14.303  12.252   8.968 -0.1584 -0.0300  0.1620
 1185ERGO    R316542  14.315  12.460   8.793  0.1341 -0.1572  0.0269
 1185ERGO    R416543  14.232  12.229   8.630 -0.2684 -0.1223  0.1916
 1185ERGO    R516544  14.401  12.362   8.591 -0.0666 -0.4168  0.0680
 1185ERGO    C116545  14.202  12.411   8.269 -0.0577 -0.2955  0.0820
 1185ERGO    C216546  14.088  12.478   7.971  0.1338 -0.2084 -0.1085
 1186ERGO   ROH16547  17.325  12.814   5.447 -0.1412 -0.1596  0.0598
 1186ERGO    R116548  17.461  12.878   5.687 -0.1105 -0.1069  0.0286
 1186ERGO    R216549  17.367  13.067   5.864 -0.0812 -0.0572 -0.0072
 1186ERGO    R316550  17.389  12.863   6.043 -0.0714 -0.0153  0.0399
 1186ERGO    R416551  17.372  13.106   6.208 -0.2787  0.0007 -0.0093
 1186ERGO    R516552  17.527  12.952   6.218 -0.2072  0.0814  0.0977
 1186ERGO    C116553  17.396  12.938   6.576 -0.3846  0.0739  0.0336
 1186ERGO    C216554  17.459  12.897   6.968 -0.0763  0.0718  0.0197
 1187ERGO   ROH16555   0.192   8.687   5.853  0.1857 -0.0133 -0.0531
 1187ERGO    R116556   0.294   8.864   6.048  0.1029  0.1483 -0.1549
 1187ERGO    R216557   0.285   9.139   6.019 -0.2944  0.1367 -0.1812
 1187ERGO    R316558   0.162   9.128   6.261 -0.0887 -0.0066 -0.0789
 1187ERGO    R416559   0.309   9.382   6.264 -0.2536  0.0928 -0.1409
 1187ERGO    R516560   0.320   9.223   6.413 -0.0236  0.0616 -0.1867
 1187ERGO    C116561   0.207   9.513   6.634 -0.0368 -0.0672 -0.0214
 1187ERGO    C216562   0.366   9.796   6.835  0.0912  0.3905  0.0853
 1188ERGO   ROH16563   5.430   8.972   9.073 -0.1587 -0.2082  0.0191
 1188ERGO    R116564   5.413   9.084   8.813 -0.0510 -0.1107  0.0530
 1188ERGO    R216565   5.304   8.947   8.599 -0.1136  0.0307 -0.0089
 1188ERGO    R316566   5.149   9.169   8.578  0.0347  0.1408  0.0456
 1188ERGO    R416567   5.243   9.119   8.305 -0.1014  0.0697  0.0121
 1188ERGO    R516568   5.261   9.306   8.417  0.0710  0.0593  0.0026
 1188ERGO    C116569   5.061   9.428   8.116  0.0449  0.1956  0.0754
 1188ERGO    C216570   4.983   9.438   7.755  0.0780  0.1471  0.0931
 1189ERGO   ROH16571   2.805  13.914   9.284 -0.0014 -0.0861  0.1735
 1189ERGO    R116572   2.991  13.832   9.086 -0.0459 -0.0848  0.1320
 1189ERGO    R216573   2.912  13.727   8.843 -0.0995  0.0433  0.0966
 1189ERGO    R316574   3.070  13.925   8.743 -0.0238  0.0143  0.1638
 1189ERGO    R416575   2.989  13.768   8.508  0.1626 -0.0502  0.1429
 1189ERGO    R516576   3.193  13.819   8.567  0.1153 -0.0331  0.2885
 1189ERGO    C116577   3.182  13.977   8.220  0.3863 -0.1317  0.2329
 1189ERGO    C216578   3.282  13.956   7.947  0.0177  0.2544 -0.0925
 1190ERGO   ROH16579  11.399   2.521   8.441 -0.0925  0.0706 -0.0071
 1190ERGO    R116580  11.410   2.591   8.167  0.1380  0.0081 -0.0168
 1190ERGO    R216581  11.519   2.425   7.974 -0.0476 -0.2069  0.0559
 1190ERGO    R316582  11.277   2.460   7.855  0.0522  0.1664 -0.0479
 1190ERGO    R416583  11.463   2.420   7.633  0.0479 -0.4682  0.0424
 1190ERGO    R516584  11.325   2.586   7.658  0.3783 -0.1448 -0.1792
 1190ERGO    C116585  11.203   2.451   7.323  0.1971 -0.2699 -0.0629
 1190ERGO    C216586  11.247   2.266   7.051 -0.2981  0.0301  0.0810
 1191ERGO   ROH16587  16.733   7.921   9.225  0.3787  0.0573 -0.1600
 1191ERGO    R116588  16.520   8.010   9.061  0.2298 -0.1986 -0.1135
 1191ERGO    R216589  16.528   8.251   8.925 -0.1703 -0.0910  0.0325
 1191ERGO    R316590  16.475   8.094   8.710  0.1091 -0.0570 -0.0645
 1191ERGO    R416591  16.375   8.359   8.635 -0.2999 -0.1699  0.0718
 1191ERGO    R516592  16.263   8.172   8.630 -0.0054 -0.3468 -0.0502
 1191ERGO    C116593  16.235   8.275   8.264 -0.1134 -0.1839  0.0037
 1191ERGO    C216594  16.283   8.474   7.920  0.0907  0.0282  0.3348
 1192ERGO   ROH16595   8.377   7.757   5.765  0.0424  0.0830  0.0346
 1192ERGO    R116596   8.325   7.572   5.974 -0.3506  0.0968 -0.0447
 1192ERGO    R216597   8.484   7.554   6.198 -0.3304 -0.3943 -0.0979
 1192ERGO    R316598   8.248   7.588   6.329 -0.2237  0.1074 -0.0146
 1192ERGO    R416599   8.450   7.570   6.542 -0.1695 -0.4459 -0.0777
 1192ERGO    R516600   8.268   7.451   6.524 -0.4712 -0.0281 -0.0721
 1192ERGO    C116601   8.208   7.613   6.865  0.0243 -0.0050  0.0124
 1192ERGO    C216602   8.058   7.825   7.110  0.0766  0.2438 -0.3723
 1193ERGO   ROH16603  15.039  12.467   5.813  0.1133  0.1120 -0.1831
 1193ERGO    R116604  15.156  12.434   6.068 -0.0255  0.0715 -0.1238
 1193ERGO    R216605  15.361  12.254   6.116  0.0168  0.1368 -0.0653
 1193ERGO    R316606  15.488  12.473   6.214 -0.1261  0.1537  0.0882
 1193ERGO    R416607  15.666  12.250   6.278  0.1040  0.2397 -0.2242
 1193ERGO    R516608  15.589  12.398   6.417  0.0423  0.0360 -0.0351
 1193ERGO    C116609  15.963  12.455   6.464  0.0206  0.3155 -0.1726
 1193ERGO    C216610  16.320  12.387   6.542  0.0425 -0.1079 -0.2449
 1194ERGO   ROH16611   2.668  10.473   5.444  0.2625 -0.0859  0.0211
 1194ERGO    R116612   2.697  10.416   5.720  0.0838  0.3135  0.1297
 1194ERGO    R216613   2.551  10.546   5.914 -0.5123  0.1736 -0.1998
 1194ERGO    R316614   2.483  10.294   5.988  0.0659  0.0598  0.0037
 1194ERGO    R416615   2.461  10.452   6.234 -0.7459  0.3407 -0.2130
 1194ERGO    R516616   2.577  10.268   6.207 -0.1862  0.6002  0.1925
 1194ERGO    C116617   2.345  10.160   6.490 -0.3391  0.3313 -0.0297
 1194ERGO    C216618   2.109  10.099   6.748 -0.0600 -0.0489  0.3340
 1195ERGO   ROH16619   5.163   7.653   5.550 -0.1050  0.0698 -0.0429
 1195ERGO    R116620   5.011   7.764   5.762 -0.0500  0.0754 -0.0064
 1195ERGO    R216621   5.115   7.806   6.014  0.0073  0.0546 -0.0270
 1195ERGO    R316622   5.027   8.060   5.973  0.0224  0.0651  0.0027
 1195ERGO    R416623   5.106   8.054   6.255 -0.2553 -0.0545  0.0807
 1195ERGO    R516624   4.913   8.117   6.176 -0.1848 -0.0391 -0.0809
 1195ERGO    C116625   5.018   8.437   6.355 -0.3940 -0.1081  0.1712
 1195ERGO    C216626   4.964   8.783   6.309  0.1069  0.2322 -0.1326
 1196ERGO   ROH16627  15.765  14.681   9.004  0.0406 -0.1528 -0.0192
 1196ERGO    R116628  15.643  14.757   8.760  0.0170 -0.3279 -0.0642
 1196ERGO    R216629  15.724  14.980   8.617 -0.2964 -0.1619  0.0044
 1196ERGO    R316630  15.748  14.800   8.414  0.1076 -0.1005 -0.0098
 1196ERGO    R416631  15.752  15.061   8.282 -0.0579 -0.0743  0.0441
 1196ERGO    R516632  15.620  14.894   8.235  0.1765 -0.2161 -0.1181
 1196ERGO    C116633  15.791  14.939   7.897  0.4604  0.0344  0.0539
 1196ERGO    C216634  15.823  15.134   7.677 -0.2905  0.1748  0.0048
 1197ERGO   ROH16635   8.479  11.710   5.777 -0.3405 -0.2394  0.0286
 1197ERGO    R116636   8.555  11.511   5.963 -0.0823 -0.2241 -0.0571
 1197ERGO    R216637   8.599  11.567   6.230  0.1403 -0.2288 -0.0871
 1197ERGO    R316638   8.418  11.367   6.268  0.2566 -0.3092  0.0586
 1197ERGO    R416639   8.471  11.471   6.537  0.0371  0.0494 -0.0398
 1197ERGO    R516640   8.486  11.263   6.473  0.2142 -0.0181  0.2215
 1197ERGO    C116641   8.227  11.228   6.751  0.0863  0.1360  0.1243
 1197ERGO    C216642   8.081  11.444   6.933 -0.0901  0.1539 -0.0574
 1198ERGO   ROH16643  11.649   3.388   8.518 -0.1391  0.0895  0.0785
 1198ERGO    R116644  11.712   3.557   8.299 -0.1315  0.0832  0.0759
 1198ERGO    R216645  11.909   3.496   8.116 -0.0767  0.1126  0.1255
 1198ERGO    R316646  11.708   3.532   7.936 -0.0454  0.0472  0.0769
 1198ERGO    R416647  11.956   3.570   7.781 -0.0163  0.0338  0.1162
 1198ERGO    R516648  11.787   3.708   7.794 -0.0341  0.0207  0.0486
 1198ERGO    C116649  11.794   3.647   7.418  0.0483 -0.0735  0.0652
 1198ERGO    C216650  11.898   3.560   7.118 -0.0296 -0.1496  0.1423
 1199ERGO   ROH16651   0.586  18.548   5.437  0.1742  0.0452  0.0156
 1199ERGO    R116652   0.591  18.679   5.688  0.1665 -0.1249  0.1076
 1199ERGO    R216653   0.362  18.776   5.809  0.2076  0.1976 -0.0482
 1199ERGO    R316654   0.447  18.624   6.018 -0.2513 -0.1003 -0.0657
 1199ERGO    R416655   0.242  18.800   6.132  0.1612  0.3984 -0.0798
 1199ERGO    R516656   0.446  18.774   6.205  0.0782 -0.1563 -0.0185
 1199ERGO    C116657   0.252  18.671   6.516 -0.2966  0.2354 -0.1147
 1199ERGO    C216658   0.293  18.548   6.791  0.0996  0.4349  0.1742
 1200ERGO   ROH16659   1.620  12.838   5.486 -0.1556  0.0480 -0.0743
 1200ERGO    R116660   1.631  12.826   5.769 -0.1242  0.1073 -0.0727
 1200ERGO    R216661   1.531  13.027   5.930 -0.2865  0.0508 -0.1009
 1200ERGO    R316662   1.391  12.823   6.043 -0.1025 -0.0514 -0.0548
 1200ERGO    R416663   1.325  13.057   6.206 -0.3426 -0.0636 -0.1300
 1200ERGO    R516664   1.402  12.866   6.278 -0.1657  0.0291 -0.0663
 1200ERGO    C116665   1.074  12.883   6.472 -0.2025 -0.2261 -0.1036
 1200ERGO    C216666   0.888  12.666   6.648 -0.2327  0.1065  0.0656
 1201ERGO   ROH16667  16.480  11.180   5.639  0.0662 -0.1613  0.0421
 1201ERGO    R116668  16.570  11.352   5.846  0.1294 -0.2140  0.0584
 1201ERGO    R216669  16.396  11.496   6.005  0.1887  0.0811 -0.1376
 1201ERGO    R316670  16.531  11.374   6.207 -0.1482 -0.0408  0.0211
 1201ERGO    R416671  16.388  11.595   6.336 -0.0512  0.1249 -0.1541
 1201ERGO    R516672  16.602  11.553   6.349 -0.1041 -0.1000  0.0735
 1201ERGO    C116673  16.510  11.537   6.719 -0.5068  0.0359 -0.0149
 1201ERGO    C216674  16.266  11.639   6.965  0.1628  0.2497  0.1344
 1202ERGO   ROH16675   7.893  13.983   7.246  0.2007  0.0300 -0.2818
 1202ERGO    R116676   7.738  14.159   7.087 -0.0162  0.0718 -0.0312
 1202ERGO    R216677   7.590  14.365   7.196  0.1638  0.0769  0.2206
 1202ERGO    R316678   7.731  14.516   7.019 -0.0734  0.0820  0.0315
 1202ERGO    R416679   7.497  14.680   7.087 -0.0417  0.0307  0.2604
 1202ERGO    R516680   7.563  14.625   6.887 -0.2507  0.0115  0.1961
 1202ERGO    C116681   7.575  15.005   6.858 -0.3840  0.0086  0.1059
 1202ERGO    C216682   7.603  15.424   6.945 -0.2510  0.0292  0.2372
 1203ERGO   ROH16683  18.393  18.490   5.817  0.2106  0.0640  0.1411
 1203ERGO    R116684  18.336  18.322   6.038  0.0273  0.2577  0.2454
 1203ERGO    R216685  18.505  18.120   6.118 -0.3610 -0.1325  0.1267
 1203ERGO    R316686  18.489  18.245   6.359  0.1774 -0.0107  0.1126
 1203ERGO    R416687  18.549  17.965   6.424 -0.4815 -0.1621  0.1296
 1203ERGO    R516688  18.384  18.084   6.502 -0.1155  0.2938  0.2509
 1203ERGO    C116689  18.559  17.993   6.828 -0.0466 -0.0650  0.1180
 1203ERGO    C216690  18.683  17.741   7.034  0.3128 -0.2251 -0.2524
 1204ERGO   ROH16691   7.909   3.863   8.311  0.0984 -0.1997  0.1259
 1204ERGO    R116692   8.045   3.836   8.064  0.1943 -0.0196  0.1588
 1204ERGO    R216693   7.917   3.761   7.831  0.3544 -0.2202  0.1405
 1204ERGO    R316694   8.028   3.990   7.735  0.0485 -0.0646  0.1424
 1204ERGO    R416695   7.995   3.818   7.499  0.2172 -0.0980  0.1276
 1204ERGO    R516696   8.179   3.915   7.564  0.1152  0.1334  0.1050
 1204ERGO    C116697   8.144   4.066   7.216 -0.1499  0.1192  0.1219
 1204ERGO    C216698   8.373   4.062   6.964 -0.4864  0.0373 -0.3218
 1205ERGO   ROH16699   2.717   2.339   8.757 -0.0289 -0.3104 -0.1219
 1205ERGO    R116700   2.702   2.318   8.475 -0.1397 -0.2695 -0.1198
 1205ERGO    R216701   2.481   2.215   8.345 -0.2382 -0.1430 -0.0544
 1205ERGO    R316702   2.491   2.451   8.210 -0.1675 -0.1316 -0.0292
 1205ERGO    R416703   2.514   2.247   8.002 -0.2383 -0.1178 -0.0520
 1205ERGO    R516704   2.650   2.414   8.035 -0.1841 -0.1637 -0.0379
 1205ERGO    C116705   2.542   2.486   7.676 -0.1719 -0.0924 -0.0270
 1205ERGO    C216706   2.470   2.625   7.196 -0.0660  0.2591 -0.0461
 1206ERGO   ROH16707  16.144  18.954   8.867 -0.1574  0.3330  0.0976
 1206ERGO    R116708  15.968  18.985   8.647 -0.2337  0.2918  0.1522
 1206ERGO    R216709  15.925  19.230   8.525 -0.0935  0.2289 -0.0275
 1206ERGO    R316710  15.996  19.094   8.301 -0.3051 -0.0134  0.0477
 1206ERGO    R416711  15.905  19.355   8.204  0.3054  0.1676 -0.0813
 1206ERGO    R516712  15.834  19.160   8.137 -0.1046  0.2921 -0.0364
 1206ERGO    C116713  15.960  19.300   7.806  0.3389 -0.0956 -0.0422
 1206ERGO    C216714  16.128  19.365   7.444  0.2093 -0.1274  0.1935
 1207ERGO   ROH16715  18.309  14.313   5.788  0.0708 -0.2753  0.0073
 1207ERGO    R116716  18.470  14.217   5.999  0.0238 -0.1259  0.1119
 1207ERGO    R216717  18.745  14.248   6.003  0.0188 -0.1174  0.1533
 1207ERGO    R316718  18.697  14.360   6.245 -0.0362  0.0482  0.0682
 1207ERGO    R416719  18.979  14.285   6.255 -0.0537 -0.0113  0.2071
 1207ERGO    R516720  18.826  14.230   6.399 -0.1150  0.1136  0.1940
 1207ERGO    C116721  19.070  14.413   6.629 -0.1479  0.2057  0.1586
 1207ERGO    C216722  19.188  14.743   6.865  0.2613  0.0992  0.2602
 1208ERGO   ROH16723  16.966  14.962   9.363  0.0478 -0.1001 -0.0651
 1208ERGO    R116724  16.807  15.013   9.134 -0.0102 -0.0492 -0.0148
 1208ERGO    R216725  16.906  15.138   8.909 -0.0711  0.0217 -0.0082
 1208ERGO    R316726  16.810  14.917   8.783 -0.0821  0.0459 -0.0403
 1208ERGO    R416727  16.840  15.117   8.571  0.0595  0.0226 -0.0337
 1208ERGO    R516728  16.660  15.003   8.618  0.0113  0.0776 -0.1048
 1208ERGO    C116729  16.711  14.897   8.255  0.1250  0.0459 -0.0787
 1208ERGO    C216730  16.768  14.829   7.840 -0.0075  0.3140  0.0130
 1209ERGO   ROH16731   1.895  18.319   8.620  0.0895 -0.0649 -0.1517
 1209ERGO    R116732   2.037  18.339   8.376  0.1087 -0.1840 -0.1522
 1209ERGO    R216733   2.076  18.123   8.208 -0.1693 -0.1960 -0.2095
 1209ERGO    R316734   1.965  18.289   8.023  0.0302 -0.0069 -0.1625
 1209ERGO    R416735   2.064  18.062   7.868 -0.3886 -0.1725 -0.2064
 1209ERGO    R516736   2.109  18.272   7.833 -0.0601 -0.2373 -0.2140
 1209ERGO    C116737   1.953  18.182   7.497 -0.3290  0.0184 -0.1603
 1209ERGO    C216738   1.923  18.035   7.148  0.0844  0.2427 -0.0578
 1210ERGO   ROH16739   9.058   2.973   5.470  0.2668 -0.1761  0.1725
 1210ERGO    R116740   9.117   3.136   5.694  0.2122 -0.0494  0.0949
 1210ERGO    R216741   8.970   3.362   5.756  0.1839 -0.0279 -0.0559
 1210ERGO    R316742   8.946   3.240   5.998  0.1486  0.1042  0.0086
 1210ERGO    R416743   8.806   3.496   6.029 -0.1143 -0.0001 -0.2445
 1210ERGO    R516744   8.965   3.419   6.156 -0.1169  0.2297 -0.0927
 1210ERGO    C116745   8.687   3.460   6.415 -0.3210  0.1402 -0.2939
 1210ERGO    C216746   8.569   3.705   6.651 -0.1729  0.1107 -0.1965
 1211ERGO   ROH16747  15.331  15.711   5.527 -0.1313 -0.1139 -0.0633
 1211ERGO    R116748  15.325  15.779   5.802 -0.1374 -0.0083 -0.0879
 1211ERGO    R216749  15.323  15.588   6.002 -0.0438  0.0660 -0.0089
 1211ERGO    R316750  15.539  15.726   6.091 -0.0920  0.1902 -0.0854
 1211ERGO    R416751  15.407  15.632   6.334  0.0479  0.1280 -0.0410
 1211ERGO    R516752  15.463  15.837   6.288 -0.0834  0.1537 -0.0656
 1211ERGO    C116753  15.659  15.788   6.611  0.0561  0.2808 -0.1314
 1211ERGO    C216754  15.883  15.913   6.924  0.0488 -0.2384  0.1435
 1212ERGO   ROH16755  11.356  18.325   9.471 -0.2401 -0.1372  0.0849
 1212ERGO    R116756  11.199  18.367   9.239 -0.1382 -0.0492  0.0312
 1212ERGO    R216757  11.223  18.594   9.083  0.0017 -0.0365  0.0708
 1212ERGO    R316758  11.259  18.413   8.883  0.0116 -0.0220  0.0593
 1212ERGO    R416759  11.290  18.674   8.754 -0.1488 -0.0081  0.0462
 1212ERGO    R516760  11.155  18.514   8.692 -0.1001 -0.0683  0.0943
 1212ERGO    C116761  11.363  18.552   8.374 -0.2269  0.0220  0.0212
 1212ERGO    C216762  11.477  18.450   8.057 -0.0646 -0.0598 -0.2139
 1213ERGO   ROH16763   3.027   4.869   8.707  0.0767  0.2273 -0.0169
 1213ERGO    R116764   2.884   4.978   8.488  0.0728  0.1565 -0.0491
 1213ERGO    R216765   3.002   5.147   8.304  0.0820  0.0525 -0.1341
 1213ERGO    R316766   2.907   4.965   8.125  0.0287 -0.0061 -0.0476
 1213ERGO    R416767   2.959   5.204   7.965  0.1457 -0.1057 -0.1706
 1213ERGO    R516768   2.772   5.093   7.975  0.0965 -0.0276 -0.1314
 1213ERGO    C116769   2.846   5.067   7.601  0.1328 -0.2530 -0.1105
 1213ERGO    C216770   2.864   4.983   7.222  0.2378  0.0512  0.2051
 1214ERGO   ROH16771   3.467   8.018   9.092 -0.0999 -0.0842  0.0587
 1214ERGO    R116772   3.541   7.933   8.832 -0.0768 -0.1312  0.0820
 1214ERGO    R216773   3.357   7.899   8.629 -0.0560 -0.1479  0.0683
 1214ERGO    R316774   3.522   8.067   8.494 -0.0253 -0.1829  0.0589
 1214ERGO    R416775   3.393   7.906   8.286 -0.3066  0.0690  0.0419
 1214ERGO    R516776   3.607   7.934   8.314 -0.2633 -0.1210 -0.1011
 1214ERGO    C116777   3.569   8.068   7.959 -0.4238  0.1625  0.0176
 1214ERGO    C216778   3.490   8.036   7.511  0.3007  0.2460 -0.0155
 1215ERGO   ROH16779   4.401   0.373   7.937 -0.4582  0.1389 -0.3085
 1215ERGO    R116780   4.430   0.299   7.665  0.0651  0.0481 -0.2383
 1215ERGO    R216781   4.668   0.202   7.562  0.1721 -0.3698  0.3383
 1215ERGO    R316782   4.511  -0.005   7.482  0.0012 -0.1224  0.0145
 1215ERGO    R416783   4.719   0.013   7.277  0.1029 -0.0897  0.1370
 1215ERGO    R516784   4.504   0.014   7.244  0.1244  0.1630  0.0350
 1215ERGO    C116785   4.600  -0.291   7.036 -0.0979  0.3056 -0.2843
 1215ERGO    C216786   4.519  -0.484   6.775  0.0377  0.1644  0.1349
 1216ERGO   ROH16787  11.663  16.647   5.910 -0.1095 -0.1114  0.1389
 1216ERGO    R116788  11.799  16.641   6.158 -0.1100 -0.1924  0.1373
 1216ERGO    R216789  11.838  16.868   6.311  0.0711 -0.2060  0.1115
 1216ERGO    R316790  11.720  16.718   6.504 -0.0450 -0.0922  0.1307
 1216ERGO    R416791  11.908  16.889   6.649  0.1235 -0.2505  0.1039
 1216ERGO    R516792  11.896  16.672   6.661 -0.0685 -0.2410  0.1160
 1216ERGO    C116793  11.838  16.761   7.027  0.0452 -0.1695  0.1175
 1216ERGO    C216794  11.727  16.780   7.431  0.0044  0.0119 -0.1401
 1217ERGO   ROH16795   3.917   1.387   8.555  0.0767 -0.0240  0.0963
 1217ERGO    R116796   4.037   1.300   8.313  0.1621  0.2185  0.0503
 1217ERGO    R216797   3.917   1.118   8.145  0.4208  0.0516  0.0525
 1217ERGO    R316798   3.956   1.311   7.959  0.0560  0.1518  0.0700
 1217ERGO    R416799   3.860   1.079   7.806  0.5050 -0.0425  0.0474
 1217ERGO    R516800   4.042   1.194   7.769  0.2980  0.3208  0.0638
 1217ERGO    C116801   3.864   1.239   7.434  0.2116 -0.0031  0.0609
 1217ERGO    C216802   3.988   1.253   7.080  0.3580 -0.0991  0.0367
 1218ERGO   ROH16803  12.899  14.961   6.104 -0.0949 -0.1526  0.0414
 1218ERGO    R116804  13.157  14.942   6.218 -0.0982 -0.1245  0.0538
 1218ERGO    R216805  13.237  15.096   6.433 -0.1243 -0.1146  0.0553
 1218ERGO    R316806  13.297  14.855   6.543 -0.1031 -0.1065  0.0612
 1218ERGO    R416807  13.455  15.048   6.697 -0.1438 -0.0804  0.0774
 1218ERGO    R516808  13.530  14.870   6.596 -0.1091 -0.0723  0.0841
 1218ERGO    C116809  13.638  14.793   6.954 -0.1353 -0.0530  0.0959
 1218ERGO    C216810  13.862  14.770   7.124  0.0721  0.0226  0.0957
 1219ERGO   ROH16811  13.427   8.355   5.362  0.1081 -0.1783 -0.0262
 1219ERGO    R116812  13.502   8.235   5.607 -0.0639 -0.0692  0.0839
 1219ERGO    R216813  13.757   8.139   5.653 -0.1370 -0.2065  0.2462
 1219ERGO    R316814  13.744   8.302   5.871 -0.1220 -0.0504  0.1309
 1219ERGO    R416815  13.956   8.110   5.934 -0.1061  0.0165  0.2478
 1219ERGO    R516816  13.782   8.157   6.057 -0.0909  0.0922  0.2331
 1219ERGO    C116817  14.060   8.247   6.302 -0.0742  0.2928  0.1404
 1219ERGO    C216818  14.145   8.249   6.567 -0.4384  0.4102  0.1661
 1220ERGO   ROH16819   3.338   7.943   5.781 -0.2633 -0.0172 -0.0557
 1220ERGO    R116820   3.544   7.831   5.940 -0.0571  0.1833 -0.1779
 1220ERGO    R216821   3.710   7.985   6.098 -0.2850  0.3242 -0.0798
 1220ERGO    R316822   3.626   7.816   6.294  0.0185  0.0233 -0.2002
 1220ERGO    R416823   3.852   7.962   6.412 -0.1307  0.2383 -0.1544
 1220ERGO    R516824   3.829   7.745   6.401  0.1660  0.2054 -0.3435
 1220ERGO    C116825   3.857   7.789   6.779  0.2440 -0.0943 -0.3108
 1220ERGO    C216826   4.034   8.026   6.962  0.1073  0.0201  0.0117
 1221ERGO   ROH16827  14.652   3.214   5.603  0.1078  0.0370  0.1906
 1221ERGO    R116828  14.486   3.053   5.766 -0.0884  0.0796  0.0362
 1221ERGO    R216829  14.565   2.964   6.016 -0.2336 -0.1741 -0.0106
 1221ERGO    R316830  14.332   3.081   6.095 -0.1420 -0.0077  0.0206
 1221ERGO    R416831  14.399   2.896   6.312 -0.2594 -0.1006 -0.0073
 1221ERGO    R516832  14.211   2.906   6.203 -0.2659  0.0590  0.0021
 1221ERGO    C116833  14.085   2.966   6.558 -0.1885  0.0984  0.0239
 1221ERGO    C216834  14.051   3.025   6.941  0.3306 -0.1185 -0.0806
 1222ERGO   ROH16835   4.785   9.938   5.561  0.0624  0.0136  0.0312
 1222ERGO    R116836   4.873   9.915   5.829  0.0266 -0.0151  0.0387
 1222ERGO    R216837   4.724   9.791   6.025  0.0489 -0.1224 -0.0233
 1222ERGO    R316838   4.950   9.645   6.061  0.1040 -0.0380 -0.0099
 1222ERGO    R416839   4.839   9.677   6.331 -0.0184 -0.2012 -0.0253
 1222ERGO    R516840   5.042   9.726   6.267 -0.0091 -0.0793  0.0651
 1222ERGO    C116841   5.118   9.473   6.542 -0.0057 -0.1680 -0.0140
 1222ERGO    C216842   5.138   9.174   6.731  0.1322 -0.0406 -0.1768
 1223ERGO   ROH16843  15.382   7.004   5.878 -0.2128  0.2783  0.0801
 1223ERGO    R116844  15.505   6.914   6.116 -0.1021  0.0540 -0.0587
 1223ERGO    R216845  15.396   6.958   6.366  0.1564  0.0739  0.0553
 1223ERGO    R316846  15.420   6.688   6.388 -0.1094  0.0368 -0.0757
 1223ERGO    R416847  15.362   6.781   6.661  0.3116  0.0007  0.0300
 1223ERGO    R516848  15.530   6.656   6.599  0.1056 -0.1610 -0.2148
 1223ERGO    C116849  15.364   6.425   6.854  0.1525 -0.0768 -0.1076
 1223ERGO    C216850  15.470   6.217   7.198  0.0935 -0.1101  0.1978
 1224ERGO   ROH16851   2.648  12.867   5.368 -0.1884  0.1447 -0.1246
 1224ERGO    R116852   2.617  13.029   5.598  0.0425  0.1798 -0.1139
 1224ERGO    R216853   2.522  12.931   5.838 -0.1364  0.3050 -0.1248
 1224ERGO    R316854   2.752  13.038   5.936  0.0297 -0.0600 -0.1029
 1224ERGO    R416855   2.567  13.038   6.164 -0.1141  0.5652 -0.2120
 1224ERGO    R516856   2.678  13.209   6.087  0.2877  0.2589 -0.3303
 1224ERGO    C116857   2.808  13.200   6.445  0.0548  0.3742 -0.2423
 1224ERGO    C216858   2.871  13.179   6.741  0.2053 -0.0837  0.3596
 1225ERGO   ROH16859   0.427  11.647   8.660  0.0545 -0.0048 -0.1156
 1225ERGO    R116860   0.515  11.725   8.403 -0.1330 -0.0080 -0.1817
 1225ERGO    R216861   0.741  11.620   8.286  0.0250  0.3053 -0.1604
 1225ERGO    R316862   0.571  11.564   8.082  0.0754 -0.1127 -0.0962
 1225ERGO    R416863   0.838  11.579   7.957  0.0283  0.3712 -0.1683
 1225ERGO    R516864   0.659  11.690   7.896 -0.2167 -0.0017 -0.1679
 1225ERGO    C116865   0.736  11.501   7.573  0.0776  0.0172 -0.1127
 1225ERGO    C216866   0.988  11.479   7.271  0.2439 -0.0949  0.2131
 1226ERGO   ROH16867   3.298  11.089   5.710  0.1173  0.0835 -0.0805
 1226ERGO    R116868   3.358  11.159   5.978  0.0622  0.1308 -0.0805
 1226ERGO    R216869   3.305  10.992   6.192  0.0590  0.1492 -0.0654
 1226ERGO    R316870   3.569  11.030   6.245  0.0443  0.2051 -0.0307
 1226ERGO    R416871   3.444  10.997   6.508  0.0683 -0.1429 -0.0627
 1226ERGO    R516872   3.571  11.162   6.444 -0.0060 -0.0160  0.1181
 1226ERGO    C116873   3.773  11.034   6.742  0.0598 -0.2606 -0.0284
 1226ERGO    C216874   3.955  11.067   7.001  0.0362  0.2506 -0.0149
 1227ERGO   ROH16875  18.368   2.201   8.874 -0.0533  0.0728 -0.0945
 1227ERGO    R116876  18.345   2.137   8.599 -0.1600  0.0097 -0.0707
 1227ERGO    R216877  18.107   2.164   8.459 -0.1596  0.1849 -0.0342
 1227ERGO    R316878  18.260   2.315   8.293 -0.0507 -0.0059 -0.1115
 1227ERGO    R416879  18.027   2.242   8.132 -0.1019  0.0648 -0.0786
 1227ERGO    R516880  18.235   2.212   8.078 -0.1169 -0.1068 -0.0589
 1227ERGO    C116881  18.123   2.429   7.786  0.0341 -0.1842 -0.1770
 1227ERGO    C216882  18.158   2.500   7.501  0.1247 -0.3697 -0.0670
 1228ERGO   ROH16883  18.294  19.621   8.814 -0.1918 -0.4175  0.0983
 1228ERGO    R116884  18.213  19.600   8.544 -0.1411 -0.1613  0.0603
 1228ERGO    R216885  18.221  19.814   8.370 -0.0690 -0.0019  0.2494
 1228ERGO    R316886  18.368  19.643   8.217 -0.0660  0.1073  0.1303
 1228ERGO    R416887  18.319  19.876   8.045 -0.0926  0.2083  0.2818
 1228ERGO    R516888  18.276  19.667   7.997 -0.0782  0.2381  0.1518
 1228ERGO    C116889  18.514  19.752   7.712 -0.1032  0.4333  0.1886
 1228ERGO    C216890  18.769  19.755   7.458  0.0486 -0.3161  0.1461
 1229ERGO   ROH16891   4.319   1.089   5.056 -0.0170 -0.0778  0.0207
 1229ERGO    R116892   4.334   1.069   5.338  0.0970  0.0424  0.0240
 1229ERGO    R216893   4.182   0.889   5.482  0.0827  0.1712  0.1709
 1229ERGO    R316894   4.424   0.813   5.580  0.0934  0.1122  0.0998
 1229ERGO    R416895   4.229   0.679   5.753  0.1088  0.2352  0.2163
 1229ERGO    R516896   4.393   0.807   5.817  0.1817  0.1954  0.1147
 1229ERGO    C116897   4.483   0.486   6.002  0.1340  0.2171  0.1760
 1229ERGO    C216898   4.362   0.234   6.316 -0.3342  0.1768 -0.2405
 1230ERGO   ROH16899  15.875   4.860   5.713 -0.2536 -0.0230 -0.0035
 1230ERGO    R116900  16.085   4.828   5.900 -0.1124 -0.1241 -0.1760
 1230ERGO    R216901  16.057   4.891   6.168  0.1829  0.0251 -0.1766
 1230ERGO    R316902  16.140   4.635   6.204 -0.0135 -0.0356 -0.1369
 1230ERGO    R416903  16.126   4.747   6.474  0.0089 -0.0022 -0.1490
 1230ERGO    R516904  16.298   4.649   6.384 -0.0424 -0.1372 -0.1031
 1230ERGO    C116905  16.244   4.423   6.687 -0.2770 -0.0751 -0.0956
 1230ERGO    C216906  16.251   4.375   7.070  0.0108  0.3029  0.0074
 1231ERGO   ROH16907   6.962  14.855   5.928 -0.0006 -0.1688  0.0427
 1231ERGO    R116908   6.840  14.783   6.174  0.0416 -0.1959  0.0560
 1231ERGO    R216909   6.835  14.952   6.392  0.0628 -0.2124  0.0702
 1231ERGO    R316910   6.567  14.907   6.380  0.0642 -0.2303  0.1065
 1231ERGO    R416911   6.618  14.979   6.660  0.0641 -0.0164  0.0528
 1231ERGO    R516912   6.515  14.801   6.588  0.0692 -0.0747  0.1886
 1231ERGO    C116913   6.240  14.953   6.804  0.0662  0.0809  0.0766
 1231ERGO    C216914   5.911  15.130   6.821  0.1652  0.0247  0.0374
 1232ERGO   ROH16915   3.645   7.122   9.289  0.0278 -0.1670  0.0857
 1232ERGO    R116916   3.750   7.031   9.042  0.0654 -0.0437  0.0581
 1232ERGO    R216917   3.595   7.002   8.816  0.0934  0.0074  0.0482
 1232ERGO    R316918   3.784   7.162   8.704  0.0604  0.0904  0.1047
 1232ERGO    R416919   3.672   7.009   8.479  0.2063 -0.0176  0.0717
 1232ERGO    R516920   3.883   7.025   8.534  0.1923  0.0968  0.1591
 1232ERGO    C116921   3.895   7.163   8.178  0.2411  0.0458  0.1385
 1232ERGO    C216922   3.959   7.110   7.867  0.0997 -0.0277 -0.1476
 1233ERGO   ROH16923  13.532  19.268   5.539 -0.1437  0.0033  0.0144
 1233ERGO    R116924  13.689  19.295   5.773 -0.1000  0.1447 -0.0300
 1233ERGO    R216925  13.632  19.479   5.971 -0.2073  0.0986 -0.0169
 1233ERGO    R316926  13.638  19.260   6.131  0.0303  0.1034 -0.0150
 1233ERGO    R416927  13.665  19.487   6.315 -0.1620  0.1327 -0.0217
 1233ERGO    R516928  13.797  19.315   6.301  0.0045  0.2601 -0.0398
 1233ERGO    C116929  13.689  19.286   6.666  0.0873  0.1569 -0.0228
 1233ERGO    C216930  13.517  19.165   6.889 -0.0011  0.0489  0.0757
 1234ERGO   ROH16931  11.127  15.977   6.222 -0.0488 -0.0418 -0.0066
 1234ERGO    R116932  11.189  15.962   6.498 -0.0277 -0.1457 -0.0146
 1234ERGO    R216933  11.037  16.089   6.691  0.0993 -0.0467  0.0334
 1234ERGO    R316934  11.025  15.840   6.799 -0.1024 -0.0611 -0.0236
 1234ERGO    R416935  10.996  16.021   7.027  0.1910 -0.1022  0.0324
 1234ERGO    R516936  11.140  15.859   7.007  0.0129 -0.2398 -0.0764
 1234ERGO    C116937  10.960  15.747   7.324  0.0550 -0.1483 -0.0218
 1234ERGO    C216938  11.063  15.658   7.772  0.2778  0.1378  0.1129
 1235ERGO   ROH16939   7.268  11.455   8.910  0.1881 -0.1898  0.2007
 1235ERGO    R116940   7.381  11.399   8.657  0.1038 -0.1674  0.1581
 1235ERGO    R216941   7.291  11.518   8.424  0.0042 -0.1722  0.1945
 1235ERGO    R316942   7.553  11.588   8.397 -0.0141 -0.1375  0.1012
 1235ERGO    R416943   7.459  11.540   8.123 -0.0667 -0.2941  0.1456
 1235ERGO    R516944   7.632  11.448   8.219 -0.0283 -0.2136  0.1537
 1235ERGO    C116945   7.802  11.617   7.921 -0.1252 -0.3326  0.0295
 1235ERGO    C216946   8.011  11.528   7.612  0.2259 -0.5630 -0.2225
 1236ERGO   ROH16947   3.470   9.275   5.498 -0.1261  0.2537 -0.0077
 1236ERGO    R116948   3.580   9.460   5.682 -0.0445  0.2285 -0.0293
 1236ERGO    R216949   3.496   9.723   5.697 -0.0326  0.2340  0.0393
 1236ERGO    R316950   3.458   9.661   5.960  0.0726  0.1956  0.0446
 1236ERGO    R416951   3.496   9.952   5.955  0.1231  0.1813  0.0859
 1236ERGO    R516952   3.607   9.809   6.076  0.1475  0.1428  0.0084
 1236ERGO    C116953   3.462  10.029   6.352  0.3126  0.1145  0.1180
 1236ERGO    C216954   3.475  10.104   6.607  0.1623  0.1692 -0.1467
 1237ERGO   ROH16955  12.340   2.616   8.679  0.0692 -0.0684 -0.0109
 1237ERGO    R116956  12.511   2.612   8.453  0.2134  0.0943  0.0926
 1237ERGO    R216957  12.415   2.597   8.194  0.3870 -0.1146  0.0382
 1237ERGO    R316958  12.566   2.821   8.160  0.1074  0.0836  0.0643
 1237ERGO    R416959  12.543   2.704   7.891  0.3537  0.0112  0.0683
 1237ERGO    R516960  12.727   2.758   7.994  0.2513  0.2699  0.1287
 1237ERGO    C116961  12.759   2.977   7.683  0.0719  0.2706  0.1103
 1237ERGO    C216962  12.681   3.056   7.439  0.2179  0.1151 -0.0191
 1238ERGO   ROH16963  13.727   8.690   9.030 -0.2541  0.0098  0.0126
 1238ERGO    R116964  13.893   8.742   8.807 -0.1993 -0.1238  0.0210
 1238ERGO    R216965  13.856   8.618   8.562 -0.3435 -0.0299 -0.0068
 1238ERGO    R316966  13.849   8.874   8.470 -0.0614  0.0021  0.0516
 1238ERGO    R416967  13.996   8.725   8.265 -0.3872 -0.1550 -0.0732
 1238ERGO    R516968  14.063   8.906   8.367 -0.0805 -0.2611 -0.0768
 1238ERGO    C116969  14.070   9.028   8.005 -0.1478 -0.1977 -0.0570
 1238ERGO    C216970  14.100   9.105   7.704 -0.1362  0.0310 -0.1029
 1239ERGO   ROH16971   9.654   9.101   5.328  0.1461 -0.2920  0.1784
 1239ERGO    R116972   9.673   9.121   5.609  0.1775 -0.0668  0.1625
 1239ERGO    R216973   9.909   9.075   5.746  0.1733 -0.0444  0.1819
 1239ERGO    R316974   9.861   9.322   5.848  0.2756  0.0600 -0.0198
 1239ERGO    R416975  10.073   9.212   6.017  0.0155 -0.0167  0.2639
 1239ERGO    R516976   9.883   9.295   6.085  0.0135  0.1855  0.0223
 1239ERGO    C116977  10.124   9.525   6.270  0.0197  0.0975  0.1222
 1239ERGO    C216978  10.181   9.768   6.484 -0.0194 -0.1738 -0.1506
 1240ERGO   ROH16979  14.539  19.246   5.566 -0.1026  0.2059  0.0352
 1240ERGO    R116980  14.667  19.419   5.751 -0.1648  0.1900  0.0943
 1240ERGO    R216981  14.594  19.683   5.782 -0.1213  0.2125  0.0341
 1240ERGO    R316982  14.569  19.612   6.043 -0.2855  0.2337  0.0246
 1240ERGO    R416983  14.575  19.905   6.046  0.1912  0.2259  0.0489
 1240ERGO    R516984  14.703  19.772   6.161 -0.0463  0.0079  0.0620
 1240ERGO    C116985  14.540  19.968   6.445  0.2191  0.2538  0.0487
 1240ERGO    C216986  14.563  20.218   6.609 -0.2267  0.0647  0.4188
 1241ERGO   ROH16987  13.784  18.399   9.155  0.0992  0.0887 -0.0756
 1241ERGO    R116988  13.862  18.420   8.884 -0.0085  0.0272 -0.1119
 1241ERGO    R216989  13.881  18.200   8.717 -0.0453 -0.0146 -0.0617
 1241ERGO    R316990  13.713  18.345   8.560 -0.1247 -0.0776 -0.0354
 1241ERGO    R416991  13.851  18.165   8.374  0.0248  0.0746 -0.0772
 1241ERGO    R516992  13.837  18.382   8.358 -0.1213  0.0721 -0.0079
 1241ERGO    C116993  13.675  18.282   8.028 -0.0088  0.0673 -0.0613
 1241ERGO    C216994  13.748  18.271   7.718 -0.1177 -0.1104  0.4047
 1242ERGO   ROH16995  13.864   2.951   8.934  0.2565 -0.0663 -0.0066
 1242ERGO    R116996  13.846   3.038   8.666  0.0869 -0.0928 -0.0052
 1242ERGO    R216997  14.069   3.108   8.517 -0.0270  0.1411 -0.0704
 1242ERGO    R316998  13.969   2.925   8.342  0.1182  0.0269 -0.0357
 1242ERGO    R416999  14.045   3.153   8.175 -0.1272  0.0850 -0.0716
 1242ERGO    R517000  13.851   3.056   8.180 -0.0346 -0.1016 -0.0299
 1242ERGO    C117001  13.939   3.008   7.812 -0.0492 -0.0549 -0.0398
 1242ERGO    C217002  13.841   2.999   7.433  0.1020 -0.0692 -0.1249
 1243ERGO   ROH17003  17.656  14.076   8.948 -0.0688 -0.0235  0.0506
 1243ERGO    R117004  17.639  14.335   8.835  0.1793 -0.0019  0.0527
 1243ERGO    R217005  17.845  14.447   8.688  0.2238 -0.2677 -0.1130
 1243ERGO    R317006  17.650  14.479   8.501  0.1150 -0.0396  0.0373
 1243ERGO    R417007  17.842  14.693   8.445  0.2485 -0.1998 -0.0428
 1243ERGO    R517008  17.628  14.716   8.478  0.3002 -0.0206  0.1177
 1243ERGO    C117009  17.658  14.866   8.128  0.1607  0.0539  0.1392
 1243ERGO    C217010  17.694  14.928   7.834  0.1334  0.1360  0.1750
 1244ERGO   ROH17011   1.514   4.636   8.431  0.1487 -0.0662 -0.0867
 1244ERGO    R117012   1.520   4.805   8.203  0.0672 -0.0948 -0.1117
 1244ERGO    R217013   1.556   4.709   7.947 -0.0029 -0.1271 -0.1149
 1244ERGO    R317014   1.325   4.845   7.898 -0.0297 -0.1528 -0.0563
 1244ERGO    R417015   1.436   4.789   7.633 -0.0309 -0.0181 -0.0760
 1244ERGO    R517016   1.377   4.984   7.711 -0.0668 -0.0661  0.0024
 1244ERGO    C117017   1.150   4.964   7.404 -0.0723  0.0211  0.0018
 1244ERGO    C217018   1.002   4.949   7.118 -0.0717 -0.2031  0.0522
 1245ERGO   ROH17019  11.451   6.289   5.298  0.0018  0.0145 -0.1590
 1245ERGO    R117020  11.536   6.314   5.567 -0.0396  0.0789 -0.1520
 1245ERGO    R217021  11.444   6.513   5.734 -0.2045  0.0086 -0.1621
 1245ERGO    R317022  11.380   6.303   5.895 -0.0598 -0.0390 -0.1638
 1245ERGO    R417023  11.332   6.541   6.060 -0.0029 -0.0757 -0.0836
 1245ERGO    R517024  11.456   6.369   6.112  0.0680 -0.0648 -0.1971
 1245ERGO    C117025  11.207   6.360   6.401  0.2504 -0.1695 -0.0395
 1245ERGO    C217026  10.929   6.091   6.445  0.0307  0.1024 -0.4935
 1246ERGO   ROH17027   7.345  13.133   5.807 -0.1384  0.2701 -0.0258
 1246ERGO    R117028   7.268  13.184   6.074 -0.0802  0.2154  0.0018
 1246ERGO    R217029   7.206  12.983   6.252 -0.1649  0.1836 -0.0639
 1246ERGO    R317030   7.394  13.105   6.406 -0.0826  0.0302 -0.0403
 1246ERGO    R417031   7.207  12.986   6.598 -0.3147  0.3417 -0.0633
 1246ERGO    R517032   7.271  13.194   6.591 -0.0600  0.2658 -0.1348
 1246ERGO    C117033   7.384  13.102   6.944 -0.3246  0.2896 -0.0408
 1246ERGO    C217034   7.372  13.233   7.346 -0.0824  0.0558  0.3586
 1247ERGO   ROH17035   4.617   2.182   8.654 -0.1545  0.3075 -0.0291
 1247ERGO    R117036   4.467   2.167   8.415 -0.0616  0.1670 -0.0796
 1247ERGO    R217037   4.539   2.303   8.185  0.0155  0.0495 -0.1258
 1247ERGO    R317038   4.525   2.056   8.073  0.0786 -0.0126  0.0007
 1247ERGO    R417039   4.501   2.242   7.847  0.0919 -0.1345 -0.1022
 1247ERGO    R517040   4.364   2.080   7.897  0.1089 -0.1313 -0.0442
 1247ERGO    C117041   4.466   1.974   7.545  0.1958 -0.2998  0.0302
 1247ERGO    C217042   4.524   1.964   7.227 -0.1041 -0.0067  0.3296
 1248ERGO   ROH17043  17.895   8.460   9.467 -0.2399  0.0234  0.2294
 1248ERGO    R117044  18.024   8.399   9.223 -0.0426  0.0718  0.3196
 1248ERGO    R217045  18.238   8.225   9.207 -0.1702 -0.0993  0.4296
 1248ERGO    R317046  18.082   8.101   9.021 -0.0919  0.1487  0.1908
 1248ERGO    R417047  18.353   8.003   8.968 -0.1200 -0.0447  0.4023
 1248ERGO    R517048  18.217   8.095   8.824  0.1013  0.1614  0.3211
 1248ERGO    C117049  18.273   7.758   8.655 -0.0173  0.2198  0.1624
 1248ERGO    C217050  18.467   7.494   8.490 -0.4403 -0.0216  0.0563
 1249ERGO   ROH17051   8.104  13.699   6.080  0.4450  0.2526 -0.0003
 1249ERGO    R117052   8.093  13.750   6.358  0.3026  0.0814  0.0255
 1249ERGO    R217053   8.125  13.552   6.548  0.1738 -0.0384 -0.0844
 1249ERGO    R317054   8.318  13.718   6.643  0.1457 -0.1212  0.1312
 1249ERGO    R417055   8.208  13.588   6.881  0.1371 -0.4211 -0.0273
 1249ERGO    R517056   8.228  13.802   6.848  0.1130 -0.3726  0.2267
 1249ERGO    C117057   8.437  13.765   7.164  0.0895 -0.7219  0.2084
 1249ERGO    C217058   8.534  13.581   7.389  0.2961  0.2169  0.0312
 1250ERGO   ROH17059  12.288   1.414   8.747  0.1534  0.0473 -0.1418
 1250ERGO    R117060  12.402   1.388   8.489  0.0711  0.0344 -0.1779
 1250ERGO    R217061  12.365   1.163   8.333  0.1576 -0.0475 -0.0895
 1250ERGO    R317062  12.279   1.344   8.150 -0.0361 -0.1630 -0.1139
 1250ERGO    R417063  12.273   1.087   8.008  0.1583 -0.1924 -0.0560
 1250ERGO    R517064  12.373   1.269   7.943 -0.0144 -0.1221 -0.1147
 1250ERGO    C117065  12.139   1.214   7.647 -0.0230 -0.3852 -0.0594
 1250ERGO    C217066  11.918   1.093   7.303 -0.2486  0.3901 -0.0384
 1251ERGO   ROH17067   8.190   5.827   5.703  0.1003  0.0135  0.1597
 1251ERGO    R117068   8.343   5.854   5.940  0.1044  0.1371  0.1438
 1251ERGO    R217069   8.311   6.065   6.115 -0.0957  0.0775  0.1804
 1251ERGO    R317070   8.276   5.866   6.298  0.1363  0.0111  0.1550
 1251ERGO    R417071   8.330   6.107   6.457 -0.3607  0.1091  0.1940
 1251ERGO    R517072   8.436   5.916   6.470 -0.0399  0.2821  0.2477
 1251ERGO    C117073   8.310   5.945   6.828 -0.2972  0.0651  0.1780
 1251ERGO    C217074   8.272   6.126   7.174 -0.0305 -0.3418  0.1068
 1252ERGO   ROH17075  11.729   0.635   5.833 -0.0539  0.1976 -0.4075
 1252ERGO    R117076  11.771   0.875   5.976 -0.0185  0.1243 -0.2935
 1252ERGO    R217077  11.825   1.116   5.851 -0.0166  0.1834 -0.1821
 1252ERGO    R317078  11.613   1.203   5.996  0.0076  0.1262 -0.1125
 1252ERGO    R417079  11.783   1.440   5.964 -0.0385  0.1571 -0.1145
 1252ERGO    R517080  11.707   1.359   6.152  0.0222  0.1135 -0.1097
 1252ERGO    C117081  11.559   1.710   6.166 -0.0288  0.0881 -0.0098
 1252ERGO    C217082  11.711   1.996   6.293 -0.1265 -0.3067  0.0186
 1253ERGO   ROH17083  10.485   5.681   5.236  0.0143  0.1474 -0.0607
 1253ERGO    R117084  10.694   5.674   5.427 -0.1066 -0.0542  0.0683
 1253ERGO    R217085  10.721   5.866   5.624 -0.0417 -0.0774  0.0789
 1253ERGO    R317086  10.721   5.650   5.789 -0.3518 -0.0765  0.0873
 1253ERGO    R417087  10.887   5.848   5.927  0.0434 -0.3451  0.0202
 1253ERGO    R517088  10.943   5.643   5.879 -0.3220 -0.4508  0.0068
 1253ERGO    C117089  10.983   5.635   6.258 -0.1980 -0.5000 -0.0062
 1253ERGO    C217090  11.099   5.624   6.681  0.0797  0.1710  0.0645
 1254ERGO   ROH17091  15.247  10.623   5.487  0.1071 -0.0122 -0.0399
 1254ERGO    R117092  15.298  10.572   5.761  0.2359 -0.0374 -0.0677
 1254ERGO    R217093  15.536  10.643   5.884  0.1689  0.2504 -0.0944
 1254ERGO    R317094  15.370  10.770   6.058  0.0250 -0.0365 -0.0161
 1254ERGO    R417095  15.608  10.707   6.216  0.0847  0.1101 -0.0486
 1254ERGO    R517096  15.402  10.656   6.265  0.1343 -0.1396 -0.0894
 1254ERGO    C117097  15.494  10.863   6.572 -0.0994 -0.2408  0.0516
 1254ERGO    C217098  15.518  10.888   6.803  0.3922 -0.1483 -0.2936
 1255ERGO   ROH17099  12.160  14.776   6.070  0.1640  0.1799  0.1072
 1255ERGO    R117100  11.949  14.721   6.250  0.0244  0.1431 -0.0612
 1255ERGO    R217101  11.973  14.538   6.456 -0.1490  0.0565 -0.0984
 1255ERGO    R317102  11.893  14.749   6.609 -0.2180  0.0223 -0.0912
 1255ERGO    R417103  11.811  14.512   6.760 -0.2212  0.0194 -0.1416
 1255ERGO    R517104  11.684  14.679   6.701 -0.2224 -0.0031 -0.1475
 1255ERGO    C117105  11.641  14.694   7.080 -0.3279 -0.0343 -0.1601
 1255ERGO    C217106  11.372  14.836   7.264 -0.0763 -0.1396  0.0872
 1256ERGO   ROH17107   4.369   6.305   5.632 -0.0405 -0.1603 -0.2399
 1256ERGO    R117108   4.135   6.176   5.725 -0.0702 -0.0038 -0.0918
 1256ERGO    R217109   4.142   5.936   5.862 -0.1481 -0.0474 -0.1646
 1256ERGO    R317110   3.999   6.075   6.047  0.1036  0.0137 -0.0113
 1256ERGO    R417111   3.908   5.797   6.075  0.0777  0.0349  0.1436
 1256ERGO    R517112   3.782   5.972   6.043  0.0740  0.0569  0.2667
 1256ERGO    C117113   3.638   5.846   6.373  0.4454  0.1401  0.4670
 1256ERGO    C217114   3.565   5.846   6.742  0.2156  0.0999 -0.0453
 1257ERGO   ROH17115  16.070  10.848   9.164 -0.0177  0.0791  0.1055
 1257ERGO    R117116  16.056  10.721   8.912 -0.1003  0.0294  0.1349
 1257ERGO    R217117  15.899  10.815   8.706 -0.0620  0.0670  0.1247
 1257ERGO    R317118  16.132  10.808   8.567 -0.0737 -0.0889  0.1101
 1257ERGO    R417119  15.925  10.738   8.370 -0.1170 -0.0970  0.1567
 1257ERGO    R517120  16.105  10.623   8.416 -0.1583 -0.1485  0.1957
 1257ERGO    C117121  16.160  10.687   8.044 -0.1598 -0.3391  0.1616
 1257ERGO    C217122  16.141  10.610   7.761  0.0287  0.2649  0.0256
 1258ERGO   ROH17123  10.889   8.771   9.102  0.3325  0.0753 -0.1439
 1258ERGO    R117124  10.714   8.840   8.890  0.3304  0.3098 -0.0681
 1258ERGO    R217125  10.789   9.010   8.685  0.5450  0.0527 -0.2071
 1258ERGO    R317126  10.710   8.803   8.528  0.0251  0.1159 -0.0484
 1258ERGO    R417127  10.778   9.017   8.340  0.6016 -0.1871 -0.2155
 1258ERGO    R517128  10.590   8.906   8.349  0.3026  0.2922 -0.1405
 1258ERGO    C117129  10.697   8.826   7.991  0.1465 -0.2674 -0.0715
 1258ERGO    C217130  10.757   8.902   7.712  0.3585 -0.2411 -0.0505
 1259ERGO   ROH17131  10.797   1.409   5.411 -0.1469  0.1290  0.0171
 1259ERGO    R117132  10.735   1.292   5.661 -0.0388  0.1343  0.0472
 1259ERGO    R217133  10.777   1.421   5.901 -0.1245  0.2204  0.0169
 1259ERGO    R317134  10.514   1.365   5.941 -0.0791  0.0231  0.0452
 1259ERGO    R417135  10.636   1.350   6.208 -0.0268  0.0621  0.0255
 1259ERGO    R517136  10.515   1.196   6.111  0.0692 -0.0082  0.0148
 1259ERGO    C117137  10.306   1.255   6.425  0.0727 -0.2153  0.0571
 1259ERGO    C217138  10.204   1.420   6.725 -0.0740 -0.2682  0.1280
 1260ERGO   ROH17139  15.250   8.686   9.099 -0.1857  0.1387  0.2060
 1260ERGO    R117140  15.337   8.580   8.852 -0.0854  0.0730  0.2689
 1260ERGO    R217141  15.162   8.503   8.653 -0.0096 -0.1155  0.2740
 1260ERGO    R317142  15.311   8.672   8.500 -0.0775 -0.1027  0.2211
 1260ERGO    R417143  15.225   8.461   8.315 -0.1163 -0.1183  0.2540
 1260ERGO    R517144  15.429   8.527   8.351 -0.1109 -0.0948  0.1857
 1260ERGO    C117145  15.401   8.594   7.976 -0.2423 -0.1080  0.1928
 1260ERGO    C217146  15.401   8.412   7.656  0.0122 -0.0631  0.3799
 1261ERGO   ROH17147  10.224   3.600   5.434 -0.0040  0.0634  0.2084
 1261ERGO    R117148  10.201   3.464   5.682 -0.1851  0.1113  0.2195
 1261ERGO    R217149  10.418   3.416   5.847 -0.2501 -0.1369  0.2397
 1261ERGO    R317150  10.262   3.540   6.032 -0.1155  0.0693  0.2161
 1261ERGO    R417151  10.524   3.516   6.160 -0.1541 -0.2369  0.2388
 1261ERGO    R517152  10.334   3.449   6.241 -0.2429  0.0011  0.2293
 1261ERGO    C117153  10.441   3.691   6.516  0.0282 -0.1016  0.2162
 1261ERGO    C217154  10.337   4.064   6.697 -0.0248  0.1690  0.1981
 1262ERGO   ROH17155  16.189   5.926   5.824 -0.0116 -0.1093 -0.2596
 1262ERGO    R117156  16.055   5.808   6.044  0.0233 -0.0169 -0.1886
 1262ERGO    R217157  15.822   5.912   6.149 -0.0044 -0.0198 -0.2492
 1262ERGO    R317158  15.729   5.660   6.107  0.0649 -0.0724 -0.0986
 1262ERGO    R417159  15.579   5.757   6.340 -0.0411  0.0705 -0.2216
 1262ERGO    R517160  15.694   5.572   6.327  0.0041  0.0828 -0.0436
 1262ERGO    C117161  15.350   5.430   6.410  0.0027  0.0737 -0.0642
 1262ERGO    C217162  14.984   5.479   6.384 -0.0015  0.1691  0.1586
 1263ERGO   ROH17163  16.236   0.505   5.623  0.0044 -0.2010 -0.0115
 1263ERGO    R117164  16.301   0.280   5.783 -0.0479 -0.0827  0.1786
 1263ERGO    R217165  16.558   0.230   5.871 -0.0554 -0.0885  0.1858
 1263ERGO    R317166  16.439   0.222   6.115 -0.0212  0.1628  0.2134
 1263ERGO    R417167  16.707   0.113   6.160 -0.0389  0.1226  0.2647
 1263ERGO    R517168  16.518   0.019   6.214 -0.0622  0.2222  0.3792
 1263ERGO    C117169  16.682   0.039   6.558  0.0027  0.4814  0.3366
 1263ERGO    C217170  16.999   0.041   6.784 -0.1135  0.0290 -0.0117
 1264ERGO   ROH17171   0.022  13.518   5.784  0.1629 -0.1331 -0.0561
 1264ERGO    R117172  -0.184  13.471   5.972  0.3283 -0.1637  0.1184
 1264ERGO    R217173  -0.429  13.365   5.901  0.0678  0.3600  0.2164
 1264ERGO    R317174  -0.370  13.183   6.093  0.0303 -0.1124 -0.1978
 1264ERGO    R417175  -0.663  13.179   6.074 -0.0048  0.2753  0.0329
 1264ERGO    R517176  -0.545  13.209   6.255  0.1938 -0.2296  0.0092
 1264ERGO    C117177  -0.744  12.899   6.356 -0.0822 -0.2175 -0.4627
 1264ERGO    C217178  -1.152  12.707   6.379 -0.0346 -0.0119  0.3112
 1265ERGO   ROH17179  16.943   8.426   5.547 -0.1192  0.1734 -0.2292
 1265ERGO    R117180  17.066   8.511   5.787  0.0432  0.1098 -0.2898
 1265ERGO    R217181  17.196   8.753   5.810 -0.3213  0.3008 -0.1974
 1265ERGO    R317182  17.029   8.787   6.021 -0.1217 -0.1993  0.0607
 1265ERGO    R417183  17.292   8.873   6.119 -0.1885  0.5531 -0.3329
 1265ERGO    R517184  17.160   8.725   6.212  0.3591  0.1522 -0.1342
 1265ERGO    C117185  17.190   8.976   6.498  0.0762  0.2305 -0.1696
 1265ERGO    C217186  17.125   9.225   6.741  0.2598  0.2654 -0.2417
 1266ERGO   ROH17187  14.178  19.374   9.031  0.0488 -0.1300 -0.1168
 1266ERGO    R117188  14.215  19.325   8.755  0.0507  0.1903 -0.1760
 1266ERGO    R217189  14.386  19.476   8.599  0.4456  0.0593  0.1156
 1266ERGO    R317190  14.492  19.233   8.537 -0.0519 -0.0968 -0.1896
 1266ERGO    R417191  14.593  19.413   8.329  0.3908 -0.0133  0.0888
 1266ERGO    R517192  14.488  19.225   8.298 -0.0074  0.2442 -0.2064
 1266ERGO    C117193  14.813  19.148   8.115 -0.1082 -0.2022 -0.2134
 1266ERGO    C217194  15.071  18.937   8.048  0.0301  0.1971 -0.5208
 1267ERGO   ROH17195  16.671  18.988   8.825  0.0611 -0.1746 -0.0663
 1267ERGO    R117196  16.596  18.821   8.609  0.0347 -0.1983 -0.0366
 1267ERGO    R217197  16.367  18.864   8.462  0.0703 -0.1617 -0.0652
 1267ERGO    R317198  16.540  18.861   8.252  0.0848 -0.2650 -0.0546
 1267ERGO    R417199  16.276  18.808   8.133  0.0393 -0.0853 -0.0710
 1267ERGO    R517200  16.456  18.687   8.109 -0.0317 -0.2098 -0.0664
 1267ERGO    C117201  16.385  18.773   7.744  0.0348 -0.1380 -0.0644
 1267ERGO    C217202  16.153  18.711   7.389 -0.3106 -0.1666  0.2762
 1268ERGO   ROH17203   4.011   1.376   5.501  0.1609  0.1191 -0.1303
 1268ERGO    R117204   3.929   1.572   5.687  0.2288  0.0808 -0.0595
 1268ERGO    R217205   3.700   1.545   5.841  0.1521  0.1598 -0.1599
 1268ERGO    R317206   3.872   1.588   6.046  0.1064 -0.0666 -0.0707
 1268ERGO    R417207   3.607   1.639   6.160  0.0954  0.0597 -0.1463
 1268ERGO    R517208   3.778   1.774   6.165  0.1898 -0.0602 -0.0114
 1268ERGO    C117209   3.714   1.735   6.539  0.0196 -0.2111 -0.0547
 1268ERGO    C217210   3.740   1.870   6.816 -0.1596 -0.0286 -0.1784
 1269ERGO   ROH17211   1.743  13.972   9.081  0.1458  0.2129  0.0368
 1269ERGO    R117212   1.910  13.930   8.857  0.0649  0.0988 -0.0040
 1269ERGO    R217213   1.849  13.748   8.658 -0.0069 -0.0062  0.1083
 1269ERGO    R317214   1.882  13.964   8.495 -0.0685 -0.0870 -0.0117
 1269ERGO    R417215   1.815  13.744   8.314 -0.1830 -0.1637  0.1267
 1269ERGO    R517216   1.988  13.876   8.300 -0.1786 -0.1879 -0.0250
 1269ERGO    C117217   1.826  13.944   7.961 -0.3434 -0.3312  0.0247
 1269ERGO    C217218   1.872  13.962   7.624  0.1066  0.1389  0.0025
 1270ERGO   ROH17219  17.475   7.294   9.436  0.0678  0.3106  0.0054
 1270ERGO    R117220  17.366   7.247   9.179  0.0421  0.2662  0.0248
 1270ERGO    R217221  17.358   7.441   8.982  0.2297  0.1656 -0.0820
 1270ERGO    R317222  17.487   7.251   8.836  0.0698 -0.0318  0.0269
 1270ERGO    R417223  17.353   7.420   8.637  0.4149  0.1274 -0.0838
 1270ERGO    R517224  17.337   7.204   8.655  0.1122  0.1447 -0.0596
 1270ERGO    C117225  17.471   7.230   8.299  0.3727 -0.0802  0.0174
 1270ERGO    C217226  17.496   7.228   8.091  0.0563 -0.1029 -0.0505
 1271ERGO   ROH17227  16.590  15.870   5.944  0.0027 -0.1308  0.0656
 1271ERGO    R117228  16.503  15.743   6.181  0.1268 -0.1576  0.0977
 1271ERGO    R217229  16.663  15.721   6.405  0.1355  0.1004  0.1219
 1271ERGO    R317230  16.452  15.839   6.529 -0.0171 -0.1028  0.0618
 1271ERGO    R417231  16.613  15.727   6.747  0.2090  0.3411  0.1296
 1271ERGO    R517232  16.401  15.693   6.712  0.2486 -0.0150  0.2101
 1271ERGO    C117233  16.386  15.843   7.062  0.1084  0.2905  0.0778
 1271ERGO    C217234  16.110  15.895   7.381  0.2768  0.1237 -0.0325
 1272ERGO   ROH17235  18.130  10.674   9.017  0.1276  0.3048  0.0451
 1272ERGO    R117236  18.207  10.669   8.744  0.0318  0.1378  0.0205
 1272ERGO    R217237  18.288  10.438   8.616  0.0473  0.0728  0.1522
 1272ERGO    R317238  18.092  10.504   8.441 -0.0318 -0.1021  0.1714
 1272ERGO    R417239  18.323  10.444   8.272 -0.0091  0.0392  0.1452
 1272ERGO    R517240  18.204  10.626   8.268 -0.1463 -0.0468  0.1325
 1272ERGO    C117241  18.159  10.510   7.907 -0.1162 -0.1447  0.1591
 1272ERGO    C217242  18.146  10.362   7.479  0.1945 -0.0192 -0.1295
 1273ERGO   ROH17243   9.485   5.425   8.903  0.3025  0.1689  0.1747
 1273ERGO    R117244   9.475   5.671   8.763 -0.0533  0.0490 -0.0214
 1273ERGO    R217245   9.693   5.774   8.627 -0.1367  0.3538  0.0824
 1273ERGO    R317246   9.519   5.781   8.419  0.0119 -0.1305 -0.0739
 1273ERGO    R417247   9.745   5.946   8.332 -0.3618  0.5729  0.1662
 1273ERGO    R517248   9.535   6.005   8.335 -0.5668 -0.0417 -0.0079
 1273ERGO    C117249   9.611   6.053   7.964 -0.3534  0.2460  0.0683
 1273ERGO    C217250   9.505   5.884   7.629 -0.1412 -0.1256 -0.0486
 1274ERGO   ROH17251  10.316  12.528   9.034  0.0506  0.4055  0.1848
 1274ERGO    R117252  10.205  12.585   8.780  0.0598  0.0825  0.1026
 1274ERGO    R217253  10.285  12.802   8.629 -0.1442  0.0633 -0.0393
 1274ERGO    R317254  10.327  12.613   8.438  0.1350 -0.0395  0.1193
 1274ERGO    R417255  10.329  12.868   8.293 -0.2900 -0.1549 -0.1029
 1274ERGO    R517256  10.206  12.693   8.248 -0.0192 -0.3953  0.0603
 1274ERGO    C117257  10.394  12.729   7.918 -0.1128 -0.3783  0.0090
 1274ERGO    C217258  10.326  12.706   7.622  0.2374  0.3316  0.3076
 1275ERGO   ROH17259   4.419  18.102   5.174 -0.0676  0.2532  0.1400
 1275ERGO    R117260   4.566  18.160   5.409 -0.0410  0.1795  0.1427
 1275ERGO    R217261   4.445  18.201   5.654 -0.0161  0.1281  0.1670
 1275ERGO    R317262   4.616  18.006   5.735 -0.0277  0.0901  0.0980
 1275ERGO    R417263   4.474  18.087   5.979  0.1302  0.1575  0.1647
 1275ERGO    R517264   4.690  18.078   5.951  0.1111  0.0926  0.0485
 1275ERGO    C117265   4.651  17.837   6.244  0.2046  0.1387  0.0985
 1275ERGO    C217266   4.660  17.623   6.474 -0.1099 -0.2299  0.1122
 1276ERGO   ROH17267   6.723   9.895   5.586 -0.0129  0.5021  0.1255
 1276ERGO    R117268   6.513   9.916   5.775  0.0677  0.3075  0.2383
 1276ERGO    R217269   6.301   9.738   5.782  0.0169  0.3590  0.0757
 1276ERGO    R317270   6.377   9.709   6.042  0.1126 -0.0212  0.0115
 1276ERGO    R417271   6.115   9.578   6.025 -0.0718  0.3480  0.0018
 1276ERGO    R517272   6.173   9.734   6.166  0.2097  0.1211  0.1421
 1276ERGO    C117273   6.077   9.457   6.410 -0.0334 -0.0153 -0.1014
 1276ERGO    C217274   6.061   9.110   6.670 -0.0035 -0.1949  0.0936
 1277ERGO   ROH17275  16.238   6.797   9.525  0.0438  0.2101  0.0334
 1277ERGO    R117276  16.380   6.939   9.326  0.1394  0.0625 -0.0055
 1277ERGO    R217277  16.451   6.825   9.084 -0.0912  0.0010 -0.0488
 1277ERGO    R317278  16.321   7.040   8.981  0.1250  0.1719  0.0297
 1277ERGO    R417279  16.468   6.926   8.754 -0.3596 -0.1756 -0.1204
 1277ERGO    R517280  16.476   7.133   8.823  0.0746 -0.1530 -0.2185
 1277ERGO    C117281  16.357   7.188   8.465 -0.3128 -0.1180 -0.0886
 1277ERGO    C217282  16.430   7.184   8.148  0.3664  0.0190 -0.2776
 1278ERGO   ROH17283   0.924   2.696   5.469 -0.1793 -0.0476 -0.0969
 1278ERGO    R117284   0.933   2.896   5.670 -0.0140 -0.0204 -0.1305
 1278ERGO    R217285   0.807   2.867   5.914 -0.1388  0.1727 -0.1711
 1278ERGO    R317286   1.055   2.921   6.012 -0.1058 -0.1046 -0.0907
 1278ERGO    R417287   0.880   2.923   6.247 -0.2294  0.3252 -0.1757
 1278ERGO    R517288   1.016   3.082   6.186  0.0309  0.0882 -0.2331
 1278ERGO    C117289   1.155   3.007   6.533 -0.2512  0.1537 -0.1029
 1278ERGO    C217290   1.087   3.030   6.799  0.4939 -0.1988  0.1917
 1279ERGO   ROH17291   2.811   3.346   8.631  0.4264  0.1529  0.1399
 1279ERGO    R117292   2.726   3.321   8.362  0.2768 -0.0769  0.2055
 1279ERGO    R217293   2.744   3.529   8.181 -0.0738 -0.1449  0.0841
 1279ERGO    R317294   2.879   3.345   8.033  0.0364 -0.0681  0.0924
 1279ERGO    R417295   2.820   3.561   7.845 -0.0216 -0.0818  0.1018
 1279ERGO    R517296   2.773   3.350   7.819  0.0788 -0.0969  0.0730
 1279ERGO    C117297   2.991   3.407   7.511  0.1122  0.0269  0.1198
 1279ERGO    C217298   2.939   3.440   7.173  0.3114  0.0774 -0.0225
 1280ERGO   ROH17299  15.421  12.033   9.036  0.2032  0.2953 -0.0968
 1280ERGO    R117300  15.308  11.938   8.795  0.2567  0.0257 -0.0178
 1280ERGO    R217301  15.230  12.106   8.590 -0.0434 -0.1756 -0.0707
 1280ERGO    R317302  15.393  11.949   8.441  0.1292 -0.0199 -0.0511
 1280ERGO    R417303  15.262  12.125   8.247  0.2096  0.0637 -0.0381
 1280ERGO    R517304  15.269  11.907   8.241  0.2925  0.0655 -0.1754
 1280ERGO    C117305  15.434  11.987   7.907  0.5188  0.3492 -0.0006
 1280ERGO    C217306  15.304  12.038   7.587  0.2178 -0.1537 -0.1437
 1281ERGO   ROH17307  15.048   6.341   9.080  0.1961 -0.0510 -0.0475
 1281ERGO    R117308  15.168   6.250   8.840  0.0551  0.0330 -0.1522
 1281ERGO    R217309  15.029   6.105   8.651 -0.0176 -0.0368 -0.0491
 1281ERGO    R317310  15.118   6.300   8.483 -0.2670  0.0269 -0.1105
 1281ERGO    R417311  15.109   6.058   8.318  0.2600 -0.0946  0.0235
 1281ERGO    R517312  15.280   6.190   8.345  0.0127  0.2301  0.0481
 1281ERGO    C117313  15.239   6.213   7.967  0.1875 -0.0685  0.0082
 1281ERGO    C217314  15.323   6.368   7.703 -0.1723  0.1765  0.1889
 1282ERGO   ROH17315  10.126  19.604   5.528 -0.1775  0.1312 -0.0177
 1282ERGO    R117316  10.097  19.795   5.735 -0.0918  0.1345 -0.0087
 1282ERGO    R217317   9.857  19.922   5.789 -0.0821  0.0973  0.1215
 1282ERGO    R317318   9.901  19.828   6.040  0.0748  0.1148  0.1019
 1282ERGO    R417319   9.774  20.089   6.080 -0.1731 -0.0093  0.1577
 1282ERGO    R517320   9.963  20.022   6.166 -0.0823  0.1658  0.1035
 1282ERGO    C117321   9.767  20.098   6.485 -0.0789 -0.0550  0.1603
 1282ERGO    C217322   9.561  20.358   6.760 -0.2051 -0.2536 -0.0491
 1283ERGO   ROH17323   5.408  13.820   5.860 -0.2675  0.0386 -0.0330
 1283ERGO    R117324   5.491  13.966   6.088 -0.1743  0.0205 -0.0550
 1283ERGO    R217325   5.384  13.922   6.340 -0.1713  0.0968 -0.0406
 1283ERGO    R317326   5.645  13.889   6.409 -0.1803 -0.0235 -0.0627
 1283ERGO    R417327   5.525  14.023   6.639 -0.1523 -0.1915  0.0513
 1283ERGO    R517328   5.701  14.088   6.529 -0.1354 -0.1384  0.1097
 1283ERGO    C117329   5.851  14.051   6.878 -0.1498 -0.4722  0.0840
 1283ERGO    C217330   5.924  13.987   7.084 -0.1996 -0.2281 -0.0121
 1284ERGO   ROH17331   6.368  18.372   9.112  0.0795 -0.2413 -0.0106
 1284ERGO    R117332   6.369  18.212   8.879  0.1386 -0.1396 -0.0804
 1284ERGO    R217333   6.241  18.287   8.646  0.1557 -0.0607 -0.0643
 1284ERGO    R317334   6.485  18.245   8.535  0.1781  0.0310 -0.0511
 1284ERGO    R417335   6.295  18.149   8.334  0.2259  0.0298 -0.0932
 1284ERGO    R517336   6.462  18.038   8.418  0.2463  0.0538 -0.1045
 1284ERGO    C117337   6.556  18.029   8.048  0.2879  0.1684 -0.0975
 1284ERGO    C217338   6.610  18.170   7.760  0.0464 -0.2071 -0.1240
 1285ERGO   ROH17339  14.244   4.926   5.731 -0.0997  0.1686  0.0654
 1285ERGO    R117340  14.367   4.882   5.982  0.0086  0.1039  0.0034
 1285ERGO    R217341  14.234   4.765   6.194  0.0235  0.2591  0.1076
 1285ERGO    R317342  14.446   4.595   6.191 -0.1308  0.0681  0.0054
 1285ERGO    R417343  14.329   4.564   6.458  0.1166  0.3551  0.1463
 1285ERGO    R517344  14.538   4.610   6.412  0.1101  0.1379 -0.0993
 1285ERGO    C117345  14.584   4.286   6.608  0.0260  0.2316  0.0729
 1285ERGO    C217346  14.803   4.131   6.858 -0.0753  0.2832 -0.0345
 1286ERGO   ROH17347   8.429  16.964   9.545 -0.1638  0.2285 -0.1469
 1286ERGO    R117348   8.453  16.840   9.292 -0.0887  0.1123 -0.0844
 1286ERGO    R217349   8.381  16.966   9.057 -0.0108  0.0097 -0.1663
 1286ERGO    R317350   8.634  16.902   8.982  0.0109 -0.0338 -0.0560
 1286ERGO    R417351   8.479  16.897   8.733  0.1508  0.1401 -0.1458
 1286ERGO    R517352   8.605  16.737   8.811  0.0552  0.0615 -0.1545
 1286ERGO    C117353   8.775  16.797   8.474  0.2654  0.1752 -0.0304
 1286ERGO    C217354   8.670  16.621   8.182 -0.2683  0.0530 -0.3791
 1287ERGO   ROH17355   2.880   6.516   9.112 -0.1244 -0.0401  0.0562
 1287ERGO    R117356   2.887   6.625   8.851 -0.1871  0.0067  0.0734
 1287ERGO    R217357   3.024   6.505   8.642 -0.0615  0.1502  0.0679
 1287ERGO    R317358   2.783   6.522   8.518 -0.0655 -0.0324  0.0478
 1287ERGO    R417359   2.980   6.558   8.304 -0.0805  0.1670  0.0731
 1287ERGO    R517360   2.814   6.691   8.351 -0.1956  0.0191  0.0779
 1287ERGO    C117361   2.728   6.605   7.990 -0.0952  0.0053  0.0572
 1287ERGO    C217362   2.514   6.607   7.747  0.0864  0.1337 -0.0503
 1288ERGO   ROH17363  18.268  19.274   5.221  0.2140 -0.0464  0.1041
 1288ERGO    R117364  18.365  19.328   5.481  0.0879 -0.1163  0.1657
 1288ERGO    R217365  18.348  19.578   5.598  0.2008 -0.1050  0.1476
 1288ERGO    R317366  18.225  19.441   5.798 -0.0290 -0.0067  0.0778
 1288ERGO    R417367  18.268  19.710   5.907  0.2797 -0.0728  0.1551
 1288ERGO    R517368  18.329  19.521   5.998  0.0222 -0.1814  0.1282
 1288ERGO    C117369  18.105  19.658   6.275  0.1099  0.0384  0.0939
 1288ERGO    C217370  17.999  19.572   6.585  0.2778  0.1661  0.2286
 1289ERGO   ROH17371   4.590  16.908   8.190  0.0916 -0.0224 -0.0478
 1289ERGO    R117372   4.760  16.802   7.990  0.0041 -0.1769 -0.0413
 1289ERGO    R217373   4.675  16.613   7.807 -0.2733  0.1678 -0.2774
 1289ERGO    R317374   4.768  16.794   7.626  0.2114  0.1636 -0.0495
 1289ERGO    R417375   4.792  16.535   7.491 -0.4487  0.2392 -0.3617
 1289ERGO    R517376   4.950  16.683   7.519 -0.0566 -0.1885 -0.1630
 1289ERGO    C117377   4.947  16.660   7.138 -0.0958  0.2771 -0.1967
 1289ERGO    C217378   4.948  16.589   6.849 -0.2609  0.1898 -0.0241
 1290ERGO   ROH17379  12.201  13.637   6.066 -0.2403 -0.1787  0.1645
 1290ERGO    R117380  12.198  13.752   6.325 -0.1347 -0.0911  0.1280
 1290ERGO    R217381  12.055  13.643   6.534 -0.1488  0.0463  0.1934
 1290ERGO    R317382  12.296  13.651   6.660 -0.1187 -0.0294  0.1414
 1290ERGO    R417383  12.114  13.794   6.839 -0.0677 -0.1238  0.2638
 1290ERGO    R517384  12.303  13.868   6.761 -0.0865 -0.0865  0.2599
 1290ERGO    C117385  12.374  13.891   7.135  0.0078 -0.2939  0.2559
 1290ERGO    C217386  12.366  13.817   7.492 -0.2949  0.2759  0.1570
 1291ERGO   ROH17387  13.773  12.490   5.849  0.3618 -0.1035  0.0533
 1291ERGO    R117388  13.729  12.405   6.115  0.2355 -0.0140  0.0619
 1291ERGO    R217389  13.933  12.378   6.298  0.1525  0.0286  0.1641
 1291ERGO    R317390  13.779  12.543   6.448  0.0971  0.0907  0.0397
 1291ERGO    R417391  14.005  12.474   6.622 -0.0256  0.0741  0.1910
 1291ERGO    R517392  13.793  12.453   6.670 -0.0586  0.1302  0.0661
 1291ERGO    C117393  13.902  12.686   6.952 -0.1811  0.1590  0.0899
 1291ERGO    C217394  14.113  12.697   7.317 -0.2856 -0.0317 -0.2705
 1292ERGO   ROH17395  16.912   2.905   8.968 -0.0495 -0.3793  0.0102
 1292ERGO    R117396  16.759   2.897   8.730 -0.0072 -0.2343 -0.0237
 1292ERGO    R217397  16.835   3.028   8.500  0.0848 -0.1708  0.0379
 1292ERGO    R317398  16.808   2.782   8.388  0.0209 -0.1213 -0.0568
 1292ERGO    R417399  16.842   2.963   8.160  0.1644 -0.0645  0.0186
 1292ERGO    R517400  16.680   2.820   8.190  0.1009 -0.0071 -0.0834
 1292ERGO    C117401  16.821   2.693   7.859  0.1508  0.0439 -0.0816
 1292ERGO    C217402  16.915   2.662   7.418 -0.1376  0.2856 -0.1562
 1293ERGO   ROH17403  15.737   2.793   9.037  0.0095 -0.0341 -0.1619
 1293ERGO    R117404  15.738   2.959   8.807 -0.0717 -0.0264 -0.1565
 1293ERGO    R217405  15.815   2.867   8.558 -0.0775  0.0053 -0.1689
 1293ERGO    R317406  15.571   2.962   8.484 -0.1167 -0.0658 -0.1342
 1293ERGO    R417407  15.715   2.922   8.232 -0.1058  0.0654 -0.1507
 1293ERGO    R517408  15.617   3.105   8.297 -0.1753  0.0089 -0.0926
 1293ERGO    C117409  15.428   3.043   7.972 -0.1588  0.0337 -0.1074
 1293ERGO    C217410  15.364   2.942   7.574  0.0704  0.0036  0.1095
 1294ERGO   ROH17411  15.004   1.139   8.830 -0.1636  0.3844 -0.0615
 1294ERGO    R117412  14.893   1.253   8.595 -0.0052  0.3435 -0.1565
 1294ERGO    R217413  15.046   1.384   8.406  0.1702  0.0084 -0.2426
 1294ERGO    R317414  14.930   1.208   8.236 -0.0360  0.0259 -0.1249
 1294ERGO    R417415  14.984   1.444   8.072 -0.2078  0.0571 -0.1687
 1294ERGO    R517416  14.792   1.343   8.095 -0.1976  0.0583  0.0459
 1294ERGO    C117417  14.838   1.312   7.717 -0.6215  0.1018 -0.0150
 1294ERGO    C217418  14.954   1.442   7.405  0.1649  0.0719  0.1068
 1295ERGO   ROH17419  17.170   9.810   9.156  0.0931 -0.0826 -0.2081
 1295ERGO    R117420  17.254   9.721   8.901  0.1477  0.0655 -0.2423
 1295ERGO    R217421  17.152   9.493   8.782  0.3153  0.0288 -0.3114
 1295ERGO    R317422  17.098   9.663   8.577  0.1760  0.0538 -0.2550
 1295ERGO    R417423  17.106   9.397   8.454  0.2285  0.0753 -0.3132
 1295ERGO    R517424  17.219   9.573   8.392  0.1430  0.1336 -0.3194
 1295ERGO    C117425  17.027   9.501   8.070  0.0470  0.1258 -0.2612
 1295ERGO    C217426  17.031   9.504   7.739  0.0581 -0.2753 -0.0937
 1296ERGO   ROH17427   2.741   1.824   5.534 -0.1707  0.1750 -0.1082
 1296ERGO    R117428   2.569   1.662   5.690 -0.2594  0.2060 -0.1737
 1296ERGO    R217429   2.643   1.557   5.935 -0.2199 -0.1485 -0.3336
 1296ERGO    R317430   2.416   1.680   6.020 -0.0255  0.0279 -0.0522
 1296ERGO    R417431   2.478   1.484   6.229 -0.1714 -0.3695 -0.3598
 1296ERGO    R517432   2.289   1.505   6.123 -0.2022  0.0326 -0.2504
 1296ERGO    C117433   2.169   1.556   6.481  0.0393 -0.3326 -0.1107
 1296ERGO    C217434   2.176   1.437   6.711  0.0159 -0.1245  0.0045
 1297ERGO   ROH17435   1.963   6.880   5.669 -0.0925  0.0744 -0.0159
 1297ERGO    R117436   1.840   6.831   5.919 -0.0083  0.0244  0.0143
 1297ERGO    R217437   1.874   6.594   6.057  0.1140  0.0416 -0.0039
 1297ERGO    R317438   1.950   6.759   6.259  0.1008  0.0580 -0.0103
 1297ERGO    R417439   1.815   6.535   6.392 -0.0493  0.1181 -0.0171
 1297ERGO    R517440   1.770   6.747   6.416  0.0207  0.1531 -0.0804
 1297ERGO    C117441   1.852   6.656   6.777 -0.1568  0.1781 -0.0309
 1297ERGO    C217442   2.021   6.699   7.103  0.1847 -0.3387 -0.2509
 1298ERGO   ROH17443  16.868   6.370   6.298 -0.0585  0.0170  0.0429
 1298ERGO    R117444  16.707   6.337   6.528 -0.1674 -0.0377 -0.0410
 1298ERGO    R217445  16.761   6.465   6.767 -0.1965 -0.2082  0.0547
 1298ERGO    R317446  16.504   6.551   6.741 -0.1442 -0.0612  0.0065
 1298ERGO    R417447  16.588   6.642   7.007 -0.1584 -0.1728  0.0566
 1298ERGO    R517448  16.411   6.524   6.960 -0.2148 -0.0669 -0.0210
 1298ERGO    C117449  16.246   6.827   7.124 -0.0871 -0.0142  0.0125
 1298ERGO    C217450  16.050   7.124   7.384 -0.3919  0.1298  0.4809
 1299ERGO   ROH17451  19.514  15.561   5.748 -0.0476  0.1208 -0.0906
 1299ERGO    R117452  19.683  15.619   5.968 -0.0642  0.1163 -0.0769
 1299ERGO    R217453  19.954  15.663   5.940 -0.0489  0.0309 -0.0440
 1299ERGO    R317454  19.898  15.894   6.071  0.0020  0.0744 -0.0985
 1299ERGO    R417455  20.164  15.816   6.168  0.0470  0.1001 -0.1775
 1299ERGO    R517456  19.989  15.861   6.291  0.0911  0.1413 -0.1215
 1299ERGO    C117457  20.233  16.122   6.424  0.1507  0.1815 -0.3064
 1299ERGO    C217458  20.623  16.171   6.460  0.0584 -0.0629  0.2082
 1300ERGO   ROH17459   7.002  14.492   9.161  0.0265 -0.4604 -0.0560
 1300ERGO    R117460   7.211  14.469   8.971  0.1081 -0.1963 -0.0024
 1300ERGO    R217461   7.221  14.263   8.785  0.2143  0.0293 -0.2491
 1300ERGO    R317462   7.238  14.469   8.608  0.2583  0.2487  0.0016
 1300ERGO    R417463   7.292  14.230   8.448  0.2712  0.4301 -0.2823
 1300ERGO    R517464   7.417  14.407   8.462  0.2826  0.4123 -0.0433
 1300ERGO    C117465   7.349  14.403   8.086  0.3457  0.8695 -0.0662
 1300ERGO    C217466   7.130  14.316   7.705 -0.0401 -0.0839  0.0070
 1301ERGO   ROH17467  12.643  12.767   9.336 -0.2486  0.0849  0.0874
 1301ERGO    R117468  12.717  12.812   9.066 -0.1148  0.0723  0.1210
 1301ERGO    R217469  12.803  12.608   8.900 -0.1593  0.0394  0.1323
 1301ERGO    R317470  12.604  12.700   8.739 -0.0467  0.1678  0.0656
 1301ERGO    R417471  12.801  12.584   8.555 -0.0912 -0.0048  0.1352
 1301ERGO    R517472  12.718  12.785   8.546  0.0651  0.0543  0.0838
 1301ERGO    C117473  12.613  12.656   8.203  0.0540  0.0899  0.0744
 1301ERGO    C217474  12.514  12.640   7.858 -0.1320 -0.1207 -0.1615
 1302ERGO   ROH17475   6.799   1.416   8.855 -0.0186 -0.2010  0.0222
 1302ERGO    R117476   6.830   1.492   8.584 -0.2729 -0.1547  0.0045
 1302ERGO    R217477   7.038   1.401   8.427 -0.1043  0.2986 -0.0441
 1302ERGO    R317478   6.836   1.324   8.261  0.0112 -0.1811  0.0198
 1302ERGO    R417479   7.072   1.349   8.086 -0.1066  0.5268 -0.0813
 1302ERGO    R517480   6.878   1.445   8.058 -0.3974  0.0267  0.0461
 1302ERGO    C117481   6.902   1.247   7.733  0.0005  0.2095 -0.0431
 1302ERGO    C217482   7.272   1.282   7.530 -0.0952  0.2604  0.0066
 1303ERGO   ROH17483   4.224   3.145   8.696  0.0826 -0.2053  0.0242
 1303ERGO    R117484   4.144   3.208   8.432  0.0084  0.0349  0.1014
 1303ERGO    R217485   4.114   3.469   8.343  0.2939  0.1264  0.2538
 1303ERGO    R317486   4.285   3.388   8.149  0.0801 -0.0018  0.1151
 1303ERGO    R417487   4.092   3.560   8.011  0.1294  0.1722  0.2761
 1303ERGO    R517488   4.146   3.357   7.956 -0.0866  0.1343  0.2143
 1303ERGO    C117489   4.241   3.538   7.634 -0.1672  0.0785  0.1588
 1303ERGO    C217490   4.286   3.798   7.452  0.1340  0.1298 -0.1776
 1304ERGO   ROH17491   9.402  13.124   6.109  0.1802  0.1171 -0.0337
 1304ERGO    R117492   9.273  13.338   6.242  0.1735  0.0759  0.0268
 1304ERGO    R217493   9.306  13.387   6.512  0.1815  0.0085  0.0382
 1304ERGO    R317494   9.375  13.635   6.425  0.1639  0.0348  0.0995
 1304ERGO    R417495   9.371  13.658   6.717  0.0760 -0.0154  0.1036
 1304ERGO    R517496   9.264  13.784   6.576  0.0944 -0.0100  0.0936
 1304ERGO    C117497   9.473  14.048   6.755 -0.0020 -0.0045  0.1993
 1304ERGO    C217498   9.697  14.212   6.988  0.2501  0.0553 -0.1759
 1305ERGO   ROH17499  10.288  10.744   5.363 -0.0077  0.1771  0.0424
 1305ERGO    R117500  10.277  10.893   5.604  0.1316  0.2126  0.0269
 1305ERGO    R217501  10.388  10.801   5.841  0.0040  0.1086  0.0443
 1305ERGO    R317502  10.517  11.039   5.835  0.2740 -0.0316  0.0393
 1305ERGO    R417503  10.520  10.961   6.117  0.1163  0.0013  0.0543
 1305ERGO    R517504  10.448  11.150   6.036  0.3445  0.0749  0.0083
 1305ERGO    C117505  10.719  11.278   6.272  0.4351 -0.1929  0.0554
 1305ERGO    C217506  10.856  11.114   6.458  0.1152  0.2204 -0.0559
 1306ERGO   ROH17507   3.013   1.050   8.295 -0.4410  0.3292  0.0555
 1306ERGO    R117508   2.912   0.957   8.047 -0.0113  0.0460 -0.0232
 1306ERGO    R217509   2.759   1.114   7.880 -0.2465 -0.3326 -0.1804
 1306ERGO    R317510   2.948   1.047   7.696  0.0862  0.0768 -0.0050
 1306ERGO    R417511   2.810   1.278   7.580 -0.1318 -0.0604 -0.0155
 1306ERGO    R517512   2.841   1.084   7.485  0.2828  0.0454 -0.1097
 1306ERGO    C117513   3.018   1.310   7.233  0.2473  0.4824  0.2451
 1306ERGO    C217514   2.864   1.480   6.946  0.2832  0.4422  0.2193
 1307ERGO   ROH17515   5.494  18.213   5.572 -0.0237 -0.0265  0.1387
 1307ERGO    R117516   5.660  18.075   5.756  0.0103  0.0527  0.1672
 1307ERGO    R217517   5.605  18.066   6.027 -0.0461  0.0072  0.1534
 1307ERGO    R317518   5.623  17.797   5.989  0.1102  0.0177  0.1419
 1307ERGO    R417519   5.642  17.832   6.279  0.1003  0.0173  0.1428
 1307ERGO    R517520   5.782  17.724   6.152  0.1600  0.1041  0.1331
 1307ERGO    C117521   5.680  17.444   6.390  0.3322  0.0330  0.1258
 1307ERGO    C217522   5.867  17.312   6.654  0.1985 -0.3609 -0.1981
 1308ERGO   ROH17523   8.594   4.646   8.677 -0.0014  0.0346  0.0024
 1308ERGO    R117524   8.541   4.605   8.402 -0.0538  0.0995  0.0011
 1308ERGO    R217525   8.399   4.786   8.248 -0.0217  0.1741  0.0493
 1308ERGO    R317526   8.619   4.774   8.089 -0.0447  0.1328  0.0229
 1308ERGO    R417527   8.430   4.942   7.942 -0.1647 -0.1392 -0.1283
 1308ERGO    R517528   8.531   4.765   7.867 -0.0753 -0.1590  0.0472
 1308ERGO    C117529   8.654   5.022   7.614 -0.2696 -0.3603 -0.2567
 1308ERGO    C217530   8.576   5.387   7.561 -0.1413 -0.2918  0.0601
 1309ERGO   ROH17531   5.123  17.686   8.808 -0.2830 -0.2556 -0.0686
 1309ERGO    R117532   5.078  17.644   8.532 -0.1443 -0.0331 -0.1278
 1309ERGO    R217533   5.024  17.851   8.357  0.0319  0.1193 -0.0063
 1309ERGO    R317534   5.235  17.747   8.220  0.0702  0.1429  0.0344
 1309ERGO    R417535   5.051  17.842   8.012  0.1585  0.2353 -0.0006
 1309ERGO    R517536   5.136  17.641   8.029  0.1289  0.2204 -0.0390
 1309ERGO    C117537   5.264  17.738   7.683  0.2682  0.3250  0.0410
 1309ERGO    C217538   5.230  17.667   7.333 -0.0304 -0.0419  0.0754
 1310ERGO   ROH17539  12.347  10.334   5.782 -0.2304  0.2482  0.1876
 1310ERGO    R117540  12.325  10.090   5.923 -0.1921  0.1877  0.0902
 1310ERGO    R217541  12.538   9.916   5.953 -0.1896  0.1602 -0.0647
 1310ERGO    R317542  12.478   9.940   6.217 -0.0898  0.0510 -0.0313
 1310ERGO    R417543  12.570   9.663   6.187  0.0381  0.1085 -0.1498
 1310ERGO    R517544  12.382   9.728   6.276  0.0433 -0.0142 -0.0506
 1310ERGO    C117545  12.533   9.538   6.570  0.2644 -0.0240 -0.1680
 1310ERGO    C217546  12.518   9.324   6.772  0.1033  0.2809  0.0135
 1311ERGO   ROH17547   9.539  10.694   8.911 -0.0311 -0.0037  0.0455
 1311ERGO    R117548   9.416  10.758   8.664  0.0057 -0.0161  0.0240
 1311ERGO    R217549   9.374  11.018   8.581  0.0318 -0.0210 -0.0021
 1311ERGO    R317550   9.510  10.936   8.360  0.0559 -0.0454  0.0216
 1311ERGO    R417551   9.376  11.183   8.277  0.0811 -0.0400 -0.0122
 1311ERGO    R517552   9.364  10.990   8.178  0.0815 -0.0476 -0.0010
 1311ERGO    C117553   9.505  11.202   7.893  0.1323 -0.0740  0.0042
 1311ERGO    C217554   9.486  11.383   7.641  0.1708 -0.2792  0.2208
 1312ERGO   ROH17555  10.374  10.992   9.260 -0.3669 -0.0047 -0.0310
 1312ERGO    R117556  10.287  11.064   9.000 -0.1504  0.0249 -0.0973
 1312ERGO    R217557  10.324  11.318   8.896 -0.0776  0.0417 -0.0314
 1312ERGO    R317558  10.442  11.181   8.693  0.1061  0.0776  0.0492
 1312ERGO    R417559  10.326  11.419   8.566  0.1130  0.0368 -0.0327
 1312ERGO    R517560  10.294  11.211   8.507  0.2215  0.0252 -0.0524
 1312ERGO    C117561  10.439  11.350   8.182  0.3964  0.0676  0.0423
 1312ERGO    C217562  10.469  11.502   7.943  0.0804 -0.1480 -0.1379
 1313ERGO   ROH17563  12.620  15.700   6.124 -0.0270  0.0920 -0.1571
 1313ERGO    R117564  12.426  15.809   6.298  0.0068  0.1227 -0.1379
 1313ERGO    R217565  12.241  15.653   6.432 -0.0737  0.1595 -0.1998
 1313ERGO    R317566  12.341  15.779   6.651 -0.0312  0.0480 -0.1543
 1313ERGO    R417567  12.113  15.624   6.752  0.1539 -0.2053 -0.1356
 1313ERGO    R517568  12.147  15.838   6.779  0.0087 -0.2046  0.0234
 1313ERGO    C117569  12.133  15.726   7.143  0.3265 -0.5225 -0.0554
 1313ERGO    C217570  12.126  15.971   7.463  0.1784 -0.0540 -0.0234
 1314ERGO   ROH17571   4.343  11.706   5.819 -0.0451  0.1969 -0.1025
 1314ERGO    R117572   4.241  11.715   6.083 -0.0513  0.0532 -0.0986
 1314ERGO    R217573   4.382  11.826   6.293 -0.0797 -0.0060 -0.0430
 1314ERGO    R317574   4.155  11.973   6.325 -0.1155 -0.0752  0.0151
 1314ERGO    R417575   4.241  11.909   6.598 -0.1058 -0.1594 -0.0134
 1314ERGO    R517576   4.045  11.872   6.511 -0.0928 -0.1731 -0.0274
 1314ERGO    C117577   3.946  12.095   6.805 -0.1546 -0.3137  0.0584
 1314ERGO    C217578   3.762  12.119   7.048  0.0688 -0.2766 -0.2099
 1315ERGO   ROH17579  12.418   8.904   9.046 -0.2162  0.0469 -0.0199
 1315ERGO    R117580  12.465   8.927   8.768 -0.0817  0.0250  0.0014
 1315ERGO    R217581  12.485   8.707   8.602 -0.2792  0.0217 -0.0109
 1315ERGO    R317582  12.290   8.835   8.461 -0.0741  0.2694 -0.0808
 1315ERGO    R417583  12.433   8.672   8.262 -0.4768 -0.2852  0.0468
 1315ERGO    R517584  12.394   8.887   8.251 -0.0313 -0.1981 -0.1910
 1315ERGO    C117585  12.220   8.770   7.932 -0.3992 -0.2314  0.0147
 1315ERGO    C217586  12.365   8.823   7.620 -0.2727  0.0896  0.3535
 1316ERGO   ROH17587  10.145   8.152   5.251 -0.1449 -0.1440  0.0699
 1316ERGO    R117588  10.142   8.097   5.528 -0.0198 -0.1259  0.0744
 1316ERGO    R217589   9.918   8.004   5.659  0.0155 -0.0277  0.1969
 1316ERGO    R317590  10.085   7.805   5.739 -0.0223 -0.0901  0.1253
 1316ERGO    R417591   9.855   7.788   5.922 -0.0975 -0.1976  0.0336
 1316ERGO    R517592  10.066   7.805   5.978 -0.1122 -0.2444  0.1223
 1316ERGO    C117593   9.976   7.476   6.150 -0.1988 -0.3552 -0.1286
 1316ERGO    C217594   9.998   7.198   6.366  0.2322  0.3882 -0.0836
 1317ERGO   ROH17595   9.233   3.061   8.452 -0.0030 -0.0244 -0.1114
 1317ERGO    R117596   9.242   2.830   8.288  0.0424 -0.0220 -0.1109
 1317ERGO    R217597   9.120   2.818   8.041  0.0895 -0.0283 -0.1288
 1317ERGO    R317598   9.368   2.745   7.957  0.1076 -0.0148 -0.0897
 1317ERGO    R417599   9.194   2.693   7.727  0.1493  0.0564 -0.1493
 1317ERGO    R517600   9.331   2.552   7.822  0.1250  0.0211 -0.1533
 1317ERGO    C117601   9.471   2.552   7.467  0.2010  0.1183 -0.1246
 1317ERGO    C217602   9.661   2.440   7.324  0.0488  0.1146 -0.1965
 1318ERGO   ROH17603  17.511  18.004   5.798 -0.2748  0.1861 -0.0929
 1318ERGO    R117604  17.424  18.077   6.057 -0.1055  0.0875 -0.0081
 1318ERGO    R217605  17.340  17.891   6.243 -0.0139  0.0225 -0.0381
 1318ERGO    R317606  17.528  18.009   6.399  0.0954 -0.0694 -0.0968
 1318ERGO    R417607  17.286  18.005   6.565  0.1600 -0.0344  0.0132
 1318ERGO    R517608  17.409  18.179   6.518  0.1946 -0.0573 -0.0049
 1318ERGO    C117609  17.432  18.184   6.898  0.3636 -0.1538 -0.0120
 1318ERGO    C217610  17.420  17.996   7.238 -0.2257  0.2143  0.1453
 1319ERGO   ROH17611  11.360  19.092   6.059  0.1031 -0.5283 -0.0012
 1319ERGO    R117612  11.522  19.063   6.289  0.1912 -0.1062 -0.0031
 1319ERGO    R217613  11.668  19.272   6.396 -0.3478  0.2852 -0.0060
 1319ERGO    R317614  11.535  19.206   6.623 -0.1768 -0.0660 -0.0003
 1319ERGO    R417615  11.795  19.305   6.716 -0.3021  0.3336 -0.0281
 1319ERGO    R517616  11.704  19.114   6.766  0.0325  0.1395 -0.1004
 1319ERGO    C117617  11.744  19.262   7.116 -0.1150  0.0319 -0.0356
 1319ERGO    C217618  11.872  19.297   7.528  0.0397 -0.1797 -0.1241
 1320ERGO   ROH17619  12.856   0.328   5.212 -0.1320  0.0716 -0.0632
 1320ERGO    R117620  12.819   0.290   5.491 -0.0349  0.0809 -0.0495
 1320ERGO    R217621  12.576   0.220   5.600  0.0374 -0.0525  0.0228
 1320ERGO    R317622  12.720   0.017   5.710  0.1878  0.0454  0.0104
 1320ERGO    R417623  12.481   0.039   5.879  0.1164 -0.2088 -0.0499
 1320ERGO    R517624  12.689   0.043   5.946  0.0968 -0.0413  0.0096
 1320ERGO    C117625  12.561  -0.257   6.144  0.3035 -0.2077 -0.1039
 1320ERGO    C217626  12.675  -0.480   6.354  0.2797  0.0511 -0.2108
 1321ERGO   ROH17627  17.549   3.371   5.641  0.2254 -0.0107  0.0557
 1321ERGO    R117628  17.663   3.519   5.853 -0.0484  0.2485  0.0294
 1321ERGO    R217629  17.540   3.742   5.962 -0.5334 -0.0230  0.0717
 1321ERGO    R317630  17.572   3.605   6.195 -0.1554  0.0286  0.0570
 1321ERGO    R417631  17.429   3.849   6.271 -0.3255 -0.1095  0.1779
 1321ERGO    R517632  17.614   3.774   6.359 -0.1582  0.0859 -0.0031
 1321ERGO    C117633  17.394   3.782   6.670  0.1504 -0.1113  0.2259
 1321ERGO    C217634  17.244   3.895   6.948 -0.1124 -0.2005  0.1306
 1322ERGO   ROH17635   8.109   8.389   8.709 -0.0500 -0.0018 -0.0003
 1322ERGO    R117636   8.127   8.536   8.468 -0.2401  0.0815  0.0337
 1322ERGO    R217637   8.301   8.467   8.265 -0.1101  0.3840  0.0351
 1322ERGO    R317638   8.075   8.469   8.114 -0.1017  0.0799  0.0137
 1322ERGO    R417639   8.288   8.398   7.926  0.0145  0.3713  0.0330
 1322ERGO    R517640   8.144   8.559   7.903 -0.2041  0.1781  0.0225
 1322ERGO    C117641   8.069   8.359   7.588  0.0952  0.0782  0.0116
 1322ERGO    C217642   7.851   8.491   7.276  0.0346 -0.1509  0.2317
 1323ERGO   ROH17643  19.304  13.249   8.735  0.1995  0.1926  0.0949
 1323ERGO    R117644  19.226  13.398   8.507  0.1792  0.0808  0.0278
 1323ERGO    R217645  19.363  13.385   8.267  0.1151 -0.0931 -0.0016
 1323ERGO    R317646  19.117  13.324   8.168  0.0739 -0.0889  0.0979
 1323ERGO    R417647  19.262  13.436   7.940 -0.0363 -0.0445  0.0517
 1323ERGO    R517648  19.069  13.501   8.014 -0.0053 -0.0672  0.1488
 1323ERGO    C117649  18.973  13.408   7.657 -0.1631 -0.0124  0.1760
 1323ERGO    C217650  18.779  13.306   7.366  0.2835 -0.0627  0.3284
 1324ERGO   ROH17651   9.972  17.323   5.901 -0.1257  0.0227 -0.0406
 1324ERGO    R117652   9.954  17.231   6.167 -0.0352  0.0049 -0.0396
 1324ERGO    R217653   9.919  17.401   6.382  0.0521 -0.0070 -0.0130
 1324ERGO    R317654   9.706  17.241   6.434  0.0607  0.0022  0.0494
 1324ERGO    R417655   9.752  17.386   6.684 -0.0218  0.1854 -0.0431
 1324ERGO    R517656   9.739  17.170   6.660  0.0124  0.1673  0.1079
 1324ERGO    C117657   9.455  17.226   6.909 -0.0568  0.3062 -0.0020
 1324ERGO    C217658   9.246  17.131   7.088  0.2440  0.0117 -0.1889
 1325ERGO   ROH17659   3.310   3.665   5.411 -0.1001 -0.0765  0.0357
 1325ERGO    R117660   3.190   3.646   5.667 -0.1377  0.0142  0.0249
 1325ERGO    R217661   3.092   3.408   5.768  0.0150  0.0128  0.1689
 1325ERGO    R317662   3.255   3.467   5.977 -0.0704  0.2758  0.1657
 1325ERGO    R417663   3.012   3.359   6.100  0.2220 -0.4671  0.1571
 1325ERGO    R517664   3.107   3.550   6.146 -0.2555 -0.2381  0.2774
 1325ERGO    C117665   3.119   3.386   6.491  0.2624 -0.4996  0.1471
 1325ERGO    C217666   3.134   3.133   6.754 -0.2488  0.2845  0.3586
 1326ERGO   ROH17667   1.673  17.841   8.628  0.1073  0.0216  0.3767
 1326ERGO    R117668   1.864  17.856   8.420 -0.0707  0.0327  0.2118
 1326ERGO    R217669   2.120  17.753   8.445 -0.0595  0.0017 -0.0256
 1326ERGO    R317670   2.053  17.619   8.218 -0.2689  0.0436  0.0085
 1326ERGO    R417671   2.343  17.659   8.199 -0.2374 -0.2119 -0.1088
 1326ERGO    R517672   2.194  17.714   8.049 -0.2502 -0.0900 -0.0538
 1326ERGO    C117673   2.410  17.478   7.842 -0.5376 -0.2966 -0.1252
 1326ERGO    C217674   2.502  17.332   7.444  0.1012  0.1032  0.2788
 1327ERGO   ROH17675   8.901  17.176   5.701  0.4265 -0.0649  0.2301
 1327ERGO    R117676   8.760  17.139   5.943  0.3080 -0.0624  0.1626
 1327ERGO    R217677   8.790  16.913   6.100  0.2008 -0.0809  0.1607
 1327ERGO    R317678   8.844  17.095   6.295  0.1399 -0.1034  0.1983
 1327ERGO    R417679   8.660  16.904   6.420 -0.2408  0.1215 -0.0053
 1327ERGO    R517680   8.636  17.121   6.411  0.0074  0.1470 -0.0822
 1327ERGO    C117681   8.635  17.070   6.789 -0.5552  0.2181 -0.0667
 1327ERGO    C217682   8.803  16.909   7.119  0.0149  0.0769  0.3817
 1328ERGO   ROH17683  14.171   1.048   8.975  0.0040 -0.0494  0.0570
 1328ERGO    R117684  13.972   0.990   8.783  0.0970 -0.0596 -0.0370
 1328ERGO    R217685  13.859   1.185   8.622  0.0675 -0.0443  0.0034
 1328ERGO    R317686  13.937   1.019   8.422  0.2110  0.0719 -0.0387
 1328ERGO    R417687  13.800   1.239   8.286 -0.0985 -0.0719  0.0268
 1328ERGO    R517688  13.757   1.027   8.264  0.1510 -0.1252  0.0153
 1328ERGO    C117689  13.840   1.115   7.902 -0.0605  0.0211  0.0011
 1328ERGO    C217690  13.857   1.173   7.611  0.0845  0.2170 -0.2189
 1329ERGO   ROH17691  17.144  14.857   5.782  0.2180  0.1847  0.0234
 1329ERGO    R117692  16.994  14.749   5.996  0.2322  0.0606 -0.0284
 1329ERGO    R217693  17.106  14.692   6.242  0.1893  0.1807  0.0204
 1329ERGO    R317694  16.905  14.850   6.334  0.0054  0.0034 -0.0697
 1329ERGO    R417695  17.013  14.719   6.573  0.0671  0.1574 -0.0117
 1329ERGO    R517696  16.804  14.721   6.509  0.0809 -0.0609 -0.0726
 1329ERGO    C117697  16.770  14.884   6.853 -0.1765 -0.0227 -0.1150
 1329ERGO    C217698  16.600  15.030   7.035  0.1791 -0.1260 -0.1883
 1330ERGO   ROH17699   9.214  18.011   5.895  0.1778  0.0793 -0.0840
 1330ERGO    R117700   9.181  18.061   6.172  0.4059 -0.0671 -0.0285
 1330ERGO    R217701   9.382  18.167   6.329  0.3776  0.3267 -0.2476
 1330ERGO    R317702   9.192  18.350   6.392  0.0473 -0.0941  0.0298
 1330ERGO    R417703   9.407  18.398   6.585  0.2732  0.4254 -0.3258
 1330ERGO    R517704   9.197  18.362   6.631  0.4143 -0.0525  0.0256
 1330ERGO    C117705   9.242  18.704   6.793 -0.0975  0.0880 -0.1109
 1330ERGO    C217706   9.128  19.027   6.848  0.0172  0.0379  0.3998
 1331ERGO   ROH17707   4.357  15.307   9.104  0.1424 -0.3232  0.0553
 1331ERGO    R117708   4.193  15.273   8.876  0.0023 -0.3435  0.1564
 1331ERGO    R217709   4.273  15.348   8.622 -0.2480 -0.1339  0.1284
 1331ERGO    R317710   4.212  15.090   8.562 -0.0625 -0.1588  0.0459
 1331ERGO    R417711   4.133  15.241   8.324 -0.3541 -0.1224  0.1749
 1331ERGO    R517712   4.008  15.104   8.437 -0.1554 -0.2835  0.1907
 1331ERGO    C117713   3.995  14.937   8.095 -0.2417 -0.1392  0.1245
 1331ERGO    C217714   3.847  14.713   7.834 -0.0797  0.0947  0.1456
 1332ERGO   ROH17715  15.627   5.013   8.850 -0.3430 -0.2967  0.0193
 1332ERGO    R117716  15.564   5.021   8.574 -0.2108 -0.2777 -0.0111
 1332ERGO    R217717  15.648   5.226   8.408 -0.2561 -0.1879  0.0743
 1332ERGO    R317718  15.749   5.021   8.261 -0.0525 -0.0939  0.0805
 1332ERGO    R417719  15.657   5.217   8.063 -0.3478 -0.2383  0.0730
 1332ERGO    R517720  15.602   5.006   8.072 -0.0915 -0.3039  0.1262
 1332ERGO    C117721  15.757   5.020   7.723 -0.2099 -0.1792  0.0779
 1332ERGO    C217722  15.718   4.955   7.304 -0.0088  0.1681 -0.1342
 1333ERGO   ROH17723   6.701  12.704   9.121  0.1507 -0.0528 -0.0591
 1333ERGO    R117724   6.678  12.633   8.848  0.1456 -0.0818 -0.0513
 1333ERGO    R217725   6.497  12.752   8.677  0.1147 -0.1280 -0.0515
 1333ERGO    R317726   6.718  12.799   8.527  0.0973 -0.1046 -0.0691
 1333ERGO    R417727   6.493  12.875   8.354  0.0782 -0.0341 -0.0154
 1333ERGO    R517728   6.653  12.736   8.305  0.0591 -0.0347 -0.0784
 1333ERGO    C117729   6.699  12.991   8.025  0.0406  0.0426 -0.0109
 1333ERGO    C217730   6.692  13.333   7.869 -0.0700  0.0317  0.0167
 1334ERGO   ROH17731   9.111   1.153   9.124 -0.0659  0.1166 -0.0940
 1334ERGO    R117732   9.232   1.030   8.900 -0.0216  0.0174 -0.0169
 1334ERGO    R217733   9.127   0.803   8.779 -0.0822  0.0497 -0.0319
 1334ERGO    R317734   9.139   0.957   8.556  0.1039  0.0114 -0.0494
 1334ERGO    R417735   9.134   0.682   8.456 -0.0344  0.0035 -0.0130
 1334ERGO    R517736   9.280   0.835   8.406  0.0825 -0.0988  0.0221
 1334ERGO    C117737   9.149   0.756   8.057  0.1683 -0.0592 -0.0185
 1334ERGO    C217738   9.117   0.843   7.745 -0.1539  0.0240  0.0576
 1335ERGO   ROH17739  15.452  11.064   5.650 -0.2281 -0.0050  0.0502
 1335ERGO    R117740  15.569  11.128   5.900 -0.1404 -0.0074  0.0098
 1335ERGO    R217741  15.501  11.354   6.043 -0.1228 -0.0349  0.0595
 1335ERGO    R317742  15.455  11.174   6.242 -0.0105 -0.0599  0.0608
 1335ERGO    R417743  15.433  11.438   6.371 -0.2836 -0.0640  0.0349
 1335ERGO    R517744  15.560  11.272   6.434 -0.1469  0.0556  0.0801
 1335ERGO    C117745  15.351  11.318   6.750 -0.2715 -0.1043  0.0218
 1335ERGO    C217746  15.089  11.264   6.843 -0.0311  0.0170  0.0117
 1336ERGO   ROH17747  14.598  13.479   9.434  0.0553  0.0215 -0.1923
 1336ERGO    R117748  14.656  13.520   9.160  0.3150 -0.1525 -0.1674
 1336ERGO    R217749  14.747  13.318   8.995 -0.1272 -0.4225 -0.0982
 1336ERGO    R317750  14.535  13.392   8.842  0.1338  0.1335 -0.2171
 1336ERGO    R417751  14.697  13.222   8.667 -0.2895 -0.4582 -0.0635
 1336ERGO    R517752  14.627  13.423   8.624  0.3216 -0.2564 -0.2024
 1336ERGO    C117753  14.468  13.235   8.332 -0.1389  0.0430 -0.1551
 1336ERGO    C217754  14.504  13.320   7.925 -0.0697  0.2102  0.0364
 1337ERGO   ROH17755   8.586  10.648   5.538 -0.0470  0.0036 -0.2241
 1337ERGO    R117756   8.579  10.528   5.794 -0.0371 -0.0944 -0.2701
 1337ERGO    R217757   8.720  10.297   5.853  0.1724  0.0277 -0.2933
 1337ERGO    R317758   8.820  10.449   6.055 -0.0702  0.0587 -0.1912
 1337ERGO    R417759   8.777  10.185   6.175  0.1320 -0.0352 -0.3074
 1337ERGO    R517760   8.701  10.376   6.250 -0.0930 -0.1312 -0.2717
 1337ERGO    C117761   8.904  10.263   6.552 -0.1193 -0.0427 -0.2198
 1337ERGO    C217762   9.054  10.140   6.854  0.4026  0.2876  0.0439
 1338ERGO   ROH17763   4.502   8.320   9.027 -0.0091  0.1578  0.1883
 1338ERGO    R117764   4.374   8.393   8.785 -0.1057  0.2342  0.2612
 1338ERGO    R217765   4.320   8.657   8.719  0.2910  0.2986  0.1568
 1338ERGO    R317766   4.457   8.594   8.493 -0.0174 -0.0806  0.0652
 1338ERGO    R417767   4.298   8.829   8.421  0.1735  0.0324  0.0092
 1338ERGO    R517768   4.302   8.638   8.316 -0.1567 -0.0797  0.1860
 1338ERGO    C117769   4.413   8.870   8.034 -0.1844 -0.4789 -0.1626
 1338ERGO    C217770   4.488   8.910   7.724  0.2792 -0.0338  0.0479
 1339ERGO   ROH17771   8.292  17.982   7.326  0.0422 -0.2166 -0.2219
 1339ERGO    R117772   8.549  17.948   7.211  0.0311 -0.0909 -0.2840
 1339ERGO    R217773   8.658  18.130   7.035 -0.0024  0.0842 -0.1212
 1339ERGO    R317774   8.865  18.128   7.211  0.0219 -0.0712 -0.1481
 1339ERGO    R417775   8.981  18.229   6.961 -0.0206  0.1796 -0.0772
 1339ERGO    R517776   9.054  18.061   7.081  0.0090  0.0654 -0.2444
 1339ERGO    C117777   9.363  18.285   7.085 -0.0083  0.0895 -0.0769
 1339ERGO    C217778   9.573  18.385   7.139  0.4015 -0.2594  0.2364
 1340ERGO   ROH17779  15.759  14.494   5.618  0.0050  0.1297  0.1003
 1340ERGO    R117780  15.644  14.668   5.808 -0.0567  0.0474  0.1387
 1340ERGO    R217781  15.387  14.767   5.784 -0.0614  0.0265  0.1180
 1340ERGO    R317782  15.358  14.663   6.033 -0.1059 -0.0661  0.0748
 1340ERGO    R417783  15.145  14.863   6.011 -0.0319  0.0251  0.1504
 1340ERGO    R517784  15.295  14.849   6.169 -0.0390 -0.0961  0.1500
 1340ERGO    C117785  14.977  14.821   6.378 -0.0564 -0.0627  0.1288
 1340ERGO    C217786  14.615  14.976   6.507 -0.0011 -0.1481  0.3883
 1341ERGO   ROH17787  18.219  17.215   9.309  0.2253 -0.2323 -0.1188
 1341ERGO    R117788  18.041  17.164   9.095  0.1641 -0.0747 -0.1066
 1341ERGO    R217789  18.102  17.226   8.833  0.1700 -0.0622 -0.1033
 1341ERGO    R317790  18.042  16.964   8.791 -0.0042 -0.0162 -0.1468
 1341ERGO    R417791  18.042  17.083   8.523  0.0089  0.0412 -0.1204
 1341ERGO    R517792  17.881  16.967   8.614 -0.0434  0.1226 -0.1091
 1341ERGO    C117793  17.950  16.755   8.305 -0.2485  0.1444 -0.1710
 1341ERGO    C217794  18.055  16.549   8.106 -0.2428  0.1661 -0.2639
 1342ERGO   ROH17795  11.807   7.719   5.533  0.3037 -0.1456  0.0889
 1342ERGO    R117796  11.709   7.527   5.716  0.1889 -0.0068  0.1762
 1342ERGO    R217797  11.734   7.555   5.989  0.0600  0.1783  0.1712
 1342ERGO    R317798  11.465   7.518   5.985  0.0562  0.2138  0.0662
 1342ERGO    R417799  11.531   7.559   6.269  0.0023 -0.1577  0.1378
 1342ERGO    R517800  11.420   7.391   6.184 -0.0007 -0.0384 -0.1030
 1342ERGO    C117801  11.160   7.526   6.428 -0.0350 -0.3200  0.0199
 1342ERGO    C217802  10.853   7.549   6.579  0.0926  0.1292  0.1585
 1343ERGO   ROH17803  10.410   3.634   8.347  0.0289 -0.2159 -0.0644
 1343ERGO    R117804  10.420   3.779   8.104 -0.0549 -0.1351 -0.0202
 1343ERGO    R217805  10.651   3.802   7.954 -0.0934 -0.0393 -0.0638
 1343ERGO    R317806  10.493   3.706   7.755 -0.1171 -0.0066 -0.0612
 1343ERGO    R417807  10.676   3.892   7.622 -0.0914 -0.0282 -0.0608
 1343ERGO    R517808  10.458   3.894   7.611 -0.0931  0.0064 -0.0517
 1343ERGO    C117809  10.543   3.854   7.241 -0.1125  0.0088 -0.0566
 1343ERGO    C217810  10.733   3.694   7.007 -0.0067  0.1966  0.2683
 1344ERGO   ROH17811  10.831   7.020   8.965  0.2269  0.2010  0.1312
 1344ERGO    R117812  10.970   7.109   8.735  0.0960  0.1672  0.0365
 1344ERGO    R217813  11.134   6.943   8.587  0.1113  0.1752  0.0373
 1344ERGO    R317814  10.977   7.025   8.381 -0.0125  0.0205  0.0692
 1344ERGO    R417815  11.241   6.982   8.261 -0.0360  0.1467 -0.0144
 1344ERGO    R517816  11.121   7.163   8.248 -0.1481  0.0678 -0.0249
 1344ERGO    C117817  11.156   7.081   7.877 -0.2381 -0.0151 -0.0145
 1344ERGO    C217818  11.195   6.954   7.507  0.2226  0.1684  0.0247
 1345W        W17819  13.838   0.926  10.360  0.0433 -0.2515 -0.0256
 1346W        W17820   0.438   5.186   2.431  0.1488 -0.2711  0.3128
 1347W        W17821   8.836   4.733  14.632 -0.3029  0.0671  0.1244
 1348W        W17822   1.070  12.345  12.939  0.0501 -0.1418  0.0009
 1349W        W17823  18.101  18.858   0.856 -0.1785  0.1313 -0.0617
 1350W        W17824   9.476   1.301   1.011 -0.0843 -0.0570  0.1892
 1351W        W17825  14.511  16.990  14.217  0.1733  0.2845 -0.1749
 1352W        W17826  16.938  12.385   5.485 -0.0325  0.1512  0.0281
 1353W        W17827   8.769   6.675  12.076 -0.3670 -0.0689  0.3744
 1354W        W17828  18.021  10.282  12.042  0.0131  0.1891 -0.0883
 1355W        W17829   4.187  18.754  11.680 -0.1502  0.2543  0.2961
 1356W        W17830  12.924  17.518  14.472 -0.0442  0.0373 -0.0632
 1357W        W17831   2.105   9.984   4.159 -0.1539 -0.0947  0.1966
 1358W        W17832   8.034  13.607   1.916  0.0440 -0.2113  0.1004
 1359W        W17833   9.193   4.566  10.280  0.1947 -0.1285  0.2153
 1360W        W17834  14.939  12.372  13.522 -0.1902 -0.2482 -0.1559
 1361W        W17835  15.665   3.107   0.087  0.3709 -0.0428 -0.0909
 1362W        W17836   0.772  17.504  11.039 -0.1511  0.1956 -0.1680
 1363W        W17837  16.895   2.552   1.619  0.0107 -0.1410  0.0258
 1364W        W17838  11.039  15.299   4.178  0.0296 -0.0541  0.1448
 1365W        W17839  14.690   0.683  13.852 -0.1317  0.5397  0.1173
 1366W        W17840  11.637  18.134   1.183 -0.0408  0.1212  0.2684
 1367W        W17841  10.329   3.104  12.124 -0.1810  0.2284 -0.0556
 1368W        W17842  17.977  10.390   3.240 -0.1654 -0.0469  0.1544
 1369W        W17843  10.602  16.620   0.826  0.0335 -0.3024 -0.1714
 1370W        W17844   5.233  13.689   9.494  0.0414  0.0830 -0.1676
 1371W        W17845   3.863  15.833  14.430 -0.1017  0.0959  0.1075
 1372W        W17846  13.022   3.530   0.396 -0.0880 -0.1330 -0.2913
 1373W        W17847  10.021  18.931   1.416 -0.1209  0.0258  0.1163
 1374W        W17848   6.111   5.912  11.030 -0.1828 -0.1218 -0.0036
 1375W        W17849  19.128   8.076   1.566  0.3159 -0.1260  0.0376
 1376W        W17850   3.334   2.295   4.010  0.0705 -0.0646 -0.2671
 1377W        W17851  10.555   9.056   3.012  0.1956 -0.0534  0.1100
 1378W        W17852   3.854   5.980  12.898  0.0339 -0.1792 -0.3074
 1379W        W17853   9.796  14.263   3.402 -0.0473 -0.2306  0.0525
 1380W        W17854   6.752   2.388   4.380  0.0016  0.3010 -0.1112
 1381W        W17855   8.815  17.794  13.192 -0.0483  0.2706  0.3468
 1382W        W17856   1.604  11.502  12.161  0.0548 -0.2062  0.1531
 1383W        W17857   9.278  15.490   1.591  0.1094 -0.0600  0.0304
 1384W        W17858  18.880  17.857  13.224  0.0225 -0.1981  0.4018
 1385W        W17859   0.270   7.250  11.176  0.1661  0.1003 -0.0057
 1386W        W17860  12.887  14.471  11.512 -0.1510  0.3684  0.1603
 1387W        W17861  13.388  14.302   0.616 -0.0481  0.1122  0.2511
 1388W        W17862  12.095  10.986   2.728  0.1168 -0.0895 -0.1951
 1389W        W17863   6.574   1.438   2.655 -0.3644  0.0938  0.2031
 1390W        W17864   2.146   1.347   3.902  0.1407  0.0908  0.0681
 1391W        W17865   7.288  10.568   1.162  0.0845  0.1120 -0.0364
 1392W        W17866  14.301   6.289  11.857  0.0809  0.0450 -0.3080
 1393W        W17867  10.675   6.786  10.971 -0.0404 -0.1262 -0.0459
 1394W        W17868  19.061   3.279   1.517 -0.0053  0.1413  0.1143
 1395W        W17869  17.119  12.860   0.818 -0.0120 -0.1320 -0.1659
 1396W        W17870  13.780   2.307   5.078  0.1249  0.0794  0.1870
 1397W        W17871  10.102   1.609   1.718  0.0772  0.0067 -0.1746
 1398W        W17872  18.312  13.125  14.112  0.0476 -0.1228 -0.1050
 1399W        W17873   3.190   9.046   2.930 -0.0001  0.3275 -0.1155
 1400W        W17874  13.644  13.879   1.615 -0.2391  0.1538  0.1639
 1401W        W17875   7.256  18.415  11.559 -0.0344 -0.0980  0.2536
 1402W        W17876   6.992   5.928  11.579 -0.2117 -0.1627 -0.0920
 1403W        W17877   6.362  17.368   1.443 -0.1980 -0.2960  0.0316
 1404W        W17878  11.149  10.239  13.839  0.0941  0.1300 -0.0805
 1405W        W17879  10.186  19.603  10.166 -0.3398  0.1571  0.1565
 1406W        W17880   2.604  17.265   4.100  0.1066 -0.1613  0.0476
 1407W        W17881  14.332   7.900   1.149 -0.1289  0.0215  0.0424
 1408W        W17882   8.249   9.497  13.611 -0.1792  0.1162  0.3182
 1409W        W17883  12.417  18.041   4.182  0.1416  0.1472  0.0898
 1410W        W17884  10.644  12.023  10.730  0.1643  0.0828 -0.0052
 1411W        W17885   9.929   7.368   0.540 -0.1735  0.1969  0.0131
 1412W        W17886  19.456   4.656  12.517  0.1382 -0.0210 -0.1246
 1413W        W17887   1.398  15.191   0.952  0.0779 -0.1577  0.1239
 1414W        W17888   0.712   4.638  13.780 -0.1074 -0.0715  0.0094
 1415W        W17889   4.728   4.419   2.324  0.0102 -0.1944  0.2490
 1416W        W17890   6.086   2.306  14.136  0.0249 -0.2967 -0.0487
 1417W        W17891  12.270   0.360  13.185  0.2215  0.1494 -0.1273
 1418W        W17892  15.476   5.401   1.915 -0.2829  0.1877 -0.0330
 1419W        W17893   7.891  18.629  12.889 -0.1794  0.0952 -0.3780
 1420W        W17894   3.775   6.404   1.782 -0.2460  0.2731 -0.0367
 1421W        W17895  11.440  18.887   1.111  0.5020 -0.2216 -0.2741
 1422W        W17896  13.104  12.576   2.882  0.0824 -0.1659  0.0065
 1423W        W17897  16.278  18.801   9.845 -0.1558  0.0251 -0.1460
 1424W        W17898  14.755  14.594  10.892  0.1604  0.1341 -0.0653
 1425W        W17899   3.149  12.551   3.086 -0.1343  0.1862 -0.0964
 1426W        W17900  12.199   2.899   3.794  0.1184 -0.2890 -0.0913
 1427W        W17901   6.145  17.557  11.173 -0.2508 -0.0592  0.0694
 1428W        W17902   2.285  10.126  12.135 -0.0772  0.0633  0.3941
 1429W        W17903   9.938   1.239  11.488 -0.0111 -0.2456  0.0365
 1430W        W17904  14.448  12.831  14.215 -0.0154 -0.0208  0.0455
 1431W        W17905  14.969   9.955   3.563 -0.0070 -0.3405  0.0140
 1432W        W17906   8.836  10.397   1.811 -0.4059  0.2903 -0.1163
 1433W        W17907   5.195  17.666   3.459 -0.0921  0.2267  0.0193
 1434W        W17908   2.211   8.299   0.393  0.0706  0.0254  0.0012
 1435W        W17909   0.758   9.876  10.341  0.3016  0.3103  0.2465
 1436W        W17910   9.475  15.301   4.251  0.2246 -0.3493  0.1689
 1437W        W17911   1.696   9.674  10.426 -0.0178  0.2543 -0.4587
 1438W        W17912   3.484   5.448   2.390  0.1904 -0.2725  0.2278
 1439W        W17913  12.050  18.163  11.624  0.0214 -0.1299 -0.0390
 1440W        W17914  16.025   6.125   0.876  0.3318  0.1907  0.1780
 1441W        W17915   0.290  19.390   1.119 -0.0406  0.2422 -0.0202
 1442W        W17916   9.332   8.188   4.829  0.2645  0.0733  0.1438
 1443W        W17917   5.528  13.557  10.453  0.0502 -0.1485 -0.0956
 1444W        W17918   3.613  17.114  13.831 -0.0562 -0.1371 -0.2956
 1445W        W17919  11.099   0.528   3.765 -0.0609 -0.0670  0.0306
 1446W        W17920  14.155   5.971  13.035 -0.2675  0.0859 -0.0540
 1447W        W17921   3.676  18.576   2.347 -0.0816 -0.2421 -0.0128
 1448W        W17922  11.594   8.929  12.291 -0.1605  0.0598 -0.1770
 1449W        W17923  16.787  17.681  12.983 -0.2170  0.1696  0.0563
 1450W        W17924  16.499  18.818  12.636 -0.0894  0.2420  0.0463
 1451W        W17925  18.629  10.392   3.435  0.1268 -0.0230 -0.0791
 1452W        W17926   6.061   8.401   3.113 -0.1766 -0.0146 -0.2789
 1453W        W17927  17.861   1.218   4.015  0.0685  0.2223  0.4097
 1454W        W17928  16.759   6.511  11.027 -0.5585  0.0433 -0.1346
 1455W        W17929   6.528  16.342   3.317 -0.1072  0.0017  0.0660
 1456W        W17930  16.691  11.809   3.886  0.1497  0.1811  0.2455
 1457W        W17931   3.978   1.384   0.281  0.3103  0.1585  0.1454
 1458W        W17932   6.995   9.737  10.708  0.2465 -0.2491 -0.4244
 1459W        W17933   6.050  14.386  13.806  0.0531 -0.0283  0.1465
 1460W        W17934  16.324   2.718   1.426 -0.1219  0.1574 -0.4343
 1461W        W17935  17.040   7.373  13.042 -0.2628 -0.0408  0.0320
 1462W        W17936   3.064   9.379   3.672  0.0638 -0.2408 -0.3773
 1463W        W17937  15.147   6.610   1.289  0.2264 -0.1114  0.2362
 1464W        W17938   3.673   3.710   9.989  0.1037 -0.2483  0.0691
 1465W        W17939  10.317  12.144  11.146 -0.2053 -0.1865 -0.1863
 1466W        W17940  15.723   7.022  12.748 -0.2030 -0.1585 -0.0862
 1467W        W17941  18.691   8.039   0.405 -0.1982 -0.1823 -0.1503
 1468W        W17942  18.776  11.543   2.808 -0.0443 -0.1150 -0.2177
 1469W        W17943   5.788  14.785  12.574 -0.1279 -0.0110  0.2078
 1470W        W17944   8.169  14.791   0.985 -0.1138 -0.2329 -0.1226
 1471W        W17945  16.837   8.785  11.832  0.0264 -0.0915  0.0133
 1472W        W17946   2.130  14.990   0.890 -0.1652  0.3496 -0.0159
 1473W        W17947  10.533   5.682  14.566 -0.2739 -0.3492  0.0533
 1474W        W17948  14.739   9.895   5.100  0.0462 -0.1010  0.0875
 1475W        W17949  13.891  16.986   4.494 -0.0139  0.1084 -0.1915
 1476W        W17950   3.203  11.139   3.844  0.0881  0.1301 -0.0976
 1477W        W17951   1.814  13.608   1.251  0.2565  0.1244 -0.0045
 1478W        W17952  17.379  13.433   4.233  0.0607 -0.0060 -0.1992
 1479W        W17953  18.872   8.634   2.668 -0.0804 -0.1461  0.2032
 1480W        W17954   6.985   8.308  10.122  0.2488  0.2033  0.0289
 1481W        W17955   5.996   2.463   8.763  0.0249  0.1466  0.0539
 1482W        W17956  15.427  19.245  10.329  0.0970 -0.0178  0.0324
 1483W        W17957   6.435  16.613  10.004 -0.2788 -0.0627  0.1374
 1484W        W17958   5.550   9.029   0.954 -0.0818 -0.0107  0.1832
 1485W        W17959  13.372  16.077  13.944 -0.5006  0.0135  0.2744
 1486W        W17960   1.117   0.321  10.720  0.0842 -0.1257 -0.2017
 1487W        W17961   4.714  13.645  14.653  0.3178 -0.0494  0.3563
 1488W        W17962  11.119  15.272  11.808 -0.3059  0.0112 -0.0921
 1489W        W17963   1.657  14.127   9.541 -0.1426  0.1507  0.3512
 1490W        W17964  17.857   5.749  13.656 -0.2490  0.1572  0.1603
 1491W        W17965   1.101   1.925   0.857 -0.2909 -0.3461  0.0698
 1492W        W17966   0.109  19.157  10.905 -0.1148  0.0588 -0.1096
 1493W        W17967   5.001   1.615   1.432  0.0656  0.3286  0.0788
 1494W        W17968  13.239  19.311   1.155  0.2483  0.2129 -0.0694
 1495W        W17969   0.213  13.268  13.420 -0.0733 -0.1218  0.1803
 1496W        W17970  10.593   4.765  14.078  0.0037  0.3813  0.2503
 1497W        W17971   3.284  17.482   3.350  0.1656  0.0718  0.0041
 1498W        W17972   9.024   9.393   3.793 -0.1905  0.1211  0.1496
 1499W        W17973  17.874   3.078   4.302  0.0279  0.0067  0.2491
 1500W        W17974  16.023   2.149  14.648  0.1703  0.5207 -0.0737
 1501W        W17975  18.559   1.139  10.979 -0.2834  0.2594  0.0213
 1502W        W17976  17.736   4.346  12.950  0.1789  0.3502  0.2213
 1503W        W17977   2.589   2.995  10.039  0.0062 -0.0717  0.1223
 1504W        W17978  19.364   9.818   3.139 -0.1769  0.2797 -0.0928
 1505W        W17979   6.523  15.658  13.561  0.1580 -0.0050  0.2319
 1506W        W17980   6.256  10.248   5.576 -0.0594  0.3720  0.0646
 1507W        W17981  19.334  16.775   2.076  0.1573 -0.2783 -0.1667
 1508W        W17982   5.601  17.093  13.378 -0.0416  0.2421 -0.0596
 1509W        W17983  18.379  18.478   1.369  0.0828  0.0882  0.0167
 1510W        W17984   7.563  12.328  13.681 -0.1536  0.0687  0.0772
 1511W        W17985  17.054   0.439   0.817 -0.0882  0.2471 -0.0017
 1512W        W17986  14.596  15.497   4.867  0.1564  0.0846  0.0529
 1513W        W17987  18.686  17.606   0.813 -0.0390  0.1696 -0.2164
 1514W        W17988   9.277   3.186  10.979 -0.3313  0.0872  0.3187
 1515W        W17989  16.470  16.524   0.725  0.4276  0.2374  0.0440
 1516W        W17990   1.918   6.511  10.846 -0.4229  0.4139 -0.2118
 1517W        W17991   1.688   1.964  12.236  0.0315 -0.0640  0.0820
 1518W        W17992   8.662   4.921   3.236  0.0907  0.0589 -0.2007
 1519W        W17993   1.331   2.280  13.889 -0.0008 -0.0185 -0.1987
 1520W        W17994   5.961   9.205   1.256  0.2274  0.2932  0.0729
 1521W        W17995  17.386   9.221   0.182 -0.3338  0.0161 -0.2683
 1522W        W17996  15.017  10.862   2.906 -0.1641  0.2993 -0.1115
 1523W        W17997  12.036  12.480   2.920  0.1607 -0.0124 -0.2815
 1524W        W17998   2.144  19.200  10.429  0.0253 -0.1881 -0.0322
 1525W        W17999   4.175   0.357   4.077  0.0275 -0.0293  0.1942
 1526W        W18000   8.785   0.294   1.343 -0.0405  0.1841 -0.2104
 1527W        W18001  17.236   6.632  10.954 -0.0425  0.1264 -0.0001
 1528W        W18002  12.758  11.896   3.357  0.2264 -0.0695  0.3680
 1529W        W18003   1.915  12.043   9.734 -0.0569  0.1756  0.3262
 1530W        W18004   0.792  17.953  10.245  0.2972 -0.4131 -0.2107
 1531W        W18005   3.106   2.366   9.412  0.1255 -0.2154  0.1499
 1532W        W18006  13.819   8.969   0.013  0.1532 -0.3991 -0.0011
 1533W        W18007  12.173  18.142  14.215 -0.1371 -0.2031 -0.0927
 1534W        W18008   3.897   9.446   1.621  0.1143 -0.4932 -0.2000
 1535W        W18009   7.828   3.569  13.475 -0.0436 -0.4285  0.0575
 1536W        W18010   6.924   2.342   0.395  0.1999 -0.0762 -0.0371
 1537W        W18011  15.407   8.989  13.010 -0.2110  0.1231 -0.0739
 1538W        W18012  14.227   6.781  11.517 -0.1883  0.1050 -0.0761
 1539W        W18013   6.554  14.189  13.026 -0.1417 -0.0527 -0.1227
 1540W        W18014  12.248  13.741  13.124 -0.2476 -0.2699  0.0062
 1541W        W18015  10.179  14.138   1.342  0.1318 -0.0115  0.2718
 1542W        W18016   1.894   2.412   0.692 -0.3477 -0.4670  0.0998
 1543W        W18017   7.994  11.220  14.514 -0.4258 -0.1865 -0.0244
 1544W        W18018   7.597  11.397   1.031  0.0726 -0.0904  0.2285
 1545W        W18019  16.382  10.289   4.927  0.3048 -0.1426 -0.0045
 1546W        W18020  10.414   9.183  14.405 -0.1658 -0.1175 -0.3087
 1547W        W18021   6.384  11.743   2.598  0.1686 -0.0580 -0.1619
 1548W        W18022  18.677  16.442   0.227 -0.1745 -0.1449  0.0559
 1549W        W18023  11.288  14.158   0.413  0.1050  0.1840  0.0525
 1550W        W18024  13.566  14.796  12.358  0.2027  0.0892 -0.1016
 1551W        W18025   9.048   2.466   0.477  0.1152 -0.1240 -0.0212
 1552W        W18026   3.031  10.604  10.280 -0.1242  0.3709 -0.1674
 1553W        W18027   4.647  12.786   2.090  0.1795 -0.1541  0.0127
 1554W        W18028  18.386   3.506  14.431 -0.0012 -0.1124 -0.2311
 1555W        W18029   6.090   3.068  12.883  0.1216 -0.0985 -0.1272
 1556W        W18030  15.189  16.135   2.609 -0.1542  0.2923  0.1653
 1557W        W18031  12.078   0.462   3.375 -0.1830  0.0687  0.0663
 1558W        W18032  17.145  18.017  11.688 -0.6595 -0.0779 -0.3197
 1559W        W18033  14.704   0.317  14.216 -0.1568  0.3422 -0.2747
 1560W        W18034   2.861   6.432  12.071  0.0710 -0.0575  0.0332
 1561W        W18035   3.045  17.639  12.140  0.2893  0.0853  0.4446
 1562W        W18036  13.144  14.658  11.891  0.2849 -0.2334  0.2071
 1563W        W18037   8.057  13.214  13.919  0.0749 -0.2573 -0.2935
 1564W        W18038  11.814  14.383  13.615  0.0157  0.1523 -0.1666
 1565W        W18039   7.593   7.353  12.581  0.2767  0.0019  0.0946
 1566W        W18040   1.457   6.551  13.708  0.3223  0.0097  0.1017
 1567W        W18041  17.032  13.466   1.338 -0.2547  0.3029  0.0651
 1568W        W18042  16.686  17.843  11.592  0.0972 -0.3027  0.0255
 1569W        W18043   3.186  13.852  13.680  0.3414 -0.3237 -0.2256
 1570W        W18044  16.225  13.097   1.842 -0.0908 -0.2744  0.3054
 1571W        W18045   2.683   2.347  11.244  0.2010  0.0506 -0.0425
 1572W        W18046  15.578   2.804   2.058  0.1749 -0.1840 -0.4024
 1573W        W18047   3.408  18.749   3.772  0.4427  0.1311 -0.1398
 1574W        W18048  10.581   9.177   3.500  0.3941 -0.1501 -0.3421
 1575W        W18049  15.701  12.794  14.648  0.0054 -0.1727 -0.1993
 1576W        W18050  13.165  13.869   3.601 -0.0142  0.0223  0.1955
 1577W        W18051   9.537  12.487   0.967  0.0446 -0.0175  0.1915
 1578W        W18052   7.635  16.978   2.710 -0.3667  0.2042  0.0473
 1579W        W18053   7.260  17.008  12.280  0.0456  0.0937 -0.0592
 1580W        W18054   8.514   9.055   3.145  0.0171  0.1916 -0.0535
 1581W        W18055   8.623   9.920   3.318 -0.0240  0.0542  0.0246
 1582W        W18056  19.345  14.165   0.546 -0.0006 -0.0950 -0.1375
 1583W        W18057  11.444  14.737  13.707 -0.2680  0.0164 -0.1714
 1584W        W18058  11.609   6.372  10.093 -0.0438 -0.0815 -0.2251
 1585W        W18059   0.870  16.011   4.175  0.3987  0.0581  0.6703
 1586W        W18060   5.417  13.056  14.391  0.3068  0.1487  0.0045
 1587W        W18061  17.640  13.074  14.663  0.2496 -0.1085 -0.0346
 1588W        W18062   2.899   3.856   4.290 -0.2340 -0.1635 -0.2723
 1589W        W18063   1.797   3.414   0.025  0.1725 -0.2420  0.0751
 1590W        W18064  17.787  15.484  12.985  0.0797 -0.1807  0.0822
 1591W        W18065   9.214  19.357  13.092  0.2139 -0.0669  0.0049
 1592W        W18066  12.780   1.347  10.170 -0.1809 -0.0990 -0.0098
 1593W        W18067  17.423  15.053  11.835  0.0537  0.0714  0.0595
 1594W        W18068  12.497  11.445   2.743  0.0649  0.2733  0.1041
 1595W        W18069   2.459  17.688   1.642 -0.0910 -0.0483 -0.5583
 1596W        W18070   7.288  16.355   2.114 -0.0160 -0.3212 -0.3965
 1597W        W18071   9.962   9.974   9.540  0.0716 -0.1609  0.2352
 1598W        W18072   9.851   3.280  14.281  0.0105 -0.0597  0.2537
 1599W        W18073   5.910  10.491   9.097 -0.1302  0.3252  0.1694
 1600W        W18074   8.934   6.300   1.242  0.2053 -0.1776  0.4652
 1601W        W18075  11.601  11.556  11.551  0.2737  0.2594  0.0591
 1602W        W18076   8.681   5.911  11.703 -0.0685  0.0464  0.0039
 1603W        W18077   1.559   9.027  13.035  0.2458  0.1964 -0.0832
 1604W        W18078  13.276   8.498   0.473 -0.2039 -0.0529  0.2549
 1605W        W18079  14.201  16.472  14.129 -0.0207 -0.0127  0.1262
 1606W        W18080  16.634   4.738  10.326 -0.0353 -0.0120 -0.4082
 1607W        W18081   0.726  11.741  12.320  0.2822  0.1086  0.0867
 1608W        W18082  14.323  10.849   4.396 -0.0441  0.1925 -0.0059
 1609W        W18083  12.790   6.530   1.393  0.0697 -0.4139 -0.3044
 1610W        W18084  16.336   9.839   5.067 -0.0215 -0.0253 -0.0201
 1611W        W18085  15.580   1.769   1.846 -0.1754 -0.2609 -0.1893
 1612W        W18086   8.111   8.214  12.376  0.0547  0.0547  0.2611
 1613W        W18087   2.870  10.750  13.141  0.1429  0.0049 -0.2834
 1614W        W18088   6.450  14.319   4.872  0.2088 -0.0016 -0.0400
 1615W        W18089   5.316  13.965  10.686  0.0721  0.1499 -0.1649
 1616W        W18090   8.385   1.856   4.833 -0.1675 -0.2282 -0.2056
 1617W        W18091  17.911   6.403   2.658 -0.0658  0.0029 -0.5270
 1618W        W18092  17.598   9.518  12.617 -0.1677  0.0302  0.0914
 1619W        W18093   5.035  12.036   1.767  0.1919  0.0689  0.3367
 1620W        W18094   6.992  11.989  13.227  0.0536  0.2166  0.3181
 1621W        W18095  10.252   1.850   9.562  0.0294  0.1945  0.1190
 1622W        W18096   3.322  13.663   3.763 -0.0990  0.2293 -0.3323
 1623W        W18097   5.545  16.183   1.138  0.0448  0.0242 -0.0274
 1624W        W18098  11.172   3.918   9.212 -0.2955  0.2688  0.1246
 1625W        W18099  11.613   3.182   1.397  0.3707  0.1883 -0.3645
 1626W        W18100  18.348  16.370   3.477 -0.0901  0.1350  0.1623
 1627W        W18101  14.085   7.442  10.956  0.0237  0.0199 -0.2274
 1628W        W18102   2.842   6.914   3.285  0.0765  0.0970  0.2381
 1629W        W18103  16.009  18.469  11.393 -0.1659  0.0709  0.1832
 1630W        W18104   6.724   3.677   0.000 -0.3165 -0.1913 -0.3477
 1631W        W18105   2.753   7.798  12.368  0.1178 -0.4116 -0.1093
 1632W        W18106   2.583  12.882  11.589 -0.2889 -0.0580  0.2454
 1633W        W18107  19.321  18.228  12.388  0.1066  0.1110  0.2283
 1634W        W18108  18.852   4.817   1.341  0.1475 -0.4504 -0.0405
 1635W        W18109  16.938  10.067  10.332  0.0683  0.0688 -0.2375
 1636W        W18110  18.123  14.304   3.833  0.0614  0.2236 -0.2168
 1637W        W18111   0.067   0.191  10.235  0.1448  0.1199 -0.0942
 1638W        W18112   4.543   0.574  10.363  0.1491  0.1925 -0.0911
 1639W        W18113  10.270  11.482   2.888  0.0245 -0.2893 -0.4166
 1640W        W18114  17.416  16.857  13.206  0.3313  0.4313 -0.0063
 1641W        W18115   8.808   3.541   9.756  0.0162  0.0735  0.3164
 1642W        W18116  14.258  13.134   3.046  0.2183  0.0761 -0.1102
 1643W        W18117   6.244   7.164   2.218 -0.1324 -0.2513  0.3437
 1644W        W18118  12.933   4.032  13.723 -0.0862 -0.4062  0.0295
 1645W        W18119  16.917   6.402   1.640  0.2666  0.1567  0.0296
 1646W        W18120  15.627   8.802  14.264  0.0772  0.0685 -0.0136
 1647W        W18121  17.756   4.417   2.271  0.2093  0.1584  0.0223
 1648W        W18122   2.563  10.115  13.937  0.0327  0.0259  0.1173
 1649W        W18123  15.225   4.259   2.732  0.0281  0.0280 -0.0065
 1650W        W18124   6.037  19.604  14.359 -0.1757 -0.1180  0.0870
 1651W        W18125  13.716   1.532  11.233  0.1702 -0.2099  0.1063
 1652W        W18126   1.245  10.673   1.295 -0.1532 -0.3851  0.1028
 1653W        W18127  14.852   0.216  12.635  0.2350  0.1785 -0.0642
 1654W        W18128   6.829  11.668  14.521 -0.1231  0.0703  0.1363
 1655W        W18129  19.292   9.763   0.599 -0.0949  0.0282 -0.0027
 1656W        W18130  15.026  18.509  11.679 -0.0333  0.1329  0.0656
 1657W        W18131  19.141   0.439   1.662 -0.0051  0.1186 -0.2280
 1658W        W18132   2.364  12.244   5.016 -0.4533  0.1592  0.3041
 1659W        W18133  14.783   8.023  13.797  0.0967 -0.1374  0.0581
 1660W        W18134   3.353  18.489  13.163 -0.4369  0.0459 -0.0039
 1661W        W18135   3.726  16.568  13.886  0.1394 -0.1781 -0.2265
 1662W        W18136   3.225  13.905   2.783  0.2190 -0.0320  0.2092
 1663W        W18137  10.452  14.448   0.954 -0.2259  0.0336 -0.2399
 1664W        W18138  18.478  14.307   2.894  0.0762 -0.3979  0.0706
 1665W        W18139  13.609   7.900  13.103  0.0923 -0.0144  0.0325
 1666W        W18140   3.725   7.246   2.219 -0.2696  0.0814  0.1398
 1667W        W18141   5.002  17.822  12.082 -0.1632 -0.0015 -0.3134
 1668W        W18142  11.094   6.444  10.136  0.1466 -0.1638  0.3682
 1669W        W18143  11.946   2.976  13.312 -0.0602 -0.0657  0.0243
 1670W        W18144  11.100   6.322  14.146 -0.2130  0.0978  0.1523
 1671W        W18145  17.147   6.281  13.091  0.1235 -0.5051 -0.1150
 1672W        W18146  17.885  12.362   2.118 -0.0962 -0.1699 -0.4215
 1673W        W18147   2.098   0.636   1.700  0.0211  0.3478 -0.0267
 1674W        W18148  15.967  11.886   2.891  0.0409 -0.2587 -0.1759
 1675W        W18149   5.973   5.990   4.362  0.0068  0.0481 -0.0291
 1676W        W18150  17.270  13.800  12.146  0.1838  0.2202  0.0243
 1677W        W18151   9.089  16.208   5.333 -0.0079  0.4743  0.1570
 1678W        W18152  12.595  18.000   0.663 -0.0411 -0.3302 -0.3399
 1679W        W18153  17.349  14.073   2.921 -0.2443  0.0354 -0.1260
 1680W        W18154  10.965  11.375   0.672  0.0038  0.1193  0.0747
 1681W        W18155  17.448   8.044  10.676 -0.2440  0.1041 -0.2062
 1682W        W18156  15.873   6.400  13.725 -0.2521  0.1284  0.1687
 1683W        W18157  15.241  11.822  12.246 -0.1157  0.1193 -0.1370
 1684W        W18158   0.878  16.369   0.080  0.1757 -0.2084 -0.1143
 1685W        W18159   9.846  19.090   4.760  0.1639 -0.2111 -0.0426
 1686W        W18160  19.536   3.524   4.368  0.0511  0.2862  0.1415
 1687W        W18161  10.451  18.616  14.119  0.0807  0.1996 -0.0748
 1688W        W18162   5.726  10.270   0.148  0.0623  0.0397 -0.1503
 1689W        W18163  11.469  12.914   4.356  0.0552 -0.0936 -0.2643
 1690W        W18164   8.723  16.518   4.158 -0.1497 -0.0497  0.1965
 1691W        W18165  16.901  10.343   0.510 -0.0671 -0.3426 -0.2220
 1692W        W18166  13.834  10.351   2.375 -0.1747 -0.2386 -0.1438
 1693W        W18167   1.095  17.237  10.777 -0.0464  0.0072  0.1136
 1694W        W18168   2.602  18.588  12.198 -0.0476 -0.2612  0.1840
 1695W        W18169  14.760  12.409  12.816 -0.1738  0.2939 -0.0877
 1696W        W18170   9.634  14.552  12.446  0.0183  0.0083 -0.2317
 1697W        W18171   0.055  17.948   2.783  0.0527 -0.3032  0.0273
 1698W        W18172   2.192   6.650   0.949 -0.2598  0.3853  0.0223
 1699W        W18173  13.534  13.143  13.214  0.2087 -0.4168  0.0476
 1700W        W18174  11.945   7.252  11.122 -0.2618 -0.0066  0.2676
 1701W        W18175  18.461   3.897  11.852 -0.2347  0.2384 -0.2053
 1702W        W18176  10.841   3.350  10.680  0.1686 -0.1579  0.0443
 1703W        W18177   5.205   6.432   1.621 -0.0143  0.0874 -0.0779
 1704W        W18178   8.613   5.873   2.208 -0.0906  0.1411  0.0426
 1705W        W18179   5.707   2.966   0.219  0.1735  0.1551  0.1295
 1706W        W18180  19.033  14.844  10.007 -0.4328  0.3005 -0.1564
 1707W        W18181   7.080  15.351   1.598  0.0546  0.0742 -0.2113
 1708W        W18182  19.372  11.850  13.213  0.2117 -0.0316 -0.1774
 1709W        W18183   9.605   0.395   0.750 -0.2145  0.0502 -0.2878
 1710W        W18184   6.815   6.924   3.359 -0.0566  0.2312 -0.1891
 1711W        W18185  10.696   1.231  12.563  0.0753 -0.1499  0.1938
 1712W        W18186   4.033   4.284   1.203 -0.0588  0.0511 -0.0514
 1713W        W18187  16.538   2.959  12.023  0.1996  0.3020  0.3854
 1714W        W18188  18.013  16.508  14.033 -0.1373 -0.1863 -0.0581
 1715W        W18189   6.760   5.459  12.927  0.1408  0.1536  0.0729
 1716W        W18190  14.418   2.316  12.723 -0.0496  0.1753  0.0212
 1717W        W18191  18.856   0.174   3.062  0.0723 -0.1352 -0.1202
 1718W        W18192   8.021   9.973   0.068 -0.1105  0.1992 -0.0770
 1719W        W18193   5.096  18.504   0.894 -0.2082  0.3705  0.1341
 1720W        W18194   3.605   5.049  10.600  0.0262 -0.1939  0.1147
 1721W        W18195  15.804  18.851   2.195  0.0116  0.2913 -0.1767
 1722W        W18196   8.574  14.007   4.850 -0.3689 -0.1219 -0.3341
 1723W        W18197  12.070   0.461   9.543 -0.0216 -0.1963 -0.0974
 1724W        W18198  18.400  12.476   1.938  0.1313  0.0902 -0.0257
 1725W        W18199  17.388   8.786  13.290  0.0573 -0.0433  0.0299
 1726W        W18200   6.628  12.839   0.551 -0.1011 -0.0706 -0.1759
 1727W        W18201  19.235   2.818  11.477  0.2208  0.4537 -0.2664
 1728W        W18202  17.053  14.512  13.206 -0.1998  0.1327  0.0393
 1729W        W18203  12.899  17.210  12.258  0.0523 -0.1665  0.1477
 1730W        W18204   9.543  12.082  11.919  0.1468  0.5586  0.2306
 1731W        W18205   7.671  13.182   4.112 -0.0797 -0.0886 -0.0111
 1732W        W18206   9.966  14.241   0.759  0.2437 -0.1368  0.0118
 1733W        W18207   0.216   8.494   0.268 -0.2248  0.1249  0.1592
 1734W        W18208   2.210   5.391   3.732 -0.1187  0.0257  0.1712
 1735W        W18209   8.619  15.544   0.860  0.1320 -0.0405 -0.2243
 1736W        W18210  12.041   8.288  10.815  0.2137 -0.1823  0.0461
 1737W        W18211   8.381  17.323  14.369  0.0041 -0.1641  0.3500
 1738W        W18212  11.833   3.724  12.197  0.3284 -0.2929  0.0908
 1739W        W18213  10.692  17.496   5.154  0.2364  0.3578  0.0765
 1740W        W18214   9.994  14.730   3.300 -0.2766 -0.1980  0.0513
 1741W        W18215  18.761   6.147  14.406 -0.0015  0.1064 -0.1314
 1742W        W18216  13.422   3.640  11.598 -0.1866 -0.1965 -0.0740
 1743W        W18217  12.547  19.015   0.434 -0.0841 -0.0199  0.3174
 1744W        W18218  19.406   8.397   3.505  0.1612  0.1843  0.0099
 1745W        W18219   3.177  14.742  14.344 -0.1538 -0.4598  0.1395
 1746W        W18220  18.767   4.877  11.027 -0.0020  0.2065 -0.2476
 1747W        W18221  18.346   2.807   2.117  0.0526  0.0075  0.1933
 1748W        W18222  19.468  16.660   4.077  0.3276  0.1412  0.0248
 1749W        W18223  16.575   1.755   1.570  0.1617 -0.1760 -0.1027
 1750W        W18224  15.142  14.195  11.691  0.0754  0.0501 -0.1823
 1751W        W18225  15.309   9.975  13.328  0.1040 -0.3100 -0.0887
 1752W        W18226   2.715  16.634   3.592  0.0122 -0.1634 -0.1236
 1753W        W18227   5.354  10.068  10.776  0.0489 -0.0427 -0.0983
 1754W        W18228   0.799   0.901  13.860 -0.0843  0.0414  0.0438
 1755W        W18229   1.929   6.074   9.111  0.1807 -0.0591 -0.0921
 1756W        W18230   9.619   9.320   4.073 -0.2876  0.2720 -0.0924
 1757W        W18231   1.746   9.078  10.378 -0.2027 -0.0013  0.3053
 1758W        W18232  11.090  11.200  14.139  0.1243 -0.3206  0.0539
 1759W        W18233  14.669   7.599   5.703 -0.1294 -0.1963 -0.0482
 1760W        W18234   6.613  13.546   2.908 -0.3260  0.2464 -0.2029
 1761W        W18235   5.218   7.189   3.675 -0.1559  0.0244  0.0226
 1762W        W18236  17.990   3.744  11.700 -0.0879  0.4489 -0.1406
 1763W        W18237  11.867  18.131   3.492 -0.0747  0.0978  0.1593
 1764W        W18238  18.668   3.980  12.297 -0.3411 -0.4918  0.1517
 1765W        W18239   0.219   1.347   2.032  0.0751 -0.2872 -0.0399
 1766W        W18240  17.374   5.349  14.362 -0.1757  0.1688 -0.0983
 1767W        W18241  12.390  18.419   3.169  0.4522  0.2297 -0.0317
 1768W        W18242  18.466  18.104  13.363 -0.0444  0.3695 -0.2136
 1769W        W18243  11.204  12.363   2.433 -0.2371 -0.2417 -0.1228
 1770W        W18244  16.448  18.125  12.691 -0.1539  0.0034  0.0902
 1771W        W18245  16.547  12.637   2.881 -0.0953 -0.0643 -0.4099
 1772W        W18246   9.413   0.353   2.578 -0.4363  0.1163  0.0471
 1773W        W18247  19.274  14.041  11.375 -0.4649 -0.0098 -0.1942
 1774W        W18248  11.297   2.274   2.902 -0.1776  0.3625  0.1165
 1775W        W18249  17.178   5.941   2.000  0.0180 -0.2118 -0.2030
 1776W        W18250   8.233   4.368  13.171 -0.0168 -0.3683  0.1913
 1777W        W18251  13.738   7.112   0.865 -0.2481  0.2852  0.0382
 1778W        W18252  12.247   1.030   3.307  0.0110  0.0244 -0.1159
 1779W        W18253   3.137   9.395  13.485 -0.0501  0.3640 -0.0004
 1780W        W18254   2.010   5.449  11.580 -0.0549  0.0211 -0.0537
 1781W        W18255  14.742  13.910   3.404  0.2919 -0.0036  0.2064
 1782W        W18256   6.269  15.486  12.920  0.0389 -0.0436  0.3001
 1783W        W18257  15.946   5.922   9.552  0.2304  0.1189 -0.2445
 1784W        W18258  13.561   8.797   4.500  0.3042 -0.1265  0.1026
 1785W        W18259   5.384  19.216  11.220  0.0187  0.1040  0.3097
 1786W        W18260  12.126   1.258  10.039  0.1887  0.1402  0.4106
 1787W        W18261  12.289   1.684   2.319 -0.0450 -0.3972 -0.7347
 1788W        W18262   8.962   5.781   2.938 -0.1610  0.5191  0.0754
 1789W        W18263  12.071  17.218   1.766  0.0249  0.0990  0.5972
 1790W        W18264  16.036   8.760   2.800  0.3725  0.0813 -0.0652
 1791W        W18265  18.061   4.947  11.427 -0.1047 -0.1143  0.1480
 1792W        W18266   2.040  17.765  10.475  0.0231 -0.1035  0.0645
 1793W        W18267  15.346  15.522   0.239 -0.2301 -0.1441  0.0656
 1794W        W18268  17.323   2.295  11.221 -0.0083 -0.1890 -0.0798
 1795W        W18269  13.976  15.440   0.545 -0.1415  0.0103 -0.0525
 1796W        W18270  18.548  15.462   3.885  0.0330 -0.0111  0.2409
 1797W        W18271   0.866  17.562  13.725 -0.0438  0.0279  0.1745
 1798W        W18272   0.190   8.190  14.454 -0.0245  0.0901 -0.0711
 1799W        W18273  17.354  14.716   3.613  0.1213  0.2357 -0.0527
 1800W        W18274  14.135   7.275  12.687 -0.0615  0.1170 -0.0134
 1801W        W18275  10.901   1.614  11.846 -0.0171  0.0345 -0.0319
 1802W        W18276   9.186   2.662  14.647 -0.0049 -0.0256  0.1665
 1803W        W18277  12.835  12.825   0.390  0.0157 -0.0549  0.3568
 1804W        W18278   2.732  17.190  13.413  0.0676  0.2038 -0.3361
 1805W        W18279   5.793  14.021  11.918 -0.1450  0.1524  0.0021
 1806W        W18280   2.162   4.690   3.885  0.1077 -0.0775  0.2534
 1807W        W18281  11.729   3.302  11.975 -0.0999  0.1614 -0.1906
 1808W        W18282   3.356  17.464  11.731  0.1578 -0.1588  0.0627
 1809W        W18283   8.504  18.891   2.843 -0.0062  0.2155 -0.2266
 1810W        W18284  14.970  13.322   4.493  0.0008 -0.2002  0.1096
 1811W        W18285  16.277   5.992  10.377  0.1241 -0.3241  0.1095
 1812W        W18286   0.584   2.205  12.183  0.2216  0.0006  0.0820
 1813W        W18287   3.925   2.840  12.001 -0.3204  0.0573  0.2599
 1814W        W18288   7.358  13.371   4.962 -0.1675  0.1530 -0.1558
 1815W        W18289  11.766  18.186   2.527  0.2897  0.0371  0.2032
 1816W        W18290  15.597  18.869   4.256  0.4520 -0.3177 -0.2305
 1817W        W18291   8.667   5.148  14.380 -0.0408 -0.0239  0.1304
 1818W        W18292   8.681   2.646  11.642  0.1259 -0.2697 -0.1035
 1819W        W18293   9.352   8.355  13.024  0.0727  0.0121 -0.0119
 1820W        W18294  15.478   4.311  13.104  0.2349  0.2537 -0.1655
 1821W        W18295   7.345   0.648  11.636 -0.0280 -0.3649  0.5025
 1822W        W18296   4.698  10.989   1.114 -0.0329  0.0133 -0.0044
 1823W        W18297   3.808   7.473  12.212  0.7033  0.0173  0.0057
 1824W        W18298   8.747   1.610  13.509  0.2620 -0.1211  0.0806
 1825W        W18299   7.678  18.013  10.159  0.0832  0.1742 -0.1445
 1826W        W18300  12.555  14.186  12.179 -0.0785  0.2205 -0.2374
 1827W        W18301  12.692  13.093   1.179 -0.1057 -0.3399 -0.0126
 1828W        W18302  11.748  16.227  14.039 -0.0360 -0.1458 -0.1916
 1829W        W18303  14.932  11.088   4.560  0.1038 -0.2545 -0.0187
 1830W        W18304   1.583   1.142   3.772 -0.2328 -0.1175 -0.0504
 1831W        W18305  17.337   2.150  12.554 -0.2408 -0.0029  0.1562
 1832W        W18306   5.519   3.646  12.545  0.1649 -0.2181 -0.0187
 1833W        W18307  18.103   2.390  11.775 -0.1270 -0.3760  0.2360
 1834W        W18308  13.337   9.423   1.796 -0.0574 -0.1370 -0.2171
 1835W        W18309   6.382  17.583   0.843 -0.2133 -0.0085 -0.0749
 1836W        W18310  10.594  14.685   2.496 -0.1273 -0.1489 -0.2411
 1837W        W18311   0.020  10.708  10.724  0.0867 -0.0741  0.3609
 1838W        W18312  18.984  16.208   4.274  0.1933 -0.0005 -0.1150
 1839W        W18313   3.048  18.207  10.439  0.2740 -0.2871 -0.1918
 1840W        W18314   2.591   3.769  11.552  0.5543 -0.2041 -0.0103
 1841W        W18315   4.856   9.402   1.886 -0.0786 -0.1413 -0.1084
 1842W        W18316  11.575   5.269   4.386  0.2592 -0.1238  0.1651
 1843W        W18317   2.403   2.921   8.996  0.1528  0.0594 -0.3338
 1844W        W18318   2.136  18.021   1.836  0.1588  0.2073 -0.1160
 1845W        W18319  17.859  16.631  11.768  0.2567  0.0493  0.5063
 1846W        W18320   4.172  13.109  13.939  0.0381 -0.0765 -0.2477
 1847W        W18321   2.809   6.321  13.901  0.0620  0.0996 -0.1602
 1848W        W18322   5.134   3.967  12.733  0.1850 -0.5793  0.2467
 1849W        W18323   7.011  15.452   4.837  0.0713  0.0202  0.0151
 1850W        W18324  19.527  11.781  14.126  0.1426 -0.1035 -0.1724
 1851W        W18325   6.244  17.912  11.523  0.3810  0.1431 -0.1095
 1852W        W18326   9.059  19.023   4.475 -0.0222  0.5529  0.1197
 1853W        W18327  15.533   9.471   2.227 -0.2659 -0.3044  0.0685
 1854W        W18328  15.520  14.083  13.005  0.1686 -0.3465 -0.1945
 1855W        W18329   0.714  19.249  14.420  0.4069  0.0851 -0.0705
 1856W        W18330  19.158   8.162  12.958  0.2805  0.1142 -0.0442
 1857W        W18331  10.357  17.668   0.890  0.1622 -0.3253 -0.0462
 1858W        W18332  15.964  16.262   3.051 -0.0107 -0.0087  0.4829
 1859W        W18333  15.636   2.159   3.947  0.1930 -0.1170  0.0964
 1860W        W18334   2.645   9.452  13.431  0.1418  0.1563  0.2490
 1861W        W18335   1.458   6.718   9.702  0.0954 -0.0894 -0.0118
 1862W        W18336   9.227   6.328  11.616 -0.1196 -0.2647  0.0202
 1863W        W18337  10.104   9.174   2.997 -0.0476 -0.0147  0.2438
 1864W        W18338  10.402   1.963   1.569 -0.0056  0.0003  0.0873
 1865W        W18339  17.544   6.233   2.348  0.0507  0.3061  0.2066
 1866W        W18340  16.390  16.403   0.051  0.1601 -0.0609  0.2550
 1867W        W18341   3.139  13.917   4.529 -0.1959  0.0404 -0.2663
 1868W        W18342  11.211  11.977   9.858  0.0294 -0.1532 -0.2242
 1869W        W18343  11.582  15.793  13.824 -0.0120  0.2971  0.0093
 1870W        W18344  18.956   0.897  10.828 -0.1426 -0.2716  0.2443
 1871W        W18345  14.859   2.253  12.512 -0.1587 -0.0566 -0.0565
 1872W        W18346  13.543  14.130  12.160 -0.4046  0.1051  0.0029
 1873W        W18347   4.981  14.736  10.669 -0.1335  0.2442  0.1276
 1874W        W18348  19.116   0.359   4.770  0.0966  0.0104 -0.0898
 1875W        W18349   8.130  11.701  14.042  0.1674  0.1690  0.1134
 1876W        W18350   6.886  10.894   1.027 -0.1222  0.1050  0.0748
 1877W        W18351   6.047   8.124  10.622  0.2404  0.2161  0.4880
 1878W        W18352  11.146   4.630  11.492  0.1002 -0.1810  0.5660
 1879W        W18353   6.451   0.491  13.820  0.1877 -0.0114 -0.1427
 1880W        W18354   8.440   0.599   4.829 -0.0837  0.2039 -0.1322
 1881W        W18355  11.089  14.364  13.606  0.3159  0.0176  0.1154
 1882W        W18356   3.955   0.134   4.826 -0.0440 -0.3530  0.1555
 1883W        W18357  12.462   2.495  11.481 -0.0586 -0.1849 -0.0196
 1884W        W18358  10.016   2.780   1.400  0.0826  0.4308  0.1988
 1885W        W18359  12.279  13.106  11.532 -0.2046  0.2020 -0.2215
 1886W        W18360  18.194   3.989  10.226 -0.0124 -0.1426  0.1494
 1887W        W18361  13.240   1.677   2.444 -0.1457  0.0412 -0.3984
 1888W        W18362  10.258  14.288  11.126 -0.0310  0.0154 -0.0575
 1889W        W18363  14.638  14.337   4.205 -0.0498 -0.0792  0.1173
 1890W        W18364   9.734   6.201   3.853 -0.1673  0.0708  0.0270
 1891W        W18365   5.260  15.794  14.464  0.1510  0.0694 -0.1212
 1892W        W18366   1.058   4.849  14.105  0.1511  0.0086 -0.2254
 1893W        W18367  15.051  11.594   2.548  0.2453  0.1964 -0.3883
 1894W        W18368   3.616   1.095   2.432 -0.4106 -0.1606 -0.2281
 1895W        W18369  15.226   5.366   3.550  0.0448 -0.3749  0.0511
 1896W        W18370  18.549   2.730  12.703 -0.1230 -0.0147 -0.1823
 1897W        W18371   9.968  17.600  12.740 -0.3007  0.2816  0.5468
 1898W        W18372   9.820  12.215  10.295 -0.0093 -0.0008 -0.1465
 1899W        W18373   1.166   7.651  11.577  0.1590 -0.3118 -0.0472
 1900W        W18374  14.388   9.402  11.438 -0.0909  0.0803 -0.3134
 1901W        W18375   7.237  18.417   1.494 -0.5200  0.1083  0.1533
 1902W        W18376  10.737   7.912   0.431 -0.0469 -0.0098  0.0696
 1903W        W18377   6.873  10.085   3.096  0.1359 -0.0821  0.0584
 1904W        W18378  17.002  11.008   3.446 -0.1453 -0.0423  0.2618
 1905W        W18379   9.759  16.314  12.956 -0.2245  0.1427  0.0274
 1906W        W18380   8.731   6.897   1.598 -0.1625 -0.2007 -0.2528
 1907W        W18381   5.979   0.101  11.929 -0.0591 -0.1074  0.3174
 1908W        W18382  14.379  13.851  11.096 -0.2074  0.2102 -0.3016
 1909W        W18383   3.585   9.300  10.170  0.1577 -0.0679  0.1878
 1910W        W18384   0.409  15.167  11.239 -0.2615 -0.1604  0.1033
 1911W        W18385   3.781  18.421  11.674 -0.2438 -0.0683  0.1492
 1912W        W18386   0.633   4.146   1.537 -0.1505 -0.0297  0.3766
 1913W        W18387   4.645   5.866  13.521  0.2448  0.0968  0.0252
 1914W        W18388   7.588   1.757  14.287  0.1824  0.2648  0.3421
 1915W        W18389  10.388  14.515  13.771  0.0132 -0.0017  0.0655
 1916W        W18390   6.322   6.171   2.455  0.1253 -0.3707 -0.5710
 1917W        W18391   4.085   3.777  11.744  0.0471  0.3052 -0.1777
 1918W        W18392  15.827  14.126  11.984  0.1852  0.2631 -0.0106
 1919W        W18393  17.169   2.281  14.038  0.0597  0.1814  0.0834
 1920W        W18394   6.408   9.039   0.307  0.0561  0.0147  0.3218
 1921W        W18395   1.002  19.151   1.578  0.1382  0.1155  0.0472
 1922W        W18396   0.835  13.985   5.064  0.1552 -0.0852 -0.3837
 1923W        W18397   1.703  12.716   3.309  0.0985  0.1725 -0.1440
 1924W        W18398  10.330  13.087   2.193  0.3035 -0.1766 -0.0413
 1925W        W18399  18.536  14.683   3.251  0.2532 -0.3714  0.1276
 1926W        W18400  14.312  18.894   0.148 -0.0987  0.0282 -0.0064
 1927W        W18401  15.899  13.209  11.000 -0.0463 -0.3062  0.0726
 1928W        W18402  16.387  14.793   4.585  0.1119  0.2914  0.4623
 1929W        W18403  17.213   5.127   1.424 -0.2497 -0.0737 -0.1937
 1930W        W18404   8.157  12.217  10.430  0.0879 -0.1322 -0.1436
 1931W        W18405  14.037  14.747  13.129 -0.3302 -0.1453 -0.0913
 1932W        W18406   2.865   0.563  13.403 -0.2104  0.1828 -0.1344
 1933W        W18407   4.109   3.580  12.349 -0.0870  0.0390  0.2871
 1934W        W18408  13.739   1.884   0.646  0.4324 -0.1178  0.3751
 1935W        W18409   6.472   7.521   0.505  0.1706  0.1214  0.3836
 1936W        W18410  14.175   8.000  11.781  0.0707 -0.4596 -0.3084
 1937W        W18411  13.576   3.284  12.275 -0.0279  0.2763  0.1427
 1938W        W18412  15.323  15.775  12.126 -0.2962 -0.0809  0.0105
 1939W        W18413   7.491  10.287   3.708  0.2056 -0.2730  0.1390
 1940W        W18414   2.333  14.638  11.791  0.1490 -0.3362  0.1125
 1941W        W18415  10.190   4.619  11.154  0.1503 -0.1864  0.0166
 1942W        W18416   2.573  16.872   4.982 -0.1435 -0.2467  0.1814
 1943W        W18417  10.804   4.321  14.067 -0.0137  0.1453  0.1674
 1944W        W18418  13.385  19.390   2.131  0.3112 -0.2609 -0.0665
 1945W        W18419  12.286  14.531   5.460  0.1734  0.3822 -0.5300
 1946W        W18420  14.689  16.541  13.936  0.0205  0.1542 -0.0548
 1947W        W18421  18.426  11.108   2.285  0.0959  0.0057  0.1596
 1948W        W18422   7.999   2.365   1.850  0.1530 -0.0509 -0.0446
 1949W        W18423   8.640   9.335   1.747  0.1678  0.1846 -0.1515
 1950W        W18424  11.433   3.403  14.570 -0.0012 -0.2089 -0.0617
 1951W        W18425   0.394  14.715  11.427 -0.0115 -0.0536  0.0751
 1952W        W18426  11.876   7.550  12.338 -0.0863 -0.0789  0.1747
 1953W        W18427   8.684   2.145   3.508  0.1716  0.0403 -0.1026
 1954W        W18428   3.137   5.777  13.351 -0.2851  0.0153 -0.0850
 1955W        W18429  17.201   7.405  14.589 -0.1819 -0.1254  0.0259
 1956W        W18430  11.688  14.367   4.546 -0.0135  0.0655 -0.1315
 1957W        W18431   9.392  16.362  11.808 -0.0105  0.0875  0.0263
 1958W        W18432   5.986  17.198   3.565  0.2810 -0.1003  0.1454
 1959W        W18433  10.535  17.162   1.171  0.1553 -0.1300 -0.0006
 1960W        W18434   5.808   6.254  13.239  0.3576  0.0523  0.1404
 1961W        W18435   4.816  10.771  12.176  0.1357  0.2759  0.2681
 1962W        W18436  14.442   6.237   1.671 -0.0081 -0.2382  0.2014
 1963W        W18437  18.449   6.351  12.970  0.3918 -0.2399  0.1238
 1964W        W18438   9.659   3.948   3.445 -0.0125 -0.0460 -0.0631
 1965W        W18439  10.749  18.946   4.225 -0.0189 -0.0322 -0.0690
 1966W        W18440  13.292   4.467   9.884  0.0026  0.0600  0.1573
 1967W        W18441  13.454  15.617   2.678 -0.1625  0.0099 -0.2145
 1968W        W18442  12.627  16.152   1.394 -0.0396  0.1747  0.1803
 1969W        W18443  12.323  18.620  14.490 -0.1020 -0.1750 -0.1619
 1970W        W18444   0.811   3.342   1.083  0.1720  0.1222 -0.1260
 1971W        W18445  17.903  12.767  12.703 -0.1393  0.1185  0.1153
 1972W        W18446  12.885   4.799   0.341 -0.1624 -0.0557  0.1026
 1973W        W18447   0.451  13.024   2.450  0.2993 -0.0323 -0.0482
 1974W        W18448  16.651   0.817   3.048  0.0655 -0.0319 -0.3673
 1975W        W18449  11.294  13.679   1.159  0.0709 -0.2551 -0.2660
 1976W        W18450  10.718   3.425  14.178  0.0128  0.0036 -0.1311
 1977W        W18451   1.266  14.206   4.328  0.1648 -0.3230  0.1640
 1978W        W18452  13.129  10.806  12.939 -0.1385 -0.6853 -0.2324
 1979W        W18453  12.351  18.297  12.053 -0.1103 -0.0681 -0.0488
 1980W        W18454  16.985  10.091   3.246  0.0298 -0.2020 -0.2301
 1981W        W18455  19.552   0.064  11.159  0.0590  0.0316 -0.1644
 1982W        W18456   7.978  16.715   9.372  0.1286  0.1273  0.2279
 1983W        W18457  13.267   2.355   3.646 -0.4792 -0.0114  0.0882
 1984W        W18458   4.548   6.716   3.867 -0.2142  0.1281 -0.3243
 1985W        W18459   1.783   9.741  11.300 -0.3336 -0.2924  0.3635
 1986W        W18460   6.798  13.108   2.856 -0.0881 -0.1759 -0.0254
 1987W        W18461  17.664   9.870   1.446  0.0069  0.1674  0.0042
 1988W        W18462   1.079   5.692   4.360  0.0172  0.2717  0.2706
 1989W        W18463   9.978  13.660   1.557 -0.1782  0.0305 -0.0863
 1990W        W18464  13.346  10.105   0.787 -0.3352 -0.1373 -0.0363
 1991W        W18465   5.217  15.159   1.264 -0.1993  0.0844 -0.1005
 1992W        W18466  10.867  16.237   4.101 -0.3305 -0.3097 -0.2221
 1993W        W18467  15.425   2.377   4.697 -0.3353 -0.1520 -0.2431
 1994W        W18468   2.857   4.300   1.891  0.0345  0.0552 -0.0711
 1995W        W18469   1.499   2.849   0.358  0.0112 -0.2946 -0.1575
 1996W        W18470   8.122  13.468   4.071  0.1484 -0.0374  0.3612
 1997W        W18471  10.257  17.393   3.403 -0.1292 -0.4897 -0.1310
 1998W        W18472  19.465  14.574   0.184 -0.0767 -0.1410  0.1908
 1999W        W18473  16.033   9.648  13.557  0.1607  0.4292 -0.2403
 2000W        W18474  11.876   1.511   2.694  0.1595 -0.0071  0.1539
 2001W        W18475   9.937   8.235   2.069 -0.3753  0.0796 -0.1943
 2002W        W18476   6.717  16.709   2.076 -0.0760 -0.1428 -0.1810
 2003W        W18477  14.300   6.182   2.360 -0.0273 -0.1356  0.0865
 2004W        W18478  10.170   2.562   4.243  0.2940 -0.1424  0.0907
 2005W        W18479  15.028   9.591   4.721  0.3217  0.2112 -0.1529
 2006W        W18480  13.207   1.627  10.440 -0.0392 -0.0140 -0.1670
 2007W        W18481  17.713   2.976   1.469  0.0104  0.1420 -0.0715
 2008W        W18482   0.031   9.182  11.983 -0.3271  0.1480 -0.0816
 2009W        W18483   2.558  14.785  11.376 -0.1181  0.3786 -0.1490
 2010W        W18484  18.962   7.980   3.184  0.0941 -0.0303  0.0406
 2011W        W18485  19.055  13.128  11.605  0.0006 -0.2887  0.3093
 2012W        W18486   3.475   4.634   3.641 -0.1423  0.0102 -0.2137
 2013W        W18487   5.198   9.119   0.137  0.4588 -0.0998  0.2137
 2014W        W18488   5.987   5.034   2.263 -0.2776  0.0988  0.0568
 2015W        W18489   1.370  17.187   2.675 -0.1590 -0.1671 -0.3698
 2016W        W18490  13.376  12.619  11.131 -0.0664 -0.0753  0.1116
 2017W        W18491   0.528  19.106   0.239  0.4354  0.2607 -0.0277
 2018W        W18492   0.270   6.072  13.032 -0.2670 -0.2689  0.0151
 2019W        W18493   9.928   8.041   3.520  0.0876  0.0093  0.2026
 2020W        W18494  12.434  13.341   2.119 -0.1088  0.0311  0.2375
 2021W        W18495   5.349  13.705  11.916 -0.1767  0.0980  0.0899
 2022W        W18496   4.113   6.598  14.569 -0.0551 -0.2208 -0.1274
 2023W        W18497   4.964   5.508  10.771  0.2109 -0.1238 -0.1396
 2024W        W18498  18.721   2.326  10.852 -0.2184  0.2241 -0.0549
 2025W        W18499  14.314   9.577   5.271 -0.0616 -0.0450 -0.1892
 2026W        W18500   4.771  14.791  13.679  0.0940  0.1613  0.1904
 2027W        W18501   0.319  10.756  13.829  0.2111 -0.3102  0.0868
 2028W        W18502   1.282  16.292   5.007  0.5415  0.2646  0.2370
 2029W        W18503  13.875   5.683   0.084  0.1919  0.4134 -0.0452
 2030W        W18504  11.420  11.592  12.525  0.3128 -0.0091  0.2911
 2031W        W18505   3.793   2.106  11.032  0.1065 -0.0221 -0.0072
 2032W        W18506  13.953   6.556  13.972  0.6203  0.3850  0.0012
 2033W        W18507  17.001   3.729  12.574 -0.1003 -0.1165  0.0354
 2034W        W18508  12.351  11.286  11.783  0.1741  0.0256  0.2385
 2035W        W18509  11.188  13.900  13.936 -0.2285  0.0861  0.2384
 2036W        W18510   0.528  13.221  10.845  0.0499 -0.1340  0.1261
 2037W        W18511   7.306  13.763  11.708  0.0494 -0.5198  0.1107
 2038W        W18512   9.051   3.449   4.130 -0.0203 -0.0435 -0.0392
 2039W        W18513   6.174   4.215  11.745 -0.1234 -0.0445  0.4000
 2040W        W18514   7.134   4.886  10.138 -0.0885 -0.0494 -0.0612
 2041W        W18515  12.238  19.485   4.064  0.2097  0.2009 -0.0624
 2042W        W18516   6.546  16.478   1.649  0.0584 -0.0426  0.0826
 2043W        W18517   9.623  13.299  11.328 -0.1378 -0.2169  0.2318
 2044W        W18518  10.510  15.956  11.017  0.0232 -0.2544  0.3768
 2045W        W18519   3.005  13.709  14.175  0.0501 -0.1001  0.0963
 2046W        W18520   9.912  17.637   4.733  0.2204 -0.3973 -0.0291
 2047W        W18521   6.195   9.235   0.820 -0.3022 -0.1396 -0.0680
 2048W        W18522   9.351   4.254   2.291  0.3307 -0.1601  0.0717
 2049W        W18523  14.752  11.901  12.404 -0.1008 -0.0613 -0.4664
 2050W        W18524   9.500   4.206   3.910  0.0323 -0.1521  0.0055
 2051W        W18525  12.681  15.578   4.168  0.0018 -0.0862  0.2945
 2052W        W18526   6.144   0.619  12.622 -0.2189  0.1147 -0.0328
 2053W        W18527   3.272   0.336   4.379  0.0033 -0.0495 -0.2513
 2054W        W18528   6.454  13.433  11.341 -0.1704  0.2596  0.1987
 2055W        W18529   1.316  13.919   1.507  0.1704  0.2535  0.0630
 2056W        W18530   8.341   0.951  11.175  0.2090 -0.1436 -0.2059
 2057W        W18531   2.010  18.166   0.592  0.0270  0.1972  0.1120
 2058W        W18532  14.857  12.663  13.921  0.0237 -0.1274  0.1048
 2059W        W18533   4.283  17.422  11.885  0.1270 -0.1539  0.3552
 2060W        W18534   5.216  13.530   0.088 -0.0183 -0.1674 -0.1322
 2061W        W18535   1.608  10.706  11.163 -0.0550 -0.4127  0.1764
 2062W        W18536  10.402  10.149  13.238  0.2416  0.0356  0.0143
 2063W        W18537   4.778   7.136  10.546 -0.1871 -0.2007  0.2518
 2064W        W18538   6.525  18.823  11.911 -0.1262  0.3807 -0.0729
 2065W        W18539   6.328  17.944  10.883  0.0538 -0.3733  0.2092
 2066W        W18540   8.671  10.308  14.289  0.0563 -0.1691 -0.0883
 2067W        W18541   5.407  14.470  11.609  0.1254 -0.4614 -0.0595
 2068W        W18542  13.395  14.077   4.017 -0.1272 -0.2190 -0.1453
 2069W        W18543   5.624  16.211  11.885  0.3073 -0.0238 -0.1948
 2070W        W18544  15.857  14.434   3.906  0.0498 -0.0299  0.0164
 2071W        W18545  10.084  11.838  10.593  0.2712 -0.0244 -0.0144
 2072W        W18546  15.401   9.009  13.555  0.1090 -0.1162  0.4019
 2073W        W18547   9.438  16.762   0.998  0.0493  0.1883  0.1778
 2074W        W18548  15.426   0.820   1.826  0.4260  0.0415  0.1144
 2075W        W18549   4.986   4.447   0.444 -0.1980 -0.0459 -0.2636
 2076W        W18550  18.922   2.893  11.076 -0.0609 -0.0681 -0.0815
 2077W        W18551   6.354  13.323  10.766  0.2772 -0.0297 -0.0925
 2078W        W18552   2.224   8.461  12.337  0.1428  0.1301 -0.1256
 2079W        W18553   4.752  18.394   1.644  0.1644 -0.2105 -0.0885
 2080W        W18554   3.567   9.570  13.878 -0.1852 -0.0814 -0.3462
 2081W        W18555   9.373   4.033  14.284 -0.1120  0.0350  0.1564
 2082W        W18556  10.111   3.660   2.225  0.3411 -0.1494 -0.1330
 2083W        W18557   3.186  13.620   1.710 -0.0384  0.2118  0.2149
 2084W        W18558  18.851  18.713   2.393  0.1176  0.1862  0.1333
 2085W        W18559  19.225   3.583   0.077  0.2257  0.4917  0.0529
 2086W        W18560   3.521   6.289  14.065  0.2825  0.3736 -0.2355
 2087W        W18561   9.214  14.370   4.288 -0.1772  0.1165  0.2829
 2088W        W18562   5.095  13.473  14.222 -0.2013  0.3875  0.0209
 2089W        W18563  13.771   4.469   0.005  0.3556 -0.1475  0.2585
 2090W        W18564   5.764   4.729  12.450  0.2508 -0.2203  0.0450
 2091W        W18565  10.317   2.055   2.464 -0.0514 -0.2978  0.3336
 2092W        W18566   1.701  15.190   4.619  0.1994  0.1430 -0.1658
 2093W        W18567  12.635   0.730   4.741  0.1189  0.1885  0.0929
 2094W        W18568   1.445   0.301   4.607  0.2402 -0.2371 -0.1652
 2095W        W18569  15.252  17.396   0.112  0.2475 -0.4027 -0.0369
 2096W        W18570   7.333  13.621  12.195 -0.0734 -0.2341 -0.0848
 2097W        W18571  15.765   1.020  14.598  0.0628 -0.1616  0.0978
 2098W        W18572  13.838  15.617  11.364 -0.0940  0.1642  0.2477
 2099W        W18573  19.262  12.110  11.999  0.0280 -0.1892 -0.0519
 2100W        W18574   1.297   6.757   4.601 -0.0697  0.0475  0.0579
 2101W        W18575   1.910   3.357   4.499 -0.4913  0.4617  0.0871
 2102W        W18576   6.818   0.584  14.221  0.0696  0.1813 -0.0967
 2103W        W18577  18.120  15.532  13.873 -0.0469 -0.2719  0.0842
 2104W        W18578  12.839   8.916   3.407 -0.0687  0.1975 -0.0891
 2105W        W18579  10.327  15.265   1.988  0.0130 -0.1010  0.3588
 2106W        W18580  14.127   8.357   5.455  0.0233  0.1421  0.2810
 2107W        W18581   3.248   1.114   3.322 -0.1977 -0.0171  0.0566
 2108W        W18582  14.663  11.975   4.961  0.1581 -0.2771 -0.0269
 2109W        W18583   3.461   8.725  10.315  0.1345 -0.2000  0.1181
 2110W        W18584   6.879   3.194  11.217 -0.1635 -0.5607  0.0843
 2111W        W18585   6.521   6.097   3.104  0.1651  0.1798  0.2379
 2112W        W18586  15.668  17.611   3.552  0.0616  0.0223  0.2194
 2113W        W18587   7.920   4.526   1.483  0.2946 -0.2591  0.0761
 2114W        W18588  15.509   8.677   2.515 -0.3832 -0.0722 -0.0138
 2115W        W18589   8.666  10.337   1.331  0.1767 -0.2403 -0.1539
 2116W        W18590   9.217  16.705   5.589 -0.1574  0.1296 -0.0366
 2117W        W18591  19.447   8.543   9.319  0.0920  0.4291 -0.0683
 2118W        W18592  17.155   7.590   1.543  0.1345  0.0484  0.0525
 2119W        W18593  15.685  17.201   9.947 -0.0546  0.3227 -0.2451
 2120W        W18594   5.521  15.432  11.869 -0.2549  0.2905  0.0085
 2121W        W18595   5.674  15.518   2.281  0.1042  0.0325 -0.1255
 2122W        W18596   5.980  10.069  14.194 -0.1563  0.2226  0.0622
 2123W        W18597  11.994  14.182   0.672  0.0247 -0.1685  0.0701
 2124W        W18598   8.172   1.532  13.879  0.0285 -0.0966 -0.2180
 2125W        W18599  16.543  12.329   8.716  0.0220  0.1431  0.3154
 2126W        W18600   6.003   8.420   4.026 -0.0251 -0.0384  0.2386
 2127W        W18601   2.083  16.805   4.947 -0.1533  0.0950 -0.0304
 2128W        W18602   8.285   0.134  11.517  0.2674  0.0711  0.1451
 2129W        W18603   9.766   0.672  11.731  0.1111 -0.1756  0.0216
 2130W        W18604  18.468  15.695  13.441 -0.2227 -0.0440 -0.1482
 2131W        W18605  10.592  15.947  10.016 -0.1597 -0.1127  0.0227
 2132W        W18606   6.460  12.085  11.524  0.1002 -0.1371 -0.1839
 2133W        W18607   4.714  13.135  13.505  0.0868 -0.3000 -0.3577
 2134W        W18608   0.695   7.789  10.388  0.0108 -0.0180  0.3889
 2135W        W18609   0.012   2.050   1.646 -0.0257 -0.0487  0.0366
 2136W        W18610   7.562   3.884   0.230  0.2000  0.3354  0.2935
 2137W        W18611  10.407  17.412   1.585 -0.0784  0.0518 -0.0087
 2138W        W18612   2.539   2.852  11.516  0.1545 -0.1542 -0.5055
 2139W        W18613  12.220   4.910  10.040 -0.2237 -0.1018 -0.2050
 2140W        W18614   1.211   0.488   1.865  0.2673 -0.1743  0.0687
 2141W        W18615   0.339  16.617   3.975 -0.3576 -0.0215 -0.0858
 2142W        W18616   3.109  18.789  12.914  0.3146 -0.0104  0.1983
 2143W        W18617   8.396  13.109   5.010 -0.1585 -0.1688 -0.0756
 2144W        W18618   8.095   1.968  14.329  0.0181 -0.1160  0.4858
 2145W        W18619   2.251  11.145  10.810 -0.3986  0.2343  0.1168
 2146W        W18620  16.133   3.682  12.629 -0.4721  0.0760  0.3420
 2147W        W18621   8.155  10.596  11.559 -0.2473  0.2060 -0.1327
 2148W        W18622   0.940  13.900   0.015  0.0313  0.0158 -0.0656
 2149W        W18623   3.489   8.897  10.840  0.0133  0.2603  0.0317
 2150W        W18624  16.742   0.848   0.058  0.2287  0.0762  0.1114
 2151W        W18625   9.809  14.513   1.168  0.1011 -0.0945 -0.0783
 2152W        W18626  13.872  18.932  13.188  0.0162  0.4433 -0.4191
 2153W        W18627   2.138   0.920  13.037  0.1759 -0.2971 -0.1334
 2154W        W18628  14.773   7.839  11.438 -0.0062  0.0974 -0.0833
 2155W        W18629  13.729  17.406   1.195  0.0083  0.0676 -0.1237
 2156W        W18630  17.920   8.216  13.964  0.0592  0.0603 -0.2371
 2157W        W18631   5.469  12.432   4.498  0.0265  0.0845  0.3864
 2158W        W18632   2.015  16.143   2.545 -0.2206 -0.0139  0.3818
 2159W        W18633   9.552   2.247   2.284 -0.1450 -0.0392 -0.4438
 2160W        W18634   1.731   2.705  12.947  0.3272 -0.0947  0.0715
 2161W        W18635   4.091   9.820   2.181 -0.1958 -0.0481 -0.0009
 2162W        W18636  10.255  14.530   5.139  0.1193  0.0489 -0.1430
 2163W        W18637  14.711   3.321  10.950  0.4704  0.2084 -0.4594
 2164W        W18638   9.352   1.935   0.457 -0.3392  0.4756  0.1236
 2165W        W18639   2.930  18.201  11.560 -0.2072 -0.1724 -0.3237
 2166W        W18640  15.521  15.515  11.258  0.1741  0.2048  0.2645
 2167W        W18641  18.456   6.484   0.782  0.2731  0.0580 -0.0246
 2168W        W18642   2.950   7.050  12.645  0.0227 -0.1901 -0.1258
 2169W        W18643  10.073   6.098  13.416 -0.2334 -0.1290 -0.0105
 2170W        W18644   1.146   3.810   4.125 -0.2991 -0.3305  0.1246
 2171W        W18645  10.178   9.031  11.099 -0.3891  0.0823 -0.1537
 2172W        W18646   7.525  12.932   9.656 -0.0021 -0.2436 -0.0014
 2173W        W18647  17.453   3.950  12.494  0.1312 -0.2668  0.1836
 2174W        W18648   0.052  15.550   3.650  0.0644 -0.1093  0.1454
 2175W        W18649  15.816   7.970  12.611  0.4434 -0.1061 -0.0192
 2176W        W18650  15.797  19.196   9.080 -0.2487  0.0237 -0.3674
 2177W        W18651   3.159   5.994  11.878 -0.0365  0.4294  0.2893
 2178W        W18652   8.215  12.712   2.381 -0.0335  0.2628 -0.1667
 2179W        W18653   7.464   5.138  13.017  0.0860 -0.0231  0.2957
 2180W        W18654   3.474   0.910   2.889 -0.5380  0.1390  0.5066
 2181W        W18655  16.325  10.069   2.324 -0.0032  0.0285  0.0907
 2182W        W18656  13.289  15.080   5.754  0.3518  0.2337  0.0546
 2183W        W18657   7.000   4.643   2.470 -0.0263 -0.0973 -0.1814
 2184W        W18658   6.345  11.315   2.383  0.0463  0.3135 -0.2522
 2185W        W18659   3.605   7.863   3.964 -0.2320  0.0344  0.4223
 2186W        W18660  18.912   1.311  12.554  0.1651  0.1836 -0.1891
 2187W        W18661   7.917   7.097   3.196  0.1964  0.2163  0.0299
 2188W        W18662   3.566  11.005   0.864  0.0252 -0.3166  0.1893
 2189W        W18663   7.814   7.215   0.926  0.1033 -0.0963 -0.1026
 2190W        W18664  11.247   4.736   0.108 -0.1326  0.0303  0.1536
 2191W        W18665   8.555   7.216   4.523  0.0728  0.1744 -0.0075
 2192W        W18666  18.546  13.852   1.098 -0.0282 -0.3100  0.0204
 2193W        W18667  17.982   8.837  11.126  0.1262  0.3714  0.3204
 2194W        W18668   2.336  15.262   4.977 -0.2344  0.0001  0.3368
 2195W        W18669   4.014   2.271   0.709  0.1746  0.0933  0.2275
 2196W        W18670  18.750   6.750   4.334  0.1030  0.0482  0.3617
 2197W        W18671  14.139   0.588  12.952  0.1860  0.0532  0.1727
 2198W        W18672   7.497   8.800   1.330  0.2220 -0.0004  0.0245
 2199W        W18673   6.995   9.805   2.667  0.1555  0.1401  0.0306
 2200W        W18674  18.996  17.227   0.773 -0.2346  0.0622 -0.0381
 2201W        W18675  13.975  15.104   4.091  0.0536 -0.1240  0.1775
 2202W        W18676  11.444  10.402   3.218 -0.2891 -0.3099  0.3781
 2203W        W18677  18.378   0.907   2.909 -0.0390 -0.1543  0.2041
 2204W        W18678  13.793  15.217   2.666  0.2720 -0.2511 -0.1792
 2205W        W18679  16.286   8.344   0.199  0.2737 -0.0615  0.1119
 2206W        W18680   9.961  14.137   4.007 -0.1065 -0.2312  0.2127
 2207W        W18681  14.906   2.530  10.935 -0.0639  0.0050  0.2249
 2208W        W18682   3.191  18.267   2.088 -0.0273 -0.1430  0.0115
 2209W        W18683   3.644   4.421   2.996  0.0184  0.1622  0.0737
 2210W        W18684  18.631  12.254   0.855 -0.0449 -0.0128  0.2131
 2211W        W18685   6.593  18.797  11.244  0.1876 -0.1317  0.1083
 2212W        W18686  13.411   8.479  13.871 -0.1181 -0.0493 -0.0819
 2213W        W18687  12.097  15.956  10.965 -0.0138 -0.1805 -0.1554
 2214W        W18688  16.676  13.904  13.796 -0.2926 -0.5001 -0.1367
 2215W        W18689  18.706  13.476  12.934 -0.0497  0.1712 -0.0230
 2216W        W18690   1.615  13.354  10.000 -0.0564 -0.2614  0.0976
 2217W        W18691  16.482   3.176   4.420  0.2010 -0.0498 -0.0840
 2218W        W18692  11.492  17.802   3.386 -0.1048 -0.1643 -0.2132
 2219W        W18693   2.908  17.841  12.664  0.3287 -0.1981 -0.1750
 2220W        W18694  15.422   2.963   0.999 -0.1369  0.0311 -0.1451
 2221W        W18695  14.225   1.139  11.745 -0.0594 -0.0864 -0.5424
 2222W        W18696  10.416   7.496   0.275  0.0901 -0.1737  0.0223
 2223W        W18697   4.686  18.632  14.345 -0.0954 -0.1789  0.0555
 2224W        W18698  11.786  19.109  13.082  0.1040 -0.1751  0.1235
 2225W        W18699   5.960   3.312   3.870 -0.3854  0.2275  0.1629
 2226W        W18700   7.048   9.565   3.125  0.5111 -0.1239 -0.0962
 2227W        W18701   8.105  14.869   2.236 -0.0448  0.0157  0.0494
 2228W        W18702   6.767   1.397   4.857  0.0367  0.0900  0.2936
 2229W        W18703  18.436  18.598  10.110 -0.1367  0.1107  0.2055
 2230W        W18704  19.038   3.787   1.298  0.1155  0.0349 -0.1996
 2231W        W18705   4.669   1.486   3.368 -0.2488 -0.3276 -0.1365
 2232W        W18706   2.332   3.573   2.605  0.2533  0.2567  0.1082
 2233W        W18707   4.065   1.940  10.545 -0.2363 -0.1421 -0.1464
 2234W        W18708   3.070  12.283   4.435  0.2691  0.0046 -0.1924
 2235W        W18709  13.265  18.396  14.177 -0.1475  0.3590 -0.1998
 2236W        W18710  17.292  10.378   3.553  0.3094  0.0156 -0.3167
 2237W        W18711   2.509   1.757   9.931 -0.2475 -0.1355 -0.1619
 2238W        W18712  10.027   2.795   2.237  0.0619 -0.2319 -0.0609
 2239W        W18713   7.779   7.682  12.249  0.1906 -0.1129  0.3305
 2240W        W18714  19.044  17.360  13.514  0.2759  0.0472 -0.1925
 2241W        W18715  16.272  18.474   0.820 -0.1695 -0.0204 -0.3679
 2242W        W18716  15.724  12.369  13.121 -0.3647  0.0466  0.3475
 2243W        W18717  16.976   7.106   1.428 -0.0964 -0.1210  0.0674
 2244W        W18718  12.580  16.045   2.423  0.3225  0.2161  0.0496
 2245W        W18719   2.308  11.395   2.738  0.1480 -0.1149 -0.1124
 2246W        W18720  15.332   4.284  12.042  0.0980  0.3141 -0.1906
 2247W        W18721   0.462  19.377  11.287 -0.0144 -0.1308 -0.1420
 2248W        W18722  11.469   5.492   1.193 -0.3007  0.3849 -0.0172
 2249W        W18723   9.877   1.166   5.658 -0.1216 -0.1644 -0.0210
 2250W        W18724  19.588   6.413  12.360 -0.0251  0.1171  0.1023
 2251W        W18725   1.161  14.520  10.855 -0.1355  0.2247 -0.0523
 2252W        W18726   8.008  17.396   1.410 -0.0282  0.0185  0.1056
 2253W        W18727  19.369  17.094  12.341  0.0089 -0.0722 -0.0218
 2254W        W18728  16.677   1.264  14.482  0.0047 -0.2008  0.1615
 2255W        W18729  10.636   4.215   0.113 -0.2542 -0.1035  0.1397
 2256W        W18730   1.461   0.266   4.077  0.1632 -0.0945 -0.0022
 2257W        W18731  19.579   5.164  11.471 -0.3433  0.0395  0.0381
 2258W        W18732  16.769   7.849  11.722 -0.1275  0.1820 -0.3273
 2259W        W18733   3.144   3.382  12.020  0.0322  0.0433  0.1701
 2260W        W18734   7.511   9.731  10.732  0.1767  0.2528  0.0280
 2261W        W18735   7.916   4.232   1.034 -0.0923  0.0401 -0.2057
 2262W        W18736  19.322   9.407   2.208  0.0964  0.0161 -0.1614
 2263W        W18737   3.594  13.629   0.639  0.1340  0.0399 -0.1947
 2264W        W18738   0.653  13.706  11.106  0.1277 -0.2427  0.1019
 2265W        W18739   3.414   7.148   3.381  0.0526  0.2458 -0.3128
 2266W        W18740   6.062  11.474   3.443 -0.2677  0.0536  0.0636
 2267W        W18741   5.484  15.710   9.191  0.1782 -0.3206  0.3116
 2268W        W18742   9.270   6.554   4.106 -0.0280  0.2572  0.1809
 2269W        W18743   6.409  14.709   0.788 -0.2154 -0.2675 -0.0538
 2270W        W18744  10.155   1.015  12.778 -0.2092 -0.0391  0.0123
 2271W        W18745  18.631   8.683   1.902  0.1129  0.1033 -0.0184
 2272W        W18746  17.487   6.528  10.260  0.1303 -0.1260 -0.2767
 2273W        W18747  10.314  14.736  12.036  0.0363 -0.0390 -0.0089
 2274W        W18748   6.733  10.205  12.595 -0.0897 -0.4495  0.0404
 2275W        W18749   9.297  17.914  13.425  0.0703 -0.1049  0.1787
 2276W        W18750  14.178   5.767  11.102 -0.1214 -0.0667 -0.3425
 2277W        W18751   3.820  12.803  10.580  0.0408  0.3750  0.2328
 2278W        W18752   6.249   8.979  11.108  0.0916 -0.0178  0.0955
 2279W        W18753   4.445  13.550   3.875 -0.1442  0.0931  0.1846
 2280W        W18754  11.072  18.069   3.350 -0.0213  0.1879 -0.2738
 2281W        W18755   1.269  15.049  13.280  0.0452 -0.0761  0.2347
 2282W        W18756   8.758  14.372   5.199 -0.4557  0.3610  0.2220
 2283W        W18757  18.896   7.214   0.203 -0.1771 -0.2720  0.0818
 2284W        W18758   4.706  15.550   0.120  0.0350 -0.1605  0.1269
 2285W        W18759  19.599  12.600   1.867  0.0564 -0.3564  0.0054
 2286W        W18760   4.002   3.025   1.744 -0.1201 -0.1094 -0.0160
 2287W        W18761   1.515   0.528   1.090  0.3018  0.0336 -0.0806
 2288W        W18762  19.525   2.024  14.660 -0.0529 -0.0994 -0.1152
 2289W        W18763  17.803  12.196   4.533  0.1765  0.0958  0.1378
 2290W        W18764  10.653   3.738  11.648  0.1098  0.1702 -0.1931
 2291W        W18765   1.965   5.603   2.258 -0.1368  0.1279 -0.1754
 2292W        W18766  18.597  15.840   1.579 -0.0570  0.0292  0.0901
 2293W        W18767   8.067  13.204   2.346 -0.0934  0.0364  0.3209
 2294W        W18768   9.903   0.664  12.527  0.0257 -0.0003  0.1291
 2295W        W18769   6.101   4.358   4.575 -0.0705  0.2420  0.1976
 2296W        W18770  10.083   0.679  13.712 -0.1365  0.0874  0.1157
 2297W        W18771   2.984  18.767  11.821 -0.0214  0.0731 -0.2200
 2298W        W18772   0.946   8.040   0.757 -0.2689 -0.3194  0.1847
 2299W        W18773   0.364   8.728  14.376  0.0504  0.2564  0.1325
 2300W        W18774   4.691  13.199  13.994 -0.1832 -0.3630  0.4093
 2301W        W18775  12.860   1.076   4.434 -0.0430 -0.1872  0.0108
 2302W        W18776  15.815  14.074   3.252  0.1165 -0.0644 -0.1814
 2303W        W18777   5.465  17.776  14.208  0.3207 -0.1476 -0.0204
 2304W        W18778  17.013   3.343   3.768 -0.0499 -0.3233 -0.0480
 2305W        W18779   4.335   9.834  13.204 -0.5473  0.3362 -0.1478
 2306W        W18780  11.637  15.556  10.654  0.1085 -0.1319 -0.2352
 2307W        W18781  12.044   2.303   0.333 -0.3486 -0.1542  0.2272
 2308W        W18782  16.277   3.583   4.678 -0.0425 -0.4034 -0.3101
 2309W        W18783   8.481   6.567   1.113 -0.0460 -0.3976 -0.0278
 2310W        W18784  12.932   3.800  10.296 -0.0607  0.0442 -0.0958
 2311W        W18785  15.010   1.581  13.745 -0.0486 -0.2468 -0.2092
 2312W        W18786  10.351   5.051   5.041 -0.0249  0.0781 -0.1551
 2313W        W18787  11.676   5.805   0.826  0.1631  0.1819 -0.0537
 2314W        W18788   2.221  18.509  11.064  0.0927 -0.1664 -0.1310
 2315W        W18789  13.412  12.253   0.330  0.0511  0.0747  0.0020
 2316W        W18790   0.282  12.992   0.554 -0.2869  0.0054  0.2011
 2317W        W18791   2.373  13.750  14.653 -0.2142  0.3214  0.1920
 2318W        W18792   8.649  10.612   2.327  0.0786 -0.0545 -0.1504
 2319W        W18793   4.757  11.498  12.964  0.1490  0.3413 -0.2855
 2320W        W18794  11.563  18.337   3.096 -0.1039  0.1219 -0.0967
 2321W        W18795   0.440  10.011  13.650  0.0097  0.2674  0.1044
 2322W        W18796   2.865  11.135  11.744 -0.2531 -0.0707  0.0608
 2323W        W18797   4.319   9.334   4.267  0.1665 -0.3173  0.3703
 2324W        W18798  19.285  11.548  11.949  0.0671 -0.2154  0.1819
 2325W        W18799   3.847  18.076   4.448  0.0588  0.0112 -0.3632
 2326W        W18800   3.485   8.833   9.382  0.2173 -0.1485 -0.3512
 2327W        W18801  10.049  16.933  10.739  0.0901 -0.0298  0.2329
 2328W        W18802  18.922  10.339   3.843  0.0266  0.1701 -0.1878
 2329W        W18803  15.449  13.161   5.401  0.0321  0.0761 -0.0356
 2330W        W18804   1.278   8.558  12.220  0.1848 -0.4269  0.0144
 2331W        W18805   3.509  16.498   2.204  0.2501 -0.1467  0.2509
 2332W        W18806  16.139  15.064   1.500 -0.0010  0.1415  0.0511
 2333W        W18807  11.438   9.712   4.960 -0.2185  0.1515  0.0187
 2334W        W18808  11.267   3.964  10.510 -0.1203 -0.1875  0.1581
 2335W        W18809   4.377   9.318   2.924 -0.2432 -0.0463 -0.1110
 2336W        W18810  14.338   5.246  11.286 -0.1065  0.1865 -0.1330
 2337W        W18811  15.792  18.677  13.405 -0.0385  0.4080 -0.2339
 2338W        W18812  11.304  12.314  13.053  0.3789 -0.1536 -0.0730
 2339W        W18813   0.018  14.252  12.972 -0.1714  0.1603  0.0327
 2340W        W18814   9.414  12.319  10.567  0.1509  0.0092 -0.0202
 2341W        W18815   0.316   5.349  10.866  0.1996 -0.0518  0.1445
 2342W        W18816  17.540   8.975  13.857 -0.1779  0.2170 -0.0514
 2343W        W18817  13.979  17.286   1.945 -0.1835 -0.1442  0.2403
 2344W        W18818  14.450  13.144   4.435  0.1152  0.0270  0.0423
 2345W        W18819   3.264  11.624   5.517  0.0469 -0.1649  0.0625
 2346W        W18820   6.258  13.621   3.968 -0.3114 -0.2389 -0.2206
 2347W        W18821  11.176   6.918  11.648  0.0808 -0.1151  0.0654
 2348W        W18822  18.277   4.320   9.897 -0.0691  0.0851 -0.1166
 2349W        W18823  15.205   9.538  13.562  0.2139  0.2030  0.2964
 2350W        W18824   5.201  14.312   1.103  0.2144 -0.0096 -0.3735
 2351W        W18825  13.655   1.333  14.368  0.1505 -0.4387 -0.0670
 2352W        W18826   6.322   6.249   4.098  0.1157  0.2369  0.1105
 2353W        W18827   4.786  17.438  13.594 -0.0762 -0.0488 -0.0824
 2354W        W18828   6.442   3.823  13.069 -0.1539 -0.0075 -0.1186
 2355W        W18829   8.698   9.684  13.764  0.2896 -0.3976 -0.0519
 2356W        W18830  10.030  13.461  12.460 -0.0402  0.0201  0.0080
 2357W        W18831   7.039  17.366  11.970  0.2506  0.1390  0.0785
 2358W        W18832   4.773  18.652  10.849  0.3123 -0.0469 -0.0045
 2359W        W18833   7.228  11.431   4.331 -0.0174  0.0680 -0.0033
 2360W        W18834  17.749  10.492   5.014 -0.2596 -0.1675  0.0998
 2361W        W18835  16.959   6.479  12.646 -0.0514  0.0706 -0.1847
 2362W        W18836   0.387  15.461   4.501 -0.1218 -0.0587 -0.0292
 2363W        W18837  18.814  13.942   1.523  0.0789  0.1010 -0.0718
 2364W        W18838   8.255   5.767  11.450  0.0443  0.0995 -0.0864
 2365W        W18839   1.123  11.548  12.041  0.0752  0.2920 -0.1100
 2366W        W18840   6.970  10.162  13.476  0.1296  0.1096  0.2677
 2367W        W18841   9.917   7.838   1.742 -0.0202 -0.3240 -0.4331
 2368W        W18842  10.397   7.959   1.182  0.4199 -0.3100 -0.0402
 2369W        W18843   9.085   8.347   4.411  0.2509  0.1928  0.0773
 2370W        W18844  11.796   0.939   1.847  0.0249 -0.0200  0.0415
 2371W        W18845  12.287   5.779   5.154 -0.1650  0.1903 -0.2583
 2372W        W18846  10.005  11.612  11.121  0.0174 -0.1652  0.0359
 2373W        W18847  14.976  16.091   1.752  0.1001 -0.1391 -0.1143
 2374W        W18848  16.524  18.838  14.464 -0.1570 -0.2979  0.1329
 2375W        W18849  16.410  15.679  10.340  0.2393 -0.2051 -0.0303
 2376W        W18850   1.887  17.323  12.214  0.1207  0.0547 -0.0415
 2377W        W18851  19.071  10.214  13.144 -0.2192 -0.0682  0.1333
 2378W        W18852  14.944  11.510   4.065 -0.0583 -0.2762 -0.1827
 2379W        W18853  10.602  13.693   3.420 -0.1741 -0.1598 -0.1311
 2380W        W18854  16.458   9.583   2.233 -0.1326  0.0992 -0.1565
 2381W        W18855   4.223   8.844  12.634  0.1415  0.1256  0.1408
 2382W        W18856  12.493  15.211   6.041 -0.2374  0.0281  0.6034
 2383W        W18857  13.559   3.377   0.169  0.0500  0.2248  0.0278
 2384W        W18858   2.335   5.222  11.897 -0.4333 -0.3176  0.2610
 2385W        W18859   1.077   1.077  14.546 -0.1130  0.2722  0.0808
 2386W        W18860   8.341   3.430  13.707  0.4094 -0.2637 -0.0078
 2387W        W18861  15.479   2.812  10.410  0.1337  0.0649 -0.1484
 2388W        W18862   6.313   7.056  10.438  0.2111  0.3693  0.1548
 2389W        W18863   0.653  17.185   9.350  0.2832  0.1341 -0.0353
 2390W        W18864  17.949  12.755  14.219 -0.0188 -0.0434  0.0639
 2391W        W18865  17.894   3.335   3.443  0.0619  0.1069  0.2530
 2392W        W18866  11.982   6.538  12.647 -0.1166 -0.0347  0.1872
 2393W        W18867  12.887  17.617   3.369 -0.1697  0.1970 -0.2186
 2394W        W18868  15.509  10.331   2.116 -0.0314  0.1639 -0.0460
 2395W        W18869  12.792  12.398   2.084  0.0109  0.0613  0.1444
 2396W        W18870   2.936  18.691  14.211  0.1914  0.1286  0.0075
 2397W        W18871   1.774   2.177   3.774  0.2869 -0.0105 -0.2878
 2398W        W18872  14.649  11.061   0.570  0.3940  0.2466 -0.1880
 2399W        W18873  14.275   1.676   2.758  0.0752  0.1325  0.3024
 2400W        W18874   5.884  17.054   1.568 -0.2880  0.2022  0.1173
 2401W        W18875   8.079   8.818  10.857 -0.0462  0.1281 -0.3388
 2402W        W18876  15.265  15.441  10.829  0.4540 -0.1912 -0.0311
 2403W        W18877  13.813   9.952  14.661  0.0661 -0.4120  0.3457
 2404W        W18878   2.752   9.247   4.264  0.3005  0.0396  0.1268
 2405W        W18879  15.863  10.817  11.557 -0.2464 -0.1545  0.1038
 2406W        W18880  16.210  15.344  10.667 -0.0133  0.2521  0.3574
 2407W        W18881   5.314  11.318  12.712 -0.1071  0.2222  0.0945
 2408W        W18882  17.405  17.547   2.820  0.0549  0.0557  0.0784
 2409W        W18883  15.960   9.139  14.506  0.0010  0.2206 -0.1103
 2410W        W18884  10.138   7.071  12.350 -0.0225  0.0145  0.2886
 2411W        W18885  19.338   7.670   1.019 -0.0016 -0.0669  0.0727
 2412W        W18886   9.687   5.840   1.586 -0.0806  0.1509  0.0361
 2413W        W18887  12.034  15.918   4.734 -0.2147  0.0908  0.4876
 2414W        W18888  15.190  10.902   1.758 -0.1096  0.2126 -0.0524
 2415W        W18889   0.748   1.768   1.506  0.0780 -0.1125 -0.2757
 2416W        W18890   6.606  11.940  13.556 -0.0251  0.1897 -0.0296
 2417W        W18891   7.292   1.640   4.128  0.0505 -0.0535 -0.2811
 2418W        W18892   0.995  11.508  10.410  0.3046 -0.1230 -0.0586
 2419W        W18893  11.405   9.502  13.692 -0.0147 -0.1687 -0.0254
 2420W        W18894   8.144   7.880   3.642  0.2837  0.2399  0.3959
 2421W        W18895  15.990   1.468  14.339 -0.0363  0.0040 -0.3297
 2422W        W18896   9.933  12.741   0.711  0.0884  0.2946 -0.0518
 2423W        W18897  17.729  19.245   9.438 -0.0542  0.0036  0.2856
 2424W        W18898   6.492  13.434   1.333  0.1378  0.3502 -0.3040
 2425W        W18899   6.547   1.697  11.878 -0.1726  0.1988  0.1732
 2426W        W18900  17.538   0.141   0.915  0.0224 -0.0746  0.3371
 2427W        W18901  16.267   0.501  13.395  0.3406  0.2323 -0.0361
 2428W        W18902   9.762   8.978   3.526 -0.2279  0.1852  0.0146
 2429W        W18903   2.054  17.436   0.171  0.3044  0.0754 -0.0875
 2430W        W18904  18.388   5.994   3.051  0.1398  0.2779  0.0339
 2431W        W18905  11.255   0.216   5.108  0.2628  0.1514 -0.0531
 2432W        W18906  11.697  10.230   2.299 -0.3471 -0.1146 -0.1509
 2433W        W18907  19.009  17.472  11.491 -0.1190 -0.1760 -0.1234
 2434W        W18908  11.437   6.831   1.295 -0.1028 -0.2539  0.1617
 2435W        W18909  17.126  11.244  10.968 -0.1459  0.1750  0.0524
 2436W        W18910   9.085  17.923   0.223  0.0504 -0.0061  0.0960
 2437W        W18911   3.729  15.392  14.656 -0.1572  0.4555  0.1912
 2438W        W18912   0.712  14.389   0.233  0.0741  0.1328 -0.4128
 2439W        W18913  16.205  19.410   1.261 -0.1466 -0.3086 -0.1476
 2440W        W18914   0.218   7.789   1.996  0.1165  0.2719 -0.1646
 2441W        W18915  10.521   4.399   3.799  0.2402 -0.0103  0.2545
 2442W        W18916  12.467  18.955   4.068 -0.0271  0.2862 -0.1282
 2443W        W18917   2.748   4.153  13.803  0.1656  0.1315 -0.2179
 2444W        W18918  11.021  13.116   3.696 -0.2214  0.0885 -0.2865
 2445W        W18919   5.949   8.716  11.466  0.1075  0.2116 -0.0979
 2446W        W18920   2.503   7.914   3.691  0.0225 -0.1160  0.2452
 2447W        W18921   5.713  13.446  11.416  0.0043 -0.0801 -0.1134
 2448W        W18922  19.570   4.451   3.449 -0.1563 -0.2640  0.1629
 2449W        W18923   2.763   9.841   3.940  0.1959 -0.7169 -0.0023
 2450W        W18924   0.733   1.661   0.639 -0.0220 -0.0802 -0.1881
 2451W        W18925  18.406   9.523   0.916 -0.1545 -0.0782 -0.1321
 2452W        W18926  14.135  12.876  11.074  0.0302 -0.1259  0.1405
 2453W        W18927  11.075   9.007   3.300  0.2809  0.1356 -0.2431
 2454W        W18928  19.514  18.393  11.394 -0.1576 -0.2292  0.2945
 2455W        W18929  11.285  10.710   5.313  0.2730 -0.0334 -0.0381
 2456W        W18930   6.889  15.080   4.474 -0.0633  0.0167 -0.1940
 2457W        W18931  14.946  18.578   4.346 -0.3464 -0.0789  0.2491
 2458W        W18932  17.797   6.171  13.878  0.0440 -0.4683 -0.0304
 2459W        W18933   2.318   6.526  12.726  0.4216  0.0837  0.3198
 2460W        W18934  10.546  19.607  12.146  0.0651 -0.0315 -0.1148
 2461W        W18935  14.339  15.173   1.794 -0.2572  0.3108  0.0990
 2462W        W18936  11.712  16.320  12.866  0.2356 -0.0916  0.0919
 2463W        W18937  12.541  14.701   4.634  0.0511  0.1683  0.3761
 2464W        W18938   7.475   5.450   2.827 -0.1014  0.0065  0.2581
 2465W        W18939   7.898  18.111   2.650  0.0998  0.5599 -0.2654
 2466W        W18940  14.084   3.207  14.413 -0.0202 -0.0897  0.0654
 2467W        W18941   9.504   9.846  13.887  0.4067  0.1272 -0.1029
 2468W        W18942  13.559  17.152   0.414 -0.1543 -0.2598  0.2839
 2469W        W18943   4.771  12.292   0.137  0.1604 -0.0277 -0.0235
 2470W        W18944   1.472  17.513  14.519 -0.0171  0.0957  0.0133
 2471W        W18945   4.758  12.407   0.940  0.2167 -0.1003  0.0465
 2472W        W18946  18.046  19.597  13.739  0.3493  0.1249 -0.1988
 2473W        W18947   2.826  13.663  11.502  0.1579  0.1114  0.0715
 2474W        W18948   8.245  16.140   2.201  0.3723  0.0927 -0.0410
 2475W        W18949  12.395   5.390  13.277 -0.0170  0.2644 -0.2695
 2476W        W18950  10.454  15.341  13.824  0.1588 -0.1367  0.1825
 2477W        W18951   4.448  17.821  14.636 -0.1878 -0.0312  0.3930
 2478W        W18952   3.228   7.535  10.691 -0.0010 -0.0684 -0.2994
 2479W        W18953   5.633  17.056  12.152  0.1599  0.0657  0.2768
 2480W        W18954   8.728   7.692   3.100 -0.0267  0.0659  0.0055
 2481W        W18955  16.026  11.347   2.879  0.2558  0.1082  0.1175
 2482W        W18956   1.601   5.968  12.080  0.3953 -0.0018 -0.1279
 2483W        W18957  11.046   9.897   4.699  0.2963  0.0078 -0.0761
 2484W        W18958   1.685   6.756  12.241 -0.1915 -0.0689  0.1524
 2485W        W18959  11.609   2.909  10.739  0.0226 -0.0068 -0.0573
 2486W        W18960   7.146  19.112  12.682 -0.1923  0.1795 -0.2512
 2487W        W18961   8.010  13.171  10.354  0.1705  0.0946  0.0901
 2488W        W18962   8.511   3.572  10.641  0.0404 -0.0644 -0.0057
 2489W        W18963  14.204  11.376   4.082 -0.0396  0.1762  0.0523
 2490W        W18964   8.836  10.838   9.818  0.4327 -0.1461 -0.1353
 2491W        W18965  15.770   3.911   3.560  0.0784 -0.0801 -0.0086
 2492W        W18966  13.837  12.160   1.277 -0.2046  0.0121 -0.1293
 2493W        W18967   8.826  12.212  11.720 -0.0958 -0.3434  0.2451
 2494W        W18968  18.062  12.346   3.068 -0.3367 -0.0242 -0.1216
 2495W        W18969  14.850  10.318   1.930 -0.1816 -0.0631  0.1475
 2496W        W18970  17.340  11.133  14.153  0.0683  0.2080 -0.1105
 2497W        W18971  18.041  15.823   2.253 -0.0642  0.1008 -0.1196
 2498W        W18972  14.774  15.497   0.964  0.2514 -0.1647  0.0540
 2499W        W18973  11.787   0.354  13.515  0.1285  0.0416  0.0824
 2500W        W18974  14.780   8.048   4.333  0.2781 -0.1008  0.1945
 2501W        W18975  13.020   6.041   1.477  0.0947  0.0015  0.0853
 2502W        W18976   2.252   2.131  11.399 -0.1181  0.1369 -0.0194
 2503W        W18977   3.243   0.953   0.493  0.0023 -0.2293 -0.2504
 2504W        W18978   3.216  19.193   4.174  0.0670  0.0716  0.1013
 2505W        W18979  12.939  12.348  11.076 -0.0431  0.1593 -0.1696
 2506W        W18980  16.541  15.401  12.010 -0.1586  0.2947  0.0192
 2507W        W18981   2.766   8.402   2.878  0.5406 -0.1855  0.3229
 2508W        W18982  15.987   5.924   9.055 -0.0229  0.0484  0.1365
 2509W        W18983  19.478  17.928  11.715  0.1306  0.0079 -0.0914
 2510W        W18984   9.246  18.133  10.472  0.1065  0.2308 -0.0127
 2511W        W18985  13.022   5.548   1.673 -0.1782  0.0924 -0.0314
 2512W        W18986  16.103  10.018  10.805  0.2907  0.1190 -0.2740
 2513W        W18987   7.635   9.355  13.418 -0.1959  0.0888 -0.0699
 2514W        W18988   3.399   8.444   8.802 -0.0867 -0.2684 -0.1871
 2515W        W18989   9.761   8.847   4.033 -0.2102  0.2175 -0.0342
 2516W        W18990  11.158   0.496   3.157  0.1236  0.1262 -0.0112
 2517W        W18991  19.376   4.035   4.229  0.2514 -0.2322  0.3026
 2518W        W18992  12.857   8.201  14.369 -0.1289 -0.0311 -0.1200
 2519W        W18993  10.884   1.978   3.806  0.0046  0.1913 -0.1282
 2520W        W18994   8.323   5.463   2.408  0.0532  0.0360 -0.0378
 2521W        W18995   5.509   8.220   1.982  0.1395 -0.1115 -0.2632
 2522W        W18996   2.307  19.282   1.950 -0.2231 -0.0454 -0.0393
 2523W        W18997  16.321   4.038   9.653 -0.0896 -0.0098  0.0780
 2524W        W18998   5.560  16.100  10.959  0.4378  0.0023 -0.1561
 2525W        W18999  14.631   2.681   9.859 -0.1617  0.1667  0.1311
 2526W        W19000   7.740   4.401  11.405  0.1401 -0.2019 -0.3918
 2527W        W19001  11.109  12.554   1.994 -0.1804  0.3240  0.0248
 2528W        W19002   5.985   7.145  13.202  0.4251  0.1859 -0.0661
 2529W        W19003   7.490   6.316   3.766 -0.4126  0.0037 -0.1182
 2530W        W19004   9.682   2.724   9.688  0.3774  0.0860  0.1989
 2531W        W19005   5.444  10.034  12.245 -0.2416  0.1748 -0.1347
 2532W        W19006   5.442   8.193   0.968 -0.0013 -0.1055 -0.3255
 2533W        W19007  17.920  15.064   1.655 -0.1802 -0.1010 -0.1272
 2534W        W19008   9.440  11.410   1.204  0.0224  0.0317  0.3322
 2535W        W19009   8.850  14.507   4.673  0.0132 -0.0450  0.0822
 2536W        W19010  13.618  17.562   2.854  0.0343 -0.4016 -0.1180
 2537W        W19011   0.618  10.223  14.103 -0.0334  0.0025  0.1457
 2538W        W19012  11.721  12.952   0.103 -0.2207  0.0202 -0.2839
 2539W        W19013   5.173  10.464   0.742  0.2084 -0.4127  0.3181
 2540W        W19014   3.919  16.047  11.445  0.1882  0.0750 -0.1956
 2541W        W19015  13.651   0.500   1.179  0.0135 -0.1495 -0.0198
 2542W        W19016   2.375   3.431  11.105 -0.0032 -0.0403 -0.0541
 2543W        W19017  15.358  12.270  12.088 -0.1073  0.1095 -0.1232
 2544W        W19018   8.254  16.983   1.523  0.1618  0.0025  0.2503
 2545W        W19019   4.830   4.098   0.939 -0.1283  0.3115  0.1122
 2546W        W19020   2.033   2.593  10.214  0.1921 -0.2923 -0.2334
 2547W        W19021   1.348   9.673   2.980 -0.0623  0.0445  0.2977
 2548W        W19022   1.847   5.101   3.872  0.0543  0.0423 -0.1182
 2549W        W19023   5.766  18.599  11.801  0.0988 -0.0638 -0.1088
 2550W        W19024   9.594   3.028  12.153  0.5072 -0.1421 -0.0540
 2551W        W19025  11.426   4.848   0.563 -0.0793 -0.1940  0.1076
 2552W        W19026  16.046   9.250   1.985 -0.1024 -0.2554 -0.1558
 2553W        W19027   0.785   1.269   3.321  0.1470 -0.3443 -0.0243
 2554W        W19028   2.760   8.643  12.360  0.0756  0.2305  0.0001
 2555W        W19029  13.274   0.072   3.894 -0.1953 -0.1333  0.3740
 2556W        W19030  12.286  16.234  13.935 -0.2081  0.0220  0.1643
 2557W        W19031  16.984   1.386   2.253  0.5477 -0.1361 -0.1792
 2558W        W19032   8.386  16.942  12.997 -0.0720 -0.3991 -0.2240
 2559W        W19033   6.034   0.372   2.086  0.1648  0.2930  0.0257
 2560W        W19034   3.862   8.795  13.018 -0.2224 -0.0279 -0.0368
 2561W        W19035  14.278   1.207   4.159  0.2549  0.3034 -0.0455
 2562W        W19036  14.534   7.587   3.490 -0.1548 -0.1068 -0.1775
 2563W        W19037   1.730  17.167  13.634  0.0432  0.0112 -0.2829
 2564W        W19038  15.740   7.333   2.660 -0.2331 -0.0478 -0.2211
 2565W        W19039   6.009   7.201   4.788 -0.0699  0.1560 -0.2080
 2566W        W19040  15.307  14.025   3.358 -0.3430  0.1739 -0.2169
 2567W        W19041   6.682   6.234  12.329 -0.1410 -0.1637 -0.2883
 2568W        W19042  13.442  15.409   4.069 -0.0194 -0.1929  0.3696
 2569W        W19043   6.977   7.067  13.473 -0.0256 -0.0797 -0.1246
 2570W        W19044   2.299   0.587  14.345 -0.0492  0.0434  0.1033
 2571W        W19045  13.731  14.497   0.276  0.2244 -0.1958  0.0964
 2572W        W19046   5.084  13.256   3.311  0.0215  0.3249 -0.3321
 2573W        W19047   1.238  18.916  12.668  0.1263 -0.0129 -0.3119
 2574W        W19048   0.515   3.276   3.310  0.2865  0.0299 -0.2221
 2575W        W19049  10.084   1.315   3.567 -0.3176  0.0627  0.0393
 2576W        W19050  17.099  12.295  11.499  0.0722  0.1903  0.1061
 2577W        W19051   5.798  17.091   2.977  0.2490  0.0574 -0.0310
 2578W        W19052   8.676   3.148  13.457  0.0573 -0.2769  0.0140
 2579W        W19053  12.973  11.574   3.743 -0.2252 -0.0604  0.2778
 2580W        W19054  12.303  13.384  12.819 -0.0939  0.2061  0.2072
 2581W        W19055  16.163  15.531   1.273  0.6191 -0.2214  0.0652
 2582W        W19056   1.857  16.832   2.825  0.0890 -0.1260 -0.1159
 2583W        W19057   0.629  17.978  11.298  0.5149  0.0346 -0.3809
 2584W        W19058  18.769  17.053   4.608  0.1263 -0.2928  0.0406
 2585W        W19059  17.730   1.242  10.709 -0.1881 -0.1554 -0.0097
 2586W        W19060  14.057  14.400  14.016  0.1421 -0.0732  0.1133
 2587W        W19061   9.076   2.767  11.925  0.1227 -0.2304  0.0214
 2588W        W19062   9.125  15.457  12.981  0.0180 -0.0367  0.1394
 2589W        W19063  18.406  12.314  11.646  0.0710  0.2337  0.1695
 2590W        W19064   5.873   6.619  12.913  0.1449 -0.0946  0.1049
 2591W        W19065  10.814   6.507   0.720 -0.0683 -0.1947 -0.0517
 2592W        W19066  16.523   6.749   1.469  0.0969  0.0002  0.3356
 2593W        W19067  10.684   9.581   1.771  0.0727  0.0911  0.1130
 2594W        W19068   5.161  19.469  13.335 -0.0775  0.1875  0.3334
 2595W        W19069   0.616   3.412   3.804  0.0388 -0.0005  0.1518
 2596W        W19070  19.080  13.201  10.229 -0.0872 -0.0911  0.0454
 2597W        W19071   4.744  11.021  12.671 -0.2278 -0.0464 -0.1993
 2598W        W19072  15.304   3.689   4.335 -0.0392  0.1195 -0.3244
 2599W        W19073   6.808   8.378  14.019 -0.1868 -0.6093  0.2538
 2600W        W19074   5.422   0.420   2.919 -0.2221 -0.0205 -0.0737
 2601W        W19075   2.072   7.695   0.319  0.2028 -0.4535 -0.1506
 2602W        W19076   4.292  15.587   5.235 -0.1573  0.2214  0.0829
 2603W        W19077  10.071   4.308   0.220  0.2877 -0.0923  0.0131
 2604W        W19078   7.897   6.839  12.092  0.0979 -0.2130  0.2022
 2605W        W19079  10.652   0.393  11.257  0.1322  0.3344  0.3141
 2606W        W19080   5.767   5.808  11.469  0.0147  0.0395  0.0510
 2607W        W19081  15.728  15.138   1.982 -0.1812  0.0767  0.1762
 2608W        W19082   7.168   6.630   3.452 -0.1448  0.0666  0.2926
 2609W        W19083   7.602   9.511   0.736 -0.1049  0.0004  0.0300
 2610W        W19084  13.405  12.564   1.212  0.0357 -0.4536  0.0910
 2611W        W19085  13.803   2.130   0.133 -0.3533  0.0194 -0.3282
 2612W        W19086  16.013   8.987   0.820 -0.0066 -0.0056  0.1928
 2613W        W19087  16.489   7.297  13.844 -0.0667  0.0826  0.0922
 2614W        W19088   0.153   0.279  13.805 -0.2537  0.3469  0.1268
 2615W        W19089   5.623  17.479   3.952 -0.2297  0.1473 -0.0603
 2616W        W19090  19.409  14.968   9.687 -0.1307  0.1091  0.3132
 2617W        W19091   6.520  13.348   4.347 -0.2054 -0.0911 -0.0704
 2618W        W19092  10.494   6.421  12.867  0.0073  0.0550 -0.1457
 2619W        W19093  15.933  15.504   9.588  0.1637 -0.3095 -0.0025
 2620W        W19094   5.083  17.490   2.289  0.1304 -0.2194  0.0749
 2621W        W19095   1.526   9.080   0.341 -0.0567 -0.3109  0.0777
 2622W        W19096   7.006  14.407  11.204 -0.1475 -0.0228 -0.5412
 2623W        W19097   1.833  10.768  13.370 -0.0332 -0.1721  0.1458
 2624W        W19098  19.577   7.737  12.339  0.5393  0.1061 -0.0197
 2625W        W19099  18.798   3.419  12.415 -0.0721 -0.0700 -0.1337
 2626W        W19100  14.289   6.699   2.401  0.1164 -0.1059 -0.5175
 2627W        W19101   4.320   8.336   3.982 -0.1238 -0.3747  0.0291
 2628W        W19102   7.404   2.680   0.779 -0.2310 -0.0717 -0.0305
 2629W        W19103   1.899   0.490   0.011 -0.2424 -0.0519  0.0850
 2630W        W19104  19.339   8.529   2.620  0.3916  0.0417 -0.0698
 2631W        W19105   2.963   0.118   1.583  0.0982 -0.5655  0.2424
 2632W        W19106  12.334   2.715   4.905 -0.2634 -0.2881 -0.1463
 2633W        W19107   0.153   7.456  11.644 -0.0077 -0.2272  0.3473
 2634W        W19108   7.611   0.044   1.439 -0.1651 -0.4502  0.0224
 2635W        W19109   7.149   2.244   4.908  0.1228  0.2175 -0.0564
 2636W        W19110  11.500   7.110  10.876  0.0721  0.1850 -0.0582
 2637W        W19111   4.726   1.004   9.324 -0.2355  0.0755  0.1664
 2638W        W19112  13.904   8.704  12.815  0.0619  0.2444 -0.0146
 2639W        W19113  10.525  19.533   4.253 -0.0754  0.1273 -0.3458
 2640W        W19114  13.052  11.353   0.039  0.0242 -0.0813 -0.1230
 2641W        W19115   6.428   8.318   3.613  0.3341 -0.2132 -0.0797
 2642W        W19116  18.251   1.941  13.995 -0.0953  0.3516  0.2429
 2643W        W19117   7.970   3.555  10.729  0.0255 -0.0053  0.2800
 2644W        W19118  11.620  13.955   3.018  0.4340 -0.2714 -0.2803
 2645W        W19119   8.357   4.435   1.287 -0.1519  0.2386  0.2126
 2646W        W19120  19.205  16.510  12.588 -0.1085 -0.1740 -0.1576
 2647W        W19121   5.879  19.033   0.925  0.1204  0.2371 -0.0449
 2648W        W19122   3.658  10.530   4.551  0.5354 -0.1648  0.0837
 2649W        W19123   7.239  13.558   0.463  0.0483  0.2291  0.2198
 2650W        W19124  14.789  11.866   0.805 -0.4013 -0.1801 -0.2088
 2651W        W19125  12.119  12.320  13.739  0.1147  0.1318 -0.2980
 2652W        W19126   0.022   5.545   3.977  0.0042 -0.2833 -0.5702
 2653W        W19127  14.570   1.937  12.158 -0.0930  0.0583  0.0066
 2654W        W19128  19.413  17.758  11.229  0.3952  0.0601  0.1382
 2655W        W19129  14.821  10.900  14.239 -0.0928  0.3425  0.1162
 2656W        W19130  10.095  19.518  11.444 -0.2136 -0.1558 -0.3161
 2657W        W19131  19.450   4.742  11.234  0.0463  0.2642 -0.0066
 2658W        W19132   9.584  10.809  11.685  0.1226 -0.0230 -0.2264
 2659W        W19133   6.436   5.820   4.281 -0.5580  0.2852  0.0473
 2660W        W19134  16.228  15.849   2.984  0.2639 -0.0166 -0.1068
 2661W        W19135   0.904  12.177  12.100 -0.1422 -0.0948  0.6390
 2662W        W19136  17.824  14.511  14.364  0.0927 -0.1185 -0.1730
 2663W        W19137   9.906   5.977   4.268 -0.2241 -0.3737  0.0958
 2664W        W19138  16.573  17.515   2.397 -0.2917 -0.2055 -0.3678
 2665W        W19139   2.457   0.769   4.675  0.3620  0.1857 -0.0939
 2666W        W19140  11.600   4.062  10.855 -0.0586 -0.1824  0.3288
 2667W        W19141   7.213   4.876   1.189  0.3496  0.2892 -0.0381
 2668W        W19142   3.039   5.820   4.347 -0.1550  0.3152 -0.0483
 2669W        W19143   9.157  13.313   4.875 -0.2737 -0.5830  0.2508
 2670W        W19144  13.012   8.264  13.589 -0.0077  0.1921  0.1673
 2671W        W19145  17.602   8.472   1.858 -0.0230 -0.1939 -0.0525
 2672W        W19146   6.464   5.843  13.210 -0.0296  0.0401  0.2976
 2673W        W19147  16.482  10.966  10.185  0.1964 -0.0656  0.0585
 2674W        W19148  18.301   9.221  11.265 -0.0238 -0.0620  0.4561
 2675W        W19149  10.084   2.906   2.785  0.1468  0.0909  0.4617
 2676W        W19150   6.422   8.852  11.694  0.0490 -0.3205  0.0719
 2677W        W19151  16.409   9.260   3.428  0.0755  0.0022 -0.0908
 2678W        W19152  16.817   8.727   2.913  0.1376 -0.1670  0.1812
 2679W        W19153   5.188   2.059   0.719  0.0518 -0.0508  0.1691
 2680W        W19154  11.152   7.243   4.603  0.1909 -0.0813  0.0014
 2681W        W19155   9.199  11.408   2.794  0.1274 -0.0334  0.3159
 2682W        W19156   4.320   0.814  11.448 -0.2043  0.1774 -0.0527
 2683W        W19157  17.456  10.832  13.358  0.0249 -0.0140  0.0040
 2684W        W19158  11.016   2.119  11.637 -0.1021 -0.0311  0.1712
 2685W        W19159  16.341  14.509   0.838 -0.1280 -0.2914  0.2682
 2686W        W19160  12.564  15.451  11.774 -0.0274 -0.1566  0.0564
 2687W        W19161  17.694  11.281  12.037  0.1453  0.3342 -0.0383
 2688W        W19162   6.505   3.242  10.802 -0.2027 -0.1185 -0.2123
 2689W        W19163   6.336   3.476   3.473  0.0489 -0.0197 -0.0673
 2690W        W19164  10.720  12.969  12.792 -0.0932 -0.2554 -0.0642
 2691W        W19165   2.462  16.009   4.642  0.1599 -0.1897 -0.0113
 2692W        W19166   7.087   9.464  12.093  0.1180  0.1644  0.0328
 2693W        W19167   4.191   5.592  11.554  0.0609  0.1197  0.5635
 2694W        W19168   3.149   0.756  13.880  0.0739 -0.0167 -0.1107
 2695W        W19169   5.955  13.375  12.334  0.2201 -0.1827 -0.0534
 2696W        W19170  19.169   4.239   3.769 -0.0960 -0.0417 -0.2099
 2697W        W19171   7.471  18.642   3.417 -0.2327 -0.2007 -0.1020
 2698W        W19172   0.038   3.871   1.338  0.0702  0.1519 -0.0954
 2699W        W19173  15.646   2.473   2.908 -0.1937 -0.0681 -0.1266
 2700W        W19174   8.777   3.818   4.492  0.1028  0.3157 -0.4547
 2701W        W19175  17.643  12.414   5.250 -0.2075  0.0677  0.1124
 2702W        W19176   0.670  11.153   3.706  0.0272 -0.2289  0.0645
 2703W        W19177  17.950  12.297   0.467 -0.0999 -0.1472 -0.1607
 2704W        W19178   4.782   8.976   2.229 -0.1007  0.0254 -0.0235
 2705W        W19179   5.489   8.521   2.994 -0.3515 -0.1651 -0.0391
 2706W        W19180  11.686  16.319  13.474 -0.0286  0.1060  0.1516
 2707W        W19181  11.358   5.782  14.615  0.0122  0.1347 -0.1474
 2708W        W19182  10.916  16.804  12.160 -0.2087 -0.1204 -0.3260
 2709W        W19183  13.523  14.959   1.424 -0.2683 -0.0091  0.6158
 2710W        W19184  12.126   6.610   0.594  0.1398  0.3065 -0.1082
 2711W        W19185   6.178   7.705   4.910  0.2118 -0.2858 -0.2216
 2712W        W19186   6.970   5.928  14.075  0.1576  0.2453  0.4262
 2713W        W19187  10.699   0.287   0.729 -0.0956 -0.0565  0.1278
 2714W        W19188  15.750   2.576   4.291 -0.1990  0.2954  0.1634
 2715W        W19189   1.574  11.712   4.960 -0.1429  0.1857 -0.2435
 2716W        W19190  19.468  12.488   3.934 -0.0068  0.1644 -0.0933
 2717W        W19191   7.013  14.198   0.142  0.1340  0.2096  0.1669
 2718W        W19192  18.621   4.370  14.518  0.0808 -0.1407 -0.0897
 2719W        W19193   8.367  18.229   1.898 -0.2178 -0.3986  0.1486
 2720W        W19194  18.642   4.401  10.155  0.0505  0.0264 -0.0204
 2721W        W19195   9.370   0.438   9.774  0.1022 -0.0613 -0.2907
 2722W        W19196   9.799  17.090  11.259  0.0168 -0.3577  0.2359
 2723W        W19197  15.298   2.973   3.052  0.2229  0.2579 -0.0366
 2724W        W19198   5.523  11.398   0.954 -0.2245  0.0115  0.0791
 2725W        W19199   8.001   6.592  10.927 -0.1457  0.1716 -0.0541
 2726W        W19200  15.317  18.880  14.617 -0.1520  0.1124 -0.1793
 2727W        W19201   7.085   8.597   4.199 -0.2089 -0.1065  0.0295
 2728W        W19202  10.401  15.415   4.118  0.0261 -0.2908  0.5094
 2729W        W19203   6.895  18.444   2.194  0.1849  0.0687  0.0680
 2730W        W19204  10.304  17.998  14.378  0.0116 -0.0903 -0.1058
 2731W        W19205  11.168   6.246   2.654  0.2915  0.0153 -0.2484
 2732W        W19206   6.150   2.713   4.850  0.0565  0.0072  0.0332
 2733W        W19207   7.775  18.467   3.019  0.0709 -0.0814  0.0007
 2734W        W19208  10.482   3.869   4.111  0.3650  0.0989 -0.1595
 2735W        W19209  16.868  13.989  10.341 -0.0125  0.1838  0.3349
 2736W        W19210   0.722  13.991   9.336 -0.0877  0.0937 -0.0791
 2737W        W19211   9.835  15.951  13.319 -0.3861  0.0473  0.2148
 2738W        W19212  10.702   9.854   2.205 -0.0437 -0.2836  0.3672
 2739W        W19213   6.589   6.868  11.432  0.0436  0.0270 -0.1018
 2740W        W19214  10.185  16.054  14.291  0.0898 -0.0895  0.1624
 2741W        W19215   6.613   7.019   0.432 -0.0251  0.1752 -0.1685
 2742W        W19216  11.273   5.777  10.856  0.1203 -0.1260  0.0512
 2743W        W19217   6.566  18.095   2.463 -0.2249 -0.0201 -0.0899
 2744W        W19218   9.456   0.472  11.340  0.1787  0.2540  0.1536
 2745W        W19219   0.196   3.958   1.804 -0.2510 -0.1973  0.0745
 2746W        W19220   7.955  11.067   0.847 -0.2035  0.0761  0.3679
 2747W        W19221   2.248  11.957   9.381  0.0161  0.0808  0.1118
 2748W        W19222  17.367  19.507   9.592 -0.0647  0.0567 -0.1203
 2749W        W19223  10.238   8.675   4.317 -0.1738  0.0044  0.3786
 2750W        W19224   1.631  14.498   2.334  0.0555  0.0069 -0.1347
 2751W        W19225   1.574   7.334   0.228  0.3395 -0.1564 -0.0564
 2752W        W19226   1.148  14.905  12.782  0.1646 -0.1617  0.0927
 2753W        W19227   7.651  12.761  10.150  0.0835 -0.1063  0.2481
 2754W        W19228  12.023  11.464  10.777  0.3507 -0.0537 -0.1391
 2755W        W19229   7.190  14.910   5.503  0.1195 -0.2166  0.0197
 2756W        W19230  18.719   9.264  13.907 -0.0577  0.1463  0.0849
 2757W        W19231  18.222   1.930  12.191  0.0827  0.2074  0.0729
 2758W        W19232   5.654   4.053   3.539  0.2486 -0.1195  0.2238
 2759W        W19233   5.267  13.421  12.822  0.3286 -0.0889  0.0184
 2760W        W19234  12.975   9.386   0.437  0.2809  0.2156  0.0453
 2761W        W19235  17.447  19.166   0.704 -0.2468 -0.0396  0.0843
 2762W        W19236   5.085  15.211  13.814 -0.3425  0.3877  0.1531
 2763W        W19237   8.716   2.890   4.908  0.0789 -0.0485 -0.0565
 2764W        W19238  10.105  19.453   1.338 -0.0241  0.0595  0.0970
 2765W        W19239  12.725   3.504   4.024 -0.0600 -0.2413  0.1002
 2766W        W19240  19.484   2.104  14.179 -0.0835  0.2875 -0.0714
 2767W        W19241  16.414   3.541  10.117  0.1307  0.5980 -0.1316
 2768W        W19242   5.071   9.675  10.880  0.0782  0.2295 -0.0715
 2769W        W19243   0.212   7.078   2.193 -0.1670  0.0238  0.0395
 2770W        W19244   9.979  13.190  14.563  0.2943  0.2605  0.1622
 2771W        W19245   8.194   8.895   0.813 -0.1058  0.2735 -0.0562
 2772W        W19246  13.711  16.162   4.395  0.1365 -0.2366 -0.0082
 2773W        W19247  15.166   0.387   1.679 -0.3189 -0.2140 -0.0446
 2774W        W19248  17.054   4.252  14.663 -0.1688  0.1598  0.0837
 2775W        W19249  19.450  14.003  12.242 -0.0038 -0.2363 -0.1023
 2776W        W19250  13.941   7.916   0.278  0.2145  0.2499 -0.4048
 2777W        W19251  19.280  13.337   0.617  0.0976  0.1428  0.5509
 2778W        W19252  10.582   2.107  10.349  0.2463  0.3136  0.0104
 2779W        W19253  14.856  14.668  11.878 -0.4901  0.2068 -0.0505
 2780W        W19254   0.831  17.504   4.911 -0.0694 -0.1600 -0.4009
 2781W        W19255   2.309  12.141   4.529  0.1301  0.0631  0.0730
 2782W        W19256   1.797  17.369  13.078  0.1774  0.0942  0.0064
 2783W        W19257  12.070  13.927   3.445  0.1772 -0.1122 -0.2922
 2784W        W19258   1.383  17.999   9.698  0.2590 -0.1791 -0.2824
 2785W        W19259  10.082  11.831  12.690 -0.0470  0.1540  0.0880
 2786W        W19260   2.258  10.748  11.635  0.1815 -0.3514 -0.3807
 2787W        W19261  11.960  18.300  10.934  0.0676 -0.1646  0.0087
 2788W        W19262   0.259  17.469   4.130 -0.0842 -0.0872  0.1006
 2789W        W19263  19.449   3.778   2.147 -0.2121  0.1231 -0.1973
 2790W        W19264  17.577  12.496   3.167  0.0030 -0.1145  0.1623
 2791W        W19265  18.982  19.570  14.266 -0.0218  0.0068  0.0626
 2792W        W19266  13.628   4.440   2.186 -0.0151  0.4665  0.1830
 2793W        W19267  15.638  14.892   1.516  0.0089  0.0647  0.3773
 2794W        W19268  15.000   9.177  13.259  0.2422  0.1613 -0.0357
 2795W        W19269   6.161   9.595  12.407 -0.1279  0.0434 -0.4238
 2796W        W19270   2.508   3.471  12.579 -0.2175 -0.2645  0.3183
 2797W        W19271   9.894   0.637  10.463  0.2432 -0.1603  0.4012
 2798W        W19272  13.707   5.045   2.643 -0.1399  0.1516  0.2347
 2799W        W19273  15.017  15.257  13.546 -0.1908 -0.1848 -0.1445
 2800W        W19274  13.130   8.937  13.048  0.2676  0.2009  0.0440
 2801W        W19275   2.695   7.995  13.666  0.2772 -0.3772  0.2991
 2802W        W19276  15.891   1.260   2.561 -0.0278  0.4502 -0.0156
 2803W        W19277  11.055  16.591   1.864  0.2064  0.2274  0.2991
 2804W        W19278   9.390   2.675   0.911  0.2179  0.3051 -0.0975
 2805W        W19279   2.466   0.002  10.141 -0.0430 -0.1787  0.1576
 2806W        W19280  16.814  10.792  11.097 -0.2474  0.2493 -0.0336
 2807W        W19281   0.506  10.819  12.006 -0.1394 -0.0035  0.1251
 2808W        W19282  17.713  10.938  11.636  0.1262 -0.0852  0.0464
 2809W        W19283   9.468  10.963   3.674  0.1277 -0.0911  0.5747
 2810W        W19284   3.266   1.865  10.510 -0.1511  0.2449 -0.1158
 2811W        W19285   6.565   9.112  13.525 -0.0020 -0.0046 -0.3670
 2812W        W19286   1.058   7.970  14.183 -0.2476  0.0548 -0.1184
 2813W        W19287  13.458  14.741   4.920  0.2698 -0.0025  0.0199
 2814W        W19288  13.986  11.445   1.093  0.1119 -0.0254 -0.0232
 2815W        W19289   8.570   4.848  12.418  0.1135 -0.0307 -0.0681
 2816W        W19290  19.414  10.171   2.263 -0.0474  0.0983  0.3029
 2817W        W19291   9.196   9.494  13.609 -0.0856  0.0487 -0.0298
 2818W        W19292   7.425  17.309   1.089  0.2584  0.3561 -0.2121
 2819W        W19293  15.682  16.682   5.727 -0.2925 -0.0956  0.3159
 2820W        W19294   1.761   1.359  12.763 -0.1579 -0.4048 -0.2697
 2821W        W19295  14.292  18.659  12.227  0.2853  0.0549 -0.4101
 2822W        W19296  11.723   1.545   1.781  0.0030 -0.0792  0.2581
 2823W        W19297   0.641   0.186   3.055 -0.2574  0.1771 -0.0294
 2824W        W19298   7.330  17.315   5.697 -0.0520 -0.5320 -0.2477
 2825W        W19299   1.333   3.390   1.092  0.0190  0.1622 -0.1050
 2826W        W19300  17.388   4.390  13.327 -0.1065  0.2269 -0.0459
 2827W        W19301  17.614   8.586  12.736 -0.1789  0.4253 -0.0257
 2828W        W19302   7.397  10.061   0.789  0.1412 -0.0060 -0.0639
 2829W        W19303  11.810   4.955   4.785 -0.1149 -0.2189 -0.3028
 2830W        W19304   0.525  16.614   3.077  0.1704 -0.1233  0.2778
 2831W        W19305   1.489  16.630  13.595 -0.1320  0.1260 -0.2218
 2832W        W19306   3.776  16.031   2.496 -0.0796  0.0780  0.0133
 2833W        W19307  17.914   9.087  11.625  0.2691 -0.0340 -0.0944
 2834W        W19308  17.132  18.108   0.053  0.1963 -0.2227 -0.4717
 2835W        W19309   5.209   0.663  13.792  0.0433  0.1082 -0.2623
 2836W        W19310  15.178   1.938   0.021  0.1840 -0.0227 -0.2535
 2837W        W19311   8.606  11.220  13.644  0.0998 -0.0444  0.2775
 2838W        W19312   5.107  18.759   2.465 -0.0562 -0.0930  0.1889
 2839W        W19313  12.550  13.328  11.133 -0.1760 -0.0900 -0.0756
 2840W        W19314  17.816  12.791   2.338  0.2032 -0.2049  0.0048
 2841W        W19315  16.215   3.001   3.471 -0.2387 -0.1250  0.0199
 2842W        W19316   4.642   8.402  14.071  0.0051  0.4169  0.1202
 2843W        W19317  14.561   1.640  14.421 -0.2380 -0.1513 -0.0810
 2844W        W19318  10.852  10.016  10.001 -0.1448 -0.0730 -0.0934
 2845W        W19319  11.976  15.475   1.207 -0.0508  0.0823  0.0972
 2846W        W19320   3.717  18.295  12.141 -0.0341 -0.0776 -0.2741
 2847W        W19321   3.788  14.617  11.485 -0.0152 -0.0560  0.1616
 2848W        W19322   0.447   0.865   1.865 -0.0664  0.3181  0.2303
 2849W        W19323  18.818  11.063   1.353 -0.0220 -0.1101  0.3484
 2850W        W19324   2.667   2.231   3.374 -0.0945 -0.0372 -0.2898
 2851W        W19325   3.787   8.015   2.130 -0.2022  0.3572  0.0157
 2852W        W19326  18.013   1.679   3.051 -0.0360  0.2234 -0.1636
 2853W        W19327   1.757   8.249   0.039 -0.0363  0.2137 -0.0269
 2854W        W19328  16.108   4.783   0.321 -0.0538  0.0110  0.2040
 2855W        W19329  11.276  18.913  14.254  0.2135  0.2503 -0.0745
 2856W        W19330   5.576  13.844   0.380 -0.0581  0.0882  0.0506
 2857W        W19331   9.950  15.312   3.795  0.0528 -0.0923  0.0862
 2858W        W19332   7.817  16.659   3.798  0.2537  0.1948  0.1005
 2859W        W19333  17.531   4.387   0.184  0.1284  0.2090  0.1013
 2860W        W19334  15.262   9.115   4.620 -0.0923  0.0320 -0.1476
 2861W        W19335  15.330   9.212  14.493  0.0530 -0.0838 -0.0121
 2862W        W19336  19.620   6.024  14.399  0.4021  0.0580  0.2110
 2863W        W19337   7.405  11.442  13.185 -0.1116  0.1542 -0.1235
 2864W        W19338  11.382   1.943   0.659  0.0476 -0.2760 -0.0499
 2865W        W19339   3.532   7.168  10.975 -0.0504 -0.0031 -0.1233
 2866W        W19340  16.072  15.766   3.857 -0.1252  0.2210  0.3927
 2867W        W19341   1.990  16.233  11.234 -0.1040 -0.0405  0.1557
 2868W        W19342   6.927   9.803  14.617 -0.0320  0.1300 -0.2194
 2869W        W19343   7.634   4.083   3.806 -0.1977 -0.2184  0.1557
 2870W        W19344   9.293  11.786   3.259  0.3277  0.3177 -0.1904
 2871W        W19345   6.712  16.979  12.083 -0.0969 -0.0475  0.0091
 2872W        W19346   9.040   1.159   0.128  0.0430  0.2205  0.0144
 2873W        W19347   1.090  13.820   0.473 -0.4376 -0.1884 -0.0173
 2874W        W19348   3.213   3.144  12.624 -0.0753  0.0357  0.1301
 2875W        W19349  16.542   8.788  13.741  0.0319  0.1414 -0.0157
 2876W        W19350   7.356   4.613   3.337  0.3249 -0.0209 -0.0147
 2877W        W19351  14.645  12.245   3.526 -0.0951  0.2213  0.0387
 2878W        W19352   6.372  10.235   1.584 -0.0540  0.1355 -0.1653
 2879W        W19353   4.871   2.315   3.406  0.2067  0.2948 -0.2564
 2880W        W19354  19.024   3.496   3.013  0.0711 -0.0477  0.1887
 2881W        W19355   7.461   4.087   0.963 -0.1371 -0.4209  0.2788
 2882W        W19356  15.681   1.633   4.046  0.0222  0.0577  0.0685
 2883W        W19357   0.688   2.579   2.125  0.0537 -0.2098  0.1404
 2884W        W19358  13.295   2.708  11.538 -0.1116  0.2041  0.1577
 2885W        W19359   7.034   4.422  13.330  0.0702  0.0054  0.0303
 2886W        W19360   7.423   0.329   4.866  0.1960  0.0317 -0.2486
 2887W        W19361   7.346  16.324   3.810 -0.1099  0.1617 -0.3248
 2888W        W19362  13.617  12.052   3.384  0.1079 -0.0851  0.3318
 2889W        W19363   0.008  17.710   3.300  0.2113  0.0392 -0.0014
 2890W        W19364  18.550   4.557  11.385  0.1382 -0.2195  0.0293
 2891W        W19365  18.426  13.423   0.853  0.1053  0.1935 -0.2810
 2892W        W19366  18.361   5.546   3.212 -0.2302  0.0675 -0.1108
 2893W        W19367  10.299  18.796   4.410 -0.0979 -0.2200  0.4465
 2894W        W19368   4.258  12.283   0.880  0.0590 -0.2523  0.2249
 2895W        W19369  15.510  13.105   1.296 -0.5252  0.1258  0.0007
 2896W        W19370  13.089   3.971   9.087  0.0723 -0.4339  0.3117
 2897W        W19371   6.842  19.357   2.947  0.1608 -0.1504  0.0885
 2898W        W19372   5.612  14.246   0.744  0.0895  0.2781  0.0841
 2899W        W19373   6.306  17.485   3.321 -0.1024  0.1104 -0.1896
 2900W        W19374   8.864  14.148   3.919  0.0450  0.1889  0.0375
 2901W        W19375  15.598  10.886  13.610  0.1273 -0.1859 -0.0249
 2902W        W19376  18.633  18.158  12.009  0.1002 -0.1713  0.2938
 2903W        W19377  18.501   5.666  13.482 -0.0302  0.2969  0.4230
 2904W        W19378  19.400  13.543  13.612 -0.0289 -0.0635  0.2555
 2905W        W19379   6.267   1.237   9.991 -0.0061  0.2922  0.4812
 2906W        W19380  12.010  17.735  14.573  0.2365 -0.1783 -0.0197
 2907W        W19381   9.776  16.976   9.822  0.2875  0.2354 -0.4644
 2908W        W19382   8.319   8.419  11.812  0.1814 -0.0023  0.0181
 2909W        W19383  16.066  16.294   9.638  0.3073 -0.1775 -0.0223
 2910W        W19384   3.785  10.700  13.608 -0.2419 -0.2576 -0.1806
 2911W        W19385  13.249  19.412  11.506 -0.0907  0.1918  0.1362
 2912W        W19386   1.229   1.973   4.610  0.1282  0.2021 -0.1073
 2913W        W19387  16.983  18.807   1.379  0.0222  0.2698  0.1507
 2914W        W19388   6.270   8.220   1.507  0.1100  0.1205  0.2259
 2915W        W19389  10.260   2.214   1.086 -0.0019 -0.0634 -0.0234
 2916W        W19390   1.758  14.872  13.569  0.2700  0.2588 -0.1227
 2917W        W19391  13.846   4.909  11.475  0.1855 -0.1041 -0.0892
 2918W        W19392   1.222   9.710  10.133  0.3679  0.3176 -0.2950
 2919W        W19393   3.525  13.702   4.232  0.0446 -0.4181  0.0663
 2920W        W19394  18.361   7.829  12.752  0.0808 -0.3133  0.1569
 2921W        W19395   2.517   4.466  11.874  0.0883  0.3410  0.1179
 2922W        W19396  14.933  14.696   5.557 -0.3460  0.0546 -0.1731
 2923W        W19397   3.745   6.389   2.882  0.0789 -0.0821 -0.0508
 2924W        W19398   8.934   2.981   1.550 -0.2112  0.0090 -0.0142
 2925W        W19399   4.602  11.862   3.564  0.3114 -0.0115 -0.1374
 2926W        W19400  13.331  16.034   9.408 -0.1864  0.1546 -0.2099
 2927W        W19401   3.751   4.879   0.708  0.0718  0.1467  0.0520
 2928W        W19402  10.259   9.566   1.422  0.3342 -0.1445  0.1221
 2929W        W19403  11.528   1.891   2.748  0.0747 -0.1271  0.1037
 2930W        W19404   5.680  18.381  12.336  0.1312  0.0964  0.0537
 2931W        W19405   6.378  10.968   1.233  0.0729 -0.2867  0.0115
 2932W        W19406   1.652  12.911  13.412 -0.2951  0.3459 -0.0442
 2933W        W19407  19.278   2.063  12.257  0.0721 -0.1686 -0.4123
 2934W        W19408  17.744  12.538   0.074  0.0065  0.1616 -0.0041
 2935W        W19409  11.248  10.093   0.096  0.2749  0.1052  0.0022
 2936W        W19410  17.429   5.591   1.401  0.1792 -0.2777  0.1420
 2937W        W19411  18.699   9.642  12.787  0.2164  0.1157 -0.2469
 2938W        W19412   0.975  16.582  13.862  0.0005 -0.1923 -0.1970
 2939W        W19413   1.760  18.029  13.526  0.1537 -0.0513 -0.1043
 2940W        W19414   9.280   0.130  13.534 -0.0643  0.0755 -0.2865
 2941W        W19415   0.326   2.114  14.425 -0.2805  0.2417 -0.0094
 2942W        W19416  10.301   3.226   2.318  0.4366  0.2039 -0.0198
 2943W        W19417   4.598  15.146   3.800 -0.2113  0.0446 -0.1836
 2944W        W19418   9.488   1.907  14.427  0.4292  0.2109  0.1311
 2945W        W19419  14.399   5.695   4.211  0.2184  0.0600 -0.1160
 2946W        W19420   9.013  16.970  13.659  0.2094  0.4026 -0.0002
 2947W        W19421  17.420   5.319   3.784  0.5495 -0.0974 -0.1012
 2948W        W19422  17.003   3.575  11.659  0.1612 -0.2070  0.2286
 2949W        W19423  17.971  10.787   4.161  0.0093 -0.0093  0.0883
 2950W        W19424  16.138   1.245   4.427 -0.0415  0.1442  0.0658
 2951W        W19425   3.857  18.143   0.303  0.0222  0.1182 -0.1637
 2952W        W19426  18.992   3.563   4.196 -0.3006  0.0754  0.1141
 2953W        W19427   3.896  15.031  13.880  0.1695 -0.2322  0.2180
 2954W        W19428   6.226  17.233   0.396  0.0788 -0.0847  0.1452
 2955W        W19429   9.224   1.953   9.317 -0.2148 -0.0677  0.1435
 2956W        W19430  18.858  11.746   3.313  0.0254 -0.1369 -0.0554
 2957W        W19431  18.358   3.745  12.715 -0.0932  0.2915  0.3793
 2958W        W19432   4.608  16.657   4.471 -0.0665 -0.1668  0.2716
 2959W        W19433   5.287  14.174  12.039  0.0267  0.3521  0.3016
 2960W        W19434  17.667  16.915  10.924 -0.1935  0.1281 -0.1962
 2961W        W19435   0.870  15.357  12.733 -0.2880  0.1675 -0.1454
 2962W        W19436  19.444  18.416   2.612  0.2470  0.0874  0.0067
 2963W        W19437   4.067   9.736  13.837 -0.1406  0.2810 -0.0907
 2964W        W19438   6.198   5.967  11.550  0.0871  0.0271 -0.3719
 2965W        W19439  19.178  15.458  10.806 -0.1212 -0.0709  0.0140
 2966W        W19440  13.870   6.913   0.425 -0.0598  0.1149  0.0620
 2967W        W19441  12.808  18.063   3.097 -0.0948 -0.1501  0.1555
 2968W        W19442   1.804   3.650   0.994 -0.1526  0.3223  0.0984
 2969W        W19443  18.964  14.313   4.662  0.2842 -0.0689  0.0488
 2970W        W19444   3.058   0.160   3.093  0.1880 -0.0997  0.2109
 2971W        W19445  18.138   0.559  11.168  0.0240 -0.0363  0.0721
 2972W        W19446   5.194   4.667   2.445 -0.1985  0.2309  0.0827
 2973W        W19447   3.314  10.842  14.015  0.2520  0.0792  0.0467
 2974W        W19448  11.833   8.218   2.748  0.0655  0.1518  0.3816
 2975W        W19449   5.336   0.858  10.301  0.0062 -0.0672 -0.0915
 2976W        W19450   6.506  19.412  13.178  0.1147 -0.0679  0.1335
 2977W        W19451   2.762  16.336  14.047  0.0236 -0.0339  0.1515
 2978W        W19452   1.972  17.568  13.498  0.3039  0.1778 -0.0372
 2979W        W19453  17.687   9.645  13.088 -0.0438 -0.0952  0.1270
 2980W        W19454  15.877   8.938  12.728 -0.1590 -0.1604  0.1244
 2981W        W19455   9.302   0.745  10.142 -0.0509  0.1681 -0.1461
 2982W        W19456   4.793   1.661  13.034  0.1575  0.0595  0.1477
 2983W        W19457   8.516  13.512  11.268  0.1101 -0.2141  0.0118
 2984W        W19458   2.088   6.345  14.317  0.0835  0.0758  0.4215
 2985W        W19459  17.204   5.718   0.111  0.0635  0.0320  0.2984
 2986W        W19460   6.767   0.686  10.186  0.1203  0.1771 -0.1586
 2987W        W19461  14.830   0.310   4.364  0.1357  0.2990 -0.0819
 2988W        W19462  11.055  18.303   4.648 -0.1417 -0.2949  0.0557
 2989W        W19463  13.669   5.050   3.555 -0.1816 -0.0181 -0.0020
 2990W        W19464   8.843   0.314  14.152  0.0380 -0.5068 -0.2704
 2991W        W19465  16.091  15.424  14.315  0.2148 -0.4222  0.2447
 2992W        W19466  16.546  11.294   3.646  0.0827  0.3146 -0.3017
 2993W        W19467   5.244  12.554   0.951 -0.1206  0.0499  0.2744
 2994W        W19468  17.044   0.822  13.599 -0.1576  0.1828  0.1329
 2995W        W19469   4.146   2.494  13.056 -0.0415  0.1358 -0.2465
 2996W        W19470   7.189  15.799  11.138  0.1361 -0.4274  0.0394
 2997W        W19471   8.550   5.972   5.418 -0.1360 -0.4343 -0.3394
 2998W        W19472   2.584  11.670  13.479 -0.1353  0.2281 -0.0542
 2999W        W19473   4.163   0.002   0.970 -0.0647 -0.3251  0.1669
 3000W        W19474  16.331   4.738  12.917 -0.1967 -0.1057  0.0363
 3001W        W19475   5.135  11.645   0.704 -0.1876  0.4071  0.1267
 3002W        W19476   5.830   9.656  13.355  0.1524  0.1177  0.2052
 3003W        W19477  14.764  18.483  13.237  0.1176  0.4316  0.0027
 3004W        W19478  13.816  13.816   3.472  0.2519  0.0716  0.0546
 3005W        W19479   5.062   6.619   9.984 -0.0336 -0.0249 -0.2162
 3006W        W19480  12.162  14.076  13.644  0.2177  0.0087 -0.0626
 3007W        W19481   1.318   2.251  11.179 -0.3191  0.1784 -0.1324
 3008W        W19482  14.205   0.388   3.227 -0.1799  0.0175  0.0043
 3009W        W19483  18.591  13.098   5.108  0.0068 -0.3246 -0.1402
 3010W        W19484  13.240   8.674  10.750 -0.2046 -0.0847  0.0320
 3011W        W19485  13.883  19.019   4.192  0.1268  0.0001  0.1714
 3012W        W19486   8.282   4.851  14.126  0.2275  0.3405 -0.0315
 3013W        W19487   1.112  15.034   0.578 -0.1781 -0.2072 -0.1103
 3014W        W19488  12.036   9.986   1.792  0.0166 -0.1792  0.0679
 3015W        W19489   2.325  16.846   1.160 -0.1143  0.0327  0.1344
 3016W        W19490  13.618  18.932   0.790 -0.2354 -0.0433 -0.2609
 3017W        W19491   3.477  13.810  14.270 -0.1896 -0.0621 -0.0167
 3018W        W19492  14.690   8.871   3.051  0.3680 -0.0325 -0.0287
 3019W        W19493   5.638  15.922   0.726  0.1619 -0.1882 -0.0241
 3020W        W19494   4.593  10.057  13.978 -0.0101  0.0242 -0.0291
 3021W        W19495   3.086   1.080   1.808  0.0672  0.0488 -0.1042
 3022W        W19496  19.165   8.028  11.348  0.1590  0.2347 -0.0011
 3023W        W19497  18.031  19.615  14.266  0.1559  0.0923 -0.1217
 3024W        W19498   3.864  18.360  13.169 -0.0211 -0.0763 -0.0987
 3025W        W19499  10.780   3.970  10.163  0.3553  0.1583 -0.3327
 3026W        W19500  12.954  13.370   3.306 -0.1130 -0.1190 -0.0049
 3027W        W19501  18.407  14.915   4.596 -0.1343  0.1744 -0.0394
 3028W        W19502   9.633   6.938  13.970 -0.2991 -0.0728 -0.0379
 3029W        W19503   2.123   6.986  12.488 -0.0932 -0.1659  0.0279
 3030W        W19504  17.573  11.952  10.170 -0.2342 -0.0720 -0.2727
 3031W        W19505   0.176   0.870  11.770  0.1515 -0.2620  0.1974
 3032W        W19506  17.954  15.621  14.366  0.2664 -0.1751 -0.3718
 3033W        W19507  14.910  10.082  14.556  0.1918  0.3701 -0.4411
 3034W        W19508  19.068   7.287   5.115 -0.2603  0.2316 -0.1521
 3035W        W19509   3.662   6.922   1.783  0.1853 -0.2775 -0.0448
 3036W        W19510  17.136   0.016  11.665  0.1790  0.1580  0.0755
 3037W        W19511   7.803  10.604   0.853  0.0654 -0.1940 -0.0844
 3038W        W19512  12.761  12.236   4.845 -0.0628  0.3227 -0.0655
 3039W        W19513  19.177   6.910  14.577  0.2664 -0.1201 -0.1911
 3040W        W19514   8.253  10.893  12.378 -0.2187 -0.1250  0.2031
 3041W        W19515   5.945  19.123  14.511 -0.0305 -0.1294  0.0710
 3042W        W19516   9.443   6.166   4.340 -0.1164 -0.1159  0.1897
 3043W        W19517  19.032   4.882  12.427 -0.1808  0.1505 -0.0657
 3044W        W19518  15.692  12.091   0.736  0.0200  0.0113  0.0928
 3045W        W19519  19.053   3.027   0.849  0.4214 -0.0625  0.2495
 3046W        W19520  15.972   8.292   2.400  0.2214 -0.3891  0.2119
 3047W        W19521  12.417   6.485  14.004  0.3090  0.0434 -0.1655
 3048W        W19522  11.988  11.989  11.314 -0.0135 -0.3069 -0.1318
 3049W        W19523  12.905   6.143   2.876  0.0503 -0.2091  0.0902
 3050W        W19524  14.477   2.436  14.029 -0.2231  0.1392  0.2158
 3051W        W19525   8.630  19.502  12.811 -0.0687  0.0600  0.0492
 3052W        W19526  13.840  18.986  10.618 -0.0601  0.0854 -0.0141
 3053W        W19527   3.903  15.260   3.069 -0.0376  0.1382  0.0105
 3054W        W19528   1.005   9.589   1.018  0.1832  0.3493  0.1350
 3055W        W19529  18.885  18.022  14.126 -0.0169 -0.1890 -0.4093
 3056W        W19530  17.421  12.231   0.347  0.3736  0.0045  0.0907
 3057W        W19531   2.020  14.648   2.090  0.0160  0.1897  0.1921
 3058W        W19532   4.509   4.920  12.167 -0.3074 -0.3385 -0.5310
 3059W        W19533   8.852  12.648  12.967  0.2408 -0.4492 -0.2279
 3060W        W19534   9.380  11.764   2.485  0.4693  0.1832 -0.2675
 3061W        W19535  18.623  19.218   4.899 -0.3207  0.0640  0.0801
 3062W        W19536   3.715   8.104  11.876 -0.5809 -0.1689  0.0697
 3063W        W19537  15.786  12.002   1.641  0.3043 -0.1833  0.1465
 3064W        W19538  12.939   6.469  12.694  0.1167  0.3779 -0.0784
 3065W        W19539   8.071   9.775   3.074 -0.1871 -0.2517  0.1549
 3066W        W19540  10.539   5.331  14.043  0.3934 -0.1843  0.0600
 3067W        W19541   9.052  10.972  10.248  0.0864  0.1459  0.0095
 3068W        W19542  11.941  15.195  12.773  0.2019 -0.0279  0.1005
 3069W        W19543   1.701  12.829   0.886 -0.1204  0.1565  0.2657
 3070W        W19544  14.030  13.000  12.905  0.1927 -0.1278  0.3371
 3071W        W19545  13.476   4.053  13.623  0.2827 -0.2295 -0.0737
 3072W        W19546   3.047   0.161   0.029 -0.3305 -0.2324 -0.1350
 3073W        W19547   9.094   1.285   3.583 -0.2321 -0.1054 -0.2419
 3074W        W19548   0.101  18.966   3.982  0.0674  0.1765 -0.2712
 3075W        W19549  19.492  11.685  10.080 -0.1376 -0.0417  0.3045
 3076W        W19550   9.112  10.155  14.028 -0.0251  0.1939  0.0517
 3077W        W19551  10.961  14.856   2.091 -0.0458 -0.0856  0.0652
 3078W        W19552  10.321  19.118   3.985  0.0038  0.1054  0.0259
 3079W        W19553   3.849   4.318  11.732  0.0390  0.0214 -0.0949
 3080W        W19554   3.369  12.320  13.287  0.1576 -0.1295 -0.1960
 3081W        W19555   4.709  11.165  14.509 -0.0857 -0.4474  0.2946
 3082W        W19556   6.793  19.072  14.649 -0.2274  0.2051  0.1825
 3083W        W19557   3.569  14.099  11.507 -0.1584  0.1596 -0.1532
 3084W        W19558   9.268   7.809  13.872  0.1228  0.0648  0.2996
 3085W        W19559  10.947  15.386   3.327  0.2639  0.0646  0.1435
 3086W        W19560  18.567   0.441  14.043  0.1772 -0.1292  0.1896
 3087W        W19561  14.744  11.662   5.416  0.0120  0.1040 -0.1866
 3088W        W19562   5.897   6.222   2.705 -0.1420  0.1325 -0.1434
 3089W        W19563   7.575  10.506  11.471 -0.1121  0.0643 -0.0045
 3090W        W19564  12.885   5.057   4.510 -0.0442  0.0136  0.4682
 3091W        W19565  16.401   9.390  12.062 -0.1918 -0.1024  0.2556
 3092W        W19566  11.769   3.564   9.931 -0.0147 -0.0483 -0.3310
 3093W        W19567  17.292  14.599  10.218  0.3079  0.0533  0.1874
 3094W        W19568  17.241   7.842   0.045  0.0311 -0.2526 -0.1276
 3095W        W19569   9.996   7.514   3.609  0.0582 -0.0278  0.3719
 3096W        W19570   3.568  16.579   1.609  0.0209 -0.0230  0.0343
 3097W        W19571   9.947   6.858  11.857  0.1922 -0.2985 -0.0730
 3098W        W19572  11.701  15.087   2.230  0.2044 -0.0920 -0.0069
 3099W        W19573   8.372  12.666   0.236 -0.0150 -0.1290  0.3904
 3100W        W19574   0.706   2.830  13.204 -0.2090  0.0635 -0.0891
 3101W        W19575   6.974   4.166   2.711 -0.3615  0.2095 -0.1657
 3102W        W19576   6.491   7.433  11.249 -0.1215 -0.1106 -0.5460
 3103W        W19577  18.189  11.990   2.071  0.2648 -0.1112  0.0086
 3104W        W19578  17.009  16.636  11.860 -0.0328  0.2141 -0.0645
 3105W        W19579  16.242  12.717  11.698 -0.2898  0.0006 -0.1606
 3106W        W19580   9.015   3.690   1.664 -0.2030 -0.0283  0.0565
 3107W        W19581   6.727  17.830   2.068 -0.1226 -0.0338 -0.1012
 3108W        W19582  13.965  11.161  13.787  0.0510  0.0729  0.1660
 3109W        W19583   7.813  10.659  13.453  0.0354 -0.0890 -0.0493
 3110W        W19584   9.246  16.012   1.759  0.2230  0.0878 -0.0041
 3111W        W19585   4.677  19.387  10.728  0.0643 -0.1445  0.1615
 3112W        W19586   4.766   5.687   9.533  0.0655 -0.2537 -0.3700
 3113W        W19587  10.675   8.796  10.271  0.2621  0.1753 -0.3206
 3114W        W19588   4.768  12.348  13.356  0.3218 -0.1048 -0.1462
 3115W        W19589   1.878   7.475  12.632  0.1225 -0.1453 -0.5773
 3116W        W19590  11.074  18.756   2.935 -0.1296 -0.2697  0.3084
 3117W        W19591   6.311   7.047   2.833 -0.1393  0.1695  0.2401
 3118W        W19592   9.271  14.274   0.811 -0.0049 -0.2067  0.2537
 3119W        W19593   6.717  14.593   4.503  0.0366  0.0911  0.1226
 3120W        W19594   0.801  14.240   1.153  0.0789  0.0110  0.0746
 3121W        W19595  15.287  11.654  14.453  0.1259 -0.0745  0.1373
 3122W        W19596   1.820  13.569   4.650  0.5728  0.1768 -0.1709
 3123W        W19597  15.961   7.046   5.025  0.2632 -0.1239  0.1159
 3124W        W19598  10.266   2.013   0.647  0.2889 -0.2967  0.1291
 3125W        W19599   4.174  12.910   9.073 -0.0553  0.0144 -0.1223
 3126W        W19600  13.753  13.975   2.951 -0.3026 -0.0830 -0.1415
 3127W        W19601  16.671   3.538  14.182 -0.4235 -0.0888  0.0138
 3128W        W19602   0.999  10.111  11.739  0.0147  0.3515  0.0880
 3129W        W19603  19.020   2.310   5.214  0.0429  0.2866  0.2302
 3130W        W19604  16.426  11.693  13.294 -0.1291  0.0882 -0.3972
 3131W        W19605  11.541  17.645  10.435 -0.2092 -0.0733 -0.0986
 3132W        W19606   4.880  11.744  13.359  0.0556  0.0138  0.0757
 3133W        W19607   4.864   4.792   3.573 -0.0458  0.1678  0.3985
 3134W        W19608   6.708   1.449   1.678 -0.0570 -0.0898 -0.1586
 3135W        W19609   6.883   0.010  14.478  0.2071  0.2557  0.1049
 3136W        W19610  11.750   1.593  12.585 -0.0327  0.1635 -0.1825
 3137W        W19611  11.839   8.000   3.163 -0.3028  0.1174  0.3961
 3138W        W19612   1.567  18.758   9.940  0.1742  0.0443  0.2116
 3139W        W19613  13.273   6.518  14.342  0.1817  0.1896  0.0886
 3140W        W19614   3.387  12.291  12.434  0.0260  0.1125  0.1282
 3141W        W19615   1.426  10.519  12.589  0.1316 -0.0499 -0.0325
 3142W        W19616  12.330  18.495  11.278 -0.0781 -0.2624  0.1530
 3143W        W19617   9.458   7.934   1.860 -0.1073  0.0289  0.0120
 3144W        W19618   5.256   7.373   2.412  0.2627 -0.1258  0.2909
 3145W        W19619  17.948   7.485  12.909 -0.1083  0.4205 -0.1669
 3146W        W19620  19.313   4.884   4.335 -0.1237 -0.2768  0.0086
 3147W        W19621   8.542  10.367  11.275 -0.0790  0.0230  0.1483
 3148W        W19622  13.856   9.287   9.143  0.1473 -0.0288 -0.0796
 3149W        W19623   0.511   5.788   3.688  0.2237 -0.1216 -0.3634
 3150W        W19624  19.487   5.844   0.968  0.0107 -0.3801 -0.0339
 3151W        W19625   0.924  16.625  12.394  0.2565 -0.1324  0.4029
 3152W        W19626  18.351  10.329   4.121  0.0290  0.2440  0.0107
 3153W        W19627   5.902   3.006   1.243 -0.1243 -0.1421  0.0854
 3154W        W19628  18.300   6.652   4.222  0.6205 -0.0366 -0.1022
 3155W        W19629   1.539  17.451  10.444 -0.1704 -0.0179  0.1868
 3156W        W19630  13.057  15.026  12.568  0.1084 -0.2911  0.0924
 3157W        W19631   9.866  12.040   0.466 -0.0291 -0.6204 -0.3819
 3158W        W19632  15.920   7.760  12.130  0.1809 -0.0443  0.2615
 3159W        W19633   7.068   9.076   4.066  0.1546 -0.1261 -0.4198
 3160W        W19634   6.486   2.287   2.294 -0.0126  0.1038 -0.0178
 3161W        W19635   3.459   1.018  11.934 -0.0733  0.0194  0.1195
 3162W        W19636  10.308  17.205   0.568  0.0328  0.1461 -0.1500
 3163W        W19637   8.209  14.233  11.526  0.0072 -0.0225 -0.0530
 3164W        W19638   1.153  14.688   2.204 -0.1662 -0.3092 -0.3110
 3165W        W19639  19.382   3.687  13.684 -0.3191 -0.0984 -0.1116
 3166W        W19640  10.052  11.154   0.197 -0.1834 -0.1917 -0.0277
 3167W        W19641   6.288  11.570   1.960 -0.1180  0.0274 -0.1680
 3168W        W19642   4.333   9.825  10.372 -0.1144 -0.0679  0.0701
 3169W        W19643   8.477   2.772   1.669  0.1445 -0.0726  0.2279
 3170W        W19644  15.046   6.226  11.156 -0.0110  0.1269  0.0578
 3171W        W19645  16.990   1.949   1.454 -0.4787  0.0002 -0.2218
 3172W        W19646  18.106  16.153   4.164  0.0797  0.2858  0.2489
 3173W        W19647   0.433   5.160   4.258 -0.2208  0.2779 -0.1517
 3174W        W19648   8.194  15.950  12.344  0.1844  0.1491 -0.1361
 3175W        W19649  16.309  13.367  10.721 -0.1462 -0.0178  0.1437
 3176W        W19650  12.865  17.706  13.653 -0.0596 -0.1760  0.0771
 3177W        W19651   8.180  18.031   0.226  0.2165 -0.1451  0.0275
 3178W        W19652   0.726   4.425  14.338 -0.1650  0.0454  0.2870
 3179W        W19653   4.753   0.500   2.357  0.0718 -0.1977 -0.0799
 3180W        W19654   5.596   7.061   4.006  0.0186 -0.0212  0.1809
 3181W        W19655   8.671  13.655  12.650 -0.2157 -0.1102 -0.0869
 3182W        W19656  17.727   0.537   1.840  0.0624  0.0739 -0.2623
 3183W        W19657  16.797  15.348   1.634  0.1360 -0.0888  0.0308
 3184W        W19658   6.938   7.242  11.122 -0.1027 -0.0051 -0.3117
 3185W        W19659  12.585  19.595  12.125 -0.0380  0.0392  0.0184
 3186W        W19660  13.702  17.667   9.467  0.2222  0.0308 -0.1935
 3187W        W19661   0.988   8.130   4.864 -0.1401  0.0418  0.1785
 3188W        W19662   4.747   9.296  10.962  0.4557 -0.3254 -0.4513
 3189W        W19663   0.925   8.913  14.506  0.1144 -0.1844  0.2296
 3190W        W19664   9.228  15.032  14.249 -0.3414  0.1856 -0.0339
 3191W        W19665   2.654  15.429  10.707 -0.3299 -0.1406  0.0350
 3192W        W19666  17.591  17.911   4.364  0.1486 -0.0145  0.2364
 3193W        W19667  15.640   4.934  10.300  0.3568 -0.1791 -0.2466
 3194W        W19668  11.141  18.256   5.112  0.0195 -0.2761 -0.1701
 3195W        W19669  15.952   5.478   3.147 -0.0802  0.0765 -0.0683
 3196W        W19670   4.406   2.724  13.991 -0.1473  0.4222 -0.4407
 3197W        W19671   4.037   2.895  10.632  0.0323 -0.1049  0.0302
 3198W        W19672   8.827  13.534  11.699  0.2843  0.2062  0.3160
 3199W        W19673  16.190  11.169  12.639  0.2232 -0.0810 -0.1359
 3200W        W19674   5.188  10.810   2.546 -0.1056  0.0296 -0.0586
 3201W        W19675   2.600   3.079   3.181 -0.1020 -0.3312  0.1252
 3202W        W19676  10.930   5.682  12.261  0.0977 -0.0575  0.3852
 3203W        W19677  17.512  10.988   1.735 -0.1035 -0.2532  0.0233
 3204W        W19678  11.171  19.240  11.324 -0.1301  0.2435 -0.2564
 3205W        W19679  17.980   8.003   1.037 -0.0787 -0.4408  0.0810
 3206W        W19680   4.636   7.587   2.312 -0.1779 -0.4279  0.3194
 3207W        W19681   1.644  18.320   4.835  0.0742 -0.1559  0.0489
 3208W        W19682   0.452  16.477  10.167 -0.0613  0.0066  0.1564
 3209W        W19683  15.826   1.563   1.289  0.2642  0.1868 -0.0151
 3210W        W19684   6.277   7.779   2.223 -0.0276 -0.1546 -0.0748
 3211W        W19685   5.137   6.159  12.371 -0.0746 -0.1666 -0.2841
 3212W        W19686  13.726  13.463   0.603  0.1849 -0.0195  0.2254
 3213W        W19687   7.129  12.646  13.981  0.1711  0.2180 -0.0304
 3214W        W19688   0.246  13.777  12.106 -0.1312 -0.0897 -0.1451
 3215W        W19689  17.387  17.722   5.285 -0.2072 -0.0278 -0.0139
 3216W        W19690  14.774  15.691   0.126 -0.1341  0.3628  0.0815
 3217W        W19691   2.300   5.740   1.838  0.0428  0.0645 -0.3870
 3218W        W19692  15.298  10.170  12.769  0.0266  0.2139  0.0847
 3219W        W19693   5.375   4.629  11.687  0.1018 -0.2714 -0.0067
 3220W        W19694   9.561  13.085  14.189 -0.1834  0.2405 -0.0820
 3221W        W19695   1.107  18.089   3.215 -0.0234  0.1414 -0.2341
 3222W        W19696   9.009   0.612   0.840 -0.1205 -0.0346  0.0360
 3223W        W19697  14.392  18.465   0.888  0.3107 -0.2314 -0.2217
 3224W        W19698   9.516  13.174  13.654  0.5355 -0.1774 -0.1153
 3225W        W19699  18.676   5.889   2.691 -0.0253 -0.3250  0.2668
 3226W        W19700  16.703  15.327   0.407  0.0173  0.1340 -0.0712
 3227W        W19701  14.502  13.134   0.955  0.1690  0.1146  0.1835
 3228W        W19702  16.915  17.310   1.632  0.1333 -0.1594  0.0468
 3229W        W19703  18.124   7.141   4.301  0.0487  0.2043 -0.1794
 3230W        W19704   1.358  19.374  12.895 -0.1312  0.2009 -0.1499
 3231W        W19705  16.675  17.734   0.213  0.0061 -0.1899  0.0806
 3232W        W19706  15.959   4.964  13.170  0.1476  0.0083 -0.2425
 3233W        W19707  12.739  18.385   1.226 -0.2801 -0.0183  0.0832
 3234W        W19708  15.596  13.491  10.520 -0.0090 -0.0373  0.5190
 3235W        W19709  18.096  15.936  13.016 -0.1011 -0.2368 -0.0124
 3236W        W19710   2.737  16.339   2.711  0.2236  0.2876  0.0813
 3237W        W19711  13.087  11.837   4.757  0.0106  0.1638  0.0051
 3238W        W19712   4.679   7.130   3.619 -0.0835  0.0480  0.0388
 3239W        W19713  10.982  16.636   3.135 -0.0902  0.1843  0.1475
 3240W        W19714   5.957  11.383  11.897  0.0456 -0.2008 -0.2229
 3241W        W19715   8.832  17.533   0.728  0.3900  0.0514  0.0709
 3242W        W19716   8.866  14.895  10.709 -0.1367 -0.0161  0.0659
 3243W        W19717   9.532   3.408  12.394  0.0969 -0.1749  0.2038
 3244W        W19718  11.481  15.613   1.202 -0.1458 -0.1264 -0.2093
 3245W        W19719   8.028  15.832   3.076 -0.0459  0.0309 -0.3407
 3246W        W19720   1.663  15.073  10.935  0.0133  0.0570  0.0813
 3247W        W19721   0.050  10.008   4.093 -0.0539  0.1696  0.1632
 3248W        W19722   1.693   8.972   1.027  0.1137 -0.1995 -0.3032
 3249W        W19723   3.565  14.425   3.207 -0.2873 -0.0026  0.0592
 3250W        W19724   7.427  12.539   3.415 -0.0771  0.4720  0.0935
 3251W        W19725   7.139  18.688  13.485  0.0346  0.1005  0.0750
 3252W        W19726   0.012  14.881   0.615  0.0419 -0.0348  0.1545
 3253W        W19727   3.972  18.828  12.177  0.0098  0.0300  0.1152
 3254W        W19728   7.113   7.504   1.159 -0.2522 -0.0875  0.4456
 3255W        W19729  11.982   8.751   4.791 -0.0335  0.0727 -0.1858
 3256W        W19730   0.739   4.976  11.019 -0.0165  0.0716 -0.1233
 3257W        W19731  16.602   0.015   5.356  0.0057  0.1061 -0.1550
 3258W        W19732  11.479   4.817   2.217 -0.2815 -0.0977 -0.0847
 3259W        W19733   5.294   2.484  13.199  0.3469  0.0636  0.1685
 3260W        W19734   1.856   5.053  12.522 -0.4093 -0.0433  0.1692
 3261W        W19735   4.775   0.750   9.891 -0.1725 -0.0306  0.0263
 3262W        W19736   1.932  19.612   2.666 -0.0391 -0.1666  0.4462
 3263W        W19737   8.127  10.985   2.605 -0.2532 -0.1771 -0.1098
 3264W        W19738  15.650  18.863  12.848  0.2346  0.2909  0.1382
 3265W        W19739   6.649  18.615   3.442 -0.1311 -0.1680  0.4200
 3266W        W19740   9.150   1.495   2.577 -0.2169 -0.4758  0.4000
 3267W        W19741  12.950  11.014   2.922  0.1225  0.3427  0.4268
 3268W        W19742   1.976  16.774   3.778 -0.0738 -0.3990 -0.2407
 3269W        W19743   2.438  14.480   1.270 -0.0476  0.2544  0.0785
 3270W        W19744   0.231   3.227   4.687 -0.0932  0.1013  0.0326
 3271W        W19745   9.786   3.643   3.063 -0.1042 -0.3413 -0.0669
 3272W        W19746  16.293  10.721  11.872 -0.1801  0.3450  0.4062
 3273W        W19747   4.169   9.669   3.661  0.0314  0.1990 -0.1741
 3274W        W19748  15.572   2.668  13.524  0.2514 -0.1066 -0.0956
 3275W        W19749   6.722  14.246   2.275  0.0071 -0.0783 -0.2431
 3276W        W19750  14.760   2.761   0.351 -0.1541  0.0522 -0.0118
 3277W        W19751  13.753  17.199  11.756 -0.1172  0.0477 -0.1117
 3278W        W19752  16.239  11.572   4.594 -0.2470 -0.1114 -0.0931
 3279W        W19753  14.451   5.315   1.095 -0.2228  0.0165 -0.3586
 3280W        W19754  12.894   0.333   0.541  0.1275 -0.1433 -0.2435
 3281W        W19755   2.607   6.430   1.265  0.1620  0.2169 -0.2106
 3282W        W19756   4.232   1.055  12.425 -0.1159  0.3488 -0.1104
 3283W        W19757   6.437   9.608  10.617  0.0608 -0.1855 -0.0751
 3284W        W19758   2.352  13.858  11.358 -0.1060 -0.3039  0.0024
 3285W        W19759  12.187   0.665  13.578  0.1857 -0.0530 -0.4537
 3286W        W19760  10.770  15.644   4.378 -0.0515 -0.0676  0.0098
 3287W        W19761  17.541   3.936   4.660  0.0382 -0.0799  0.1904
 3288W        W19762  15.318   9.964   4.953 -0.0980 -0.1140 -0.2094
 3289W        W19763  17.873   2.880  14.010  0.3105  0.1946  0.0097
 3290W        W19764  14.286   2.070  13.730  0.2101 -0.1057  0.4384
 3291W        W19765   8.311  14.139   5.290 -0.1507 -0.1026 -0.1160
 3292W        W19766  10.111  19.390   2.881  0.0540 -0.1625 -0.1187
 3293W        W19767  15.137  15.570  10.321 -0.1537 -0.0838  0.0926
 3294W        W19768  18.161  18.627   2.155  0.2366  0.1094  0.1138
 3295W        W19769   1.951  19.615  10.161 -0.2139 -0.2720  0.3608
 3296W        W19770  17.913   2.073  12.583  0.2559 -0.1394 -0.0101
 3297W        W19771  17.439  13.433  11.864 -0.1193  0.2476 -0.2665
 3298W        W19772  15.009   7.833   2.939  0.0982 -0.1556  0.0149
 3299W        W19773  11.090  15.574  11.385 -0.0625 -0.1140 -0.0256
 3300W        W19774  13.928   1.462  12.575 -0.1353 -0.0591 -0.0131
 3301W        W19775   4.522   1.827   2.610  0.1248 -0.0465 -0.2755
 3302W        W19776  14.379  13.822   2.258 -0.2425  0.0281 -0.1024
 3303W        W19777  18.751  10.393  11.133 -0.3417  0.1663 -0.0376
 3304W        W19778   5.171   5.963  13.338  0.2312 -0.1408 -0.0068
 3305W        W19779   9.278  16.401   1.375 -0.0585 -0.0665 -0.0042
 3306W        W19780  16.554  15.142   1.263 -0.0866  0.2711 -0.0624
 3307W        W19781   3.780   1.153  11.441  0.1146  0.0056 -0.0147
 3308W        W19782   5.341  18.398   4.157 -0.0463 -0.0875 -0.1631
 3309W        W19783   7.374   8.686   9.347  0.1694 -0.2304 -0.0524
 3310W        W19784   7.104   3.310  10.742 -0.1290 -0.0716 -0.1976
 3311W        W19785   0.349   8.563  10.189 -0.0997 -0.3512  0.3296
 3312W        W19786   7.229  13.035   2.494 -0.0483 -0.5238 -0.0415
 3313W        W19787  12.313   6.499   3.616 -0.1693  0.0668 -0.0139
 3314W        W19788  13.705   7.125   4.958  0.2103  0.1797  0.0984
 3315W        W19789  12.110   6.509   4.134  0.2227 -0.1116  0.3657
 3316W        W19790   0.788  18.539   0.802  0.0089  0.1522  0.0663
 3317W        W19791   6.407   1.725  10.058  0.1595 -0.3532 -0.0667
 3318W        W19792  14.304  15.400   2.268 -0.1755  0.0324  0.1553
 3319W        W19793   8.954   9.842   0.350  0.2722 -0.1323  0.1112
 3320W        W19794   2.156   3.452  10.278 -0.1036  0.0372  0.0639
 3321W        W19795  19.052   4.980   2.655  0.1373  0.0655  0.0975
 3322W        W19796  15.191   8.871  12.124  0.0077  0.0015  0.2881
 3323W        W19797  18.160   6.598   9.405 -0.1748 -0.0810  0.2037
 3324W        W19798  17.689   0.861  14.104  0.0829  0.1159 -0.0151
 3325W        W19799   4.359  15.014   4.205 -0.1022  0.0428 -0.1201
 3326W        W19800  13.796  15.052  11.500 -0.1796  0.2168 -0.0210
 3327W        W19801   4.516  18.166  14.143 -0.2649  0.1334  0.1678
 3328W        W19802  16.430  13.425   2.220 -0.1072 -0.3311 -0.2465
 3329W        W19803   2.906  13.038   1.719  0.2446 -0.5265  0.1738
 3330W        W19804   4.242  17.861   3.492 -0.0769  0.1554  0.2447
 3331W        W19805   4.881   8.904  13.956  0.0131  0.4137  0.2676
 3332W        W19806  11.180   7.641   1.458 -0.1398  0.0704 -0.1368
 3333W        W19807  16.866   1.327  11.108  0.0299  0.0705 -0.0161
 3334W        W19808   5.537   9.134   1.621 -0.0016 -0.1045 -0.1430
 3335W        W19809   7.489   5.930  12.233  0.0863 -0.0347  0.6361
 3336W        W19810  19.129   1.744   3.685  0.0202  0.1642 -0.3262
 3337W        W19811   8.533   2.959   1.187  0.1131  0.1434  0.0314
 3338W        W19812  15.971  19.326   3.662 -0.0286 -0.0131 -0.0626
 3339W        W19813  10.711  12.756   3.641  0.1478 -0.1446 -0.1000
 3340W        W19814   0.506  10.358  12.160  0.0063  0.0881 -0.0651
 3341W        W19815  17.062  12.032  13.872 -0.2007  0.0868  0.0007
 3342W        W19816  15.109   9.012  12.597 -0.0108 -0.3110  0.3359
 3343W        W19817   3.637  18.442   1.339 -0.1822 -0.0048  0.1769
 3344W        W19818   0.606  16.744   2.541  0.2192 -0.1636 -0.3973
 3345W        W19819  17.185   3.039   1.428  0.1990 -0.2513  0.1513
 3346W        W19820   3.167  19.429   2.271  0.0632  0.3389 -0.2680
 3347W        W19821   8.131   8.293  14.050  0.2047 -0.1740 -0.0895
 3348W        W19822   0.106   4.744   0.753  0.0155 -0.0782  0.1743
 3349W        W19823  12.052  13.707  11.698  0.2626  0.1745  0.3815
 3350W        W19824  14.473   7.790  10.963  0.0295 -0.0087  0.3138
 3351W        W19825  16.103  17.752   0.097  0.1350  0.2702  0.1268
 3352W        W19826   6.789   9.871   5.065 -0.2447 -0.0140  0.2256
 3353W        W19827   7.905   2.302   3.175  0.4741  0.1567 -0.0221
 3354W        W19828   2.805  15.875   3.924  0.2225 -0.1808 -0.5282
 3355W        W19829  13.449  11.066   4.457 -0.0516  0.1270 -0.4629
 3356W        W19830   7.764   9.691  13.748  0.1751 -0.3534 -0.0545
 3357W        W19831   7.646  18.368   4.500 -0.0190 -0.0055 -0.0999
 3358W        W19832   0.339  14.495   3.451  0.0688  0.0545  0.2685
 3359W        W19833  19.558   7.636   4.357  0.0387 -0.1811  0.2652
 3360W        W19834   3.124  18.845   1.623 -0.0352  0.2172 -0.0054
 3361W        W19835  18.633  10.699   3.912  0.1093  0.3203 -0.1990
 3362W        W19836   9.016   2.953   3.570  0.1009  0.0046 -0.3130
 3363W        W19837   7.176  10.645  13.675 -0.2484 -0.1040  0.0010
 3364W        W19838   0.690   5.492   2.763  0.2585  0.1607 -0.1051
 3365W        W19839   9.614   6.513   2.598 -0.0947 -0.8214  0.0475
 3366W        W19840   4.357   5.527   1.763  0.0803  0.0196  0.2814
 3367W        W19841  16.720  13.865   3.214  0.1109 -0.1258  0.1652
 3368W        W19842   0.413   5.631  13.234 -0.0948  0.0313 -0.0415
 3369W        W19843  13.486   8.086  14.231  0.0383 -0.2402 -0.3842
 3370W        W19844  10.571   9.931   2.730 -0.0361  0.0775 -0.1903
 3371W        W19845  10.206   4.963  11.941 -0.1296 -0.0383  0.2828
 3372W        W19846  19.578  16.756   0.416  0.0322 -0.0123 -0.0931
 3373W        W19847  10.545   8.257  11.538  0.1259 -0.2676  0.3217
 3374W        W19848  13.871   7.776   4.423 -0.2123 -0.2078 -0.1462
 3375W        W19849  12.250  17.422  11.070  0.0352 -0.0980  0.3333
 3376W        W19850  13.890  15.668   3.489 -0.1373  0.2149 -0.1337
 3377W        W19851   1.614   5.472  12.862  0.1074  0.3459  0.1805
 3378W        W19852  17.904  18.679   1.757  0.3631 -0.3406  0.3747
 3379W        W19853  18.521  14.331  10.553  0.0664  0.2459  0.1011
 3380W        W19854   5.175   1.031   4.123  0.3761  0.0093  0.3455
 3381W        W19855   1.415  15.627  14.644 -0.1996 -0.1524  0.2315
 3382W        W19856  11.582  16.242  11.483 -0.2341  0.1449 -0.3294
 3383W        W19857  14.387  14.392  12.198  0.0651  0.3774  0.0825
 3384W        W19858  12.612   9.924   3.474  0.1319 -0.0557 -0.3246
 3385W        W19859   0.197  14.480   4.717  0.0212  0.0444 -0.0439
 3386W        W19860   1.372   3.657   2.623  0.1052  0.2800  0.1300
 3387W        W19861   9.658   5.364   1.274  0.1573 -0.1770 -0.2575
 3388W        W19862   4.724   7.040  12.181 -0.0528 -0.2107  0.4480
 3389W        W19863  16.991  16.068  10.871  0.2569 -0.0280 -0.2935
 3390W        W19864  11.940   4.585  13.307  0.1933  0.0879  0.2912
 3391W        W19865   1.603  10.894  14.252 -0.0388  0.5889 -0.0180
 3392W        W19866  15.691  11.881   1.160 -0.1815 -0.0107 -0.1064
 3393W        W19867  16.235   0.797   1.288 -0.2100 -0.2647 -0.1436
 3394W        W19868   8.116  18.927  13.206  0.0442  0.1565 -0.0424
 3395W        W19869  14.050   7.697   9.143 -0.0860 -0.1514  0.0066
 3396W        W19870  11.003   2.819   4.536  0.1062 -0.0018  0.3057
 3397W        W19871   7.312  15.366   4.427 -0.1444  0.1872 -0.0769
 3398W        W19872  12.849  18.172  10.557 -0.1162 -0.0525 -0.0268
 3399W        W19873   3.606   6.201   0.733 -0.0319  0.2911 -0.1241
 3400W        W19874   5.242   1.035   0.694 -0.0642 -0.0240  0.0304
 3401W        W19875   5.873   3.484   3.096  0.1804  0.1219  0.1689
 3402W        W19876  11.269  13.342   4.112  0.1777 -0.0067  0.1754
 3403W        W19877  15.670   6.878   9.627  0.3832 -0.1609 -0.1060
 3404W        W19878   3.106  17.348   3.997 -0.0001  0.0254  0.2169
 3405W        W19879  12.146   8.512  12.079  0.3974  0.1715 -0.3509
 3406W        W19880   2.377  10.550   2.988 -0.1452 -0.1341  0.0239
 3407W        W19881   8.221  19.460   0.423  0.1250  0.1842  0.1353
 3408W        W19882  18.257   4.397  10.558 -0.0177  0.1733  0.2676
 3409W        W19883  10.595   7.334   4.961 -0.2118  0.0808  0.2236
 3410W        W19884  16.391  18.371   2.727 -0.1472  0.0841 -0.4329
 3411W        W19885  15.187   1.082   3.992  0.1918  0.0973  0.1680
 3412W        W19886   6.309   2.043  11.529 -0.0381  0.1104  0.2198
 3413W        W19887  12.059  16.618  13.726 -0.2048 -0.0594 -0.0109
 3414W        W19888  14.349   0.981   0.242  0.1875 -0.2073  0.2094
 3415W        W19889  18.179   5.768  10.348 -0.1578 -0.1221  0.1925
 3416W        W19890  11.343  18.438   2.640  0.0290 -0.0782  0.1915
 3417W        W19891   6.415   0.966  12.309  0.1576  0.0016 -0.1035
 3418W        W19892   6.544  11.270   0.806 -0.1000 -0.0430 -0.2077
 3419W        W19893   5.012   9.151   5.228  0.0325  0.0122 -0.2118
 3420W        W19894   7.049  10.324   4.454 -0.0291 -0.1166 -0.3324
 3421W        W19895   6.786   6.191   2.645 -0.1349 -0.0641  0.1197
 3422W        W19896   3.446   3.597   0.953  0.0719 -0.5234 -0.2679
 3423W        W19897  10.345   2.765   1.885  0.1097 -0.4128 -0.2233
 3424W        W19898  16.362  16.948   2.838 -0.0464  0.0395 -0.4012
 3425W        W19899  18.465   1.955   2.918 -0.2071  0.2072 -0.1348
 3426W        W19900   8.324  18.019  10.779  0.1025 -0.1495 -0.0938
 3427W        W19901  16.412   8.858   3.152 -0.1681 -0.4606  0.0326
 3428W        W19902  14.633   4.728  13.389 -0.0672  0.4720  0.1355
 3429W        W19903   2.465  16.170   5.556 -0.0611 -0.2591 -0.2184
 3430W        W19904   9.281  18.784  11.588 -0.3650 -0.1727  0.2311
 3431W        W19905  13.745   9.603   4.100  0.0507  0.0205 -0.0731
 3432W        W19906  11.288   3.999   4.718 -0.0001 -0.1137  0.3275
 3433W        W19907   1.965   2.736   3.441 -0.1446 -0.1952  0.0890
 3434W        W19908  13.881   7.981   0.911 -0.1337  0.1060  0.0601
 3435W        W19909   5.999  12.088  12.425  0.3262 -0.0371  0.1379
 3436W        W19910   0.559   0.195   4.768  0.1247  0.1187 -0.2029
 3437W        W19911  15.274   1.141  14.448 -0.0152 -0.2208 -0.3169
 3438W        W19912   0.848   2.756   2.594 -0.0275 -0.1326 -0.0455
 3439W        W19913  10.337  12.947   4.133 -0.0318  0.0176  0.0671
 3440W        W19914   2.753  12.585   0.255  0.0694  0.2226  0.0650
 3441W        W19915  18.786  16.203  14.148 -0.3525 -0.1811  0.1001
 3442W        W19916  12.477   7.967   1.245 -0.4399 -0.1662  0.0299
 3443W        W19917  19.406  18.610   4.363 -0.0403  0.4103  0.0737
 3444W        W19918   7.913   2.173  13.186  0.0100 -0.0771  0.0982
 3445W        W19919  17.913  19.140   0.401  0.1833 -0.5683  0.2230
 3446W        W19920   0.095  10.591  11.900  0.1395 -0.0070 -0.0452
 3447W        W19921  17.506  15.812   3.518  0.0613  0.1530  0.4302
 3448W        W19922   9.071  17.221  12.163 -0.1152 -0.0469 -0.0081
 3449W        W19923  10.260   0.751  11.667  0.0561  0.1739  0.0692
 3450W        W19924  13.370  16.785  11.598  0.0552  0.1215 -0.1622
 3451W        W19925  16.423   0.377   4.553  0.0509 -0.1384  0.2360
 3452W        W19926  17.935   7.413  14.270  0.2908  0.0181  0.2693
 3453W        W19927   2.120  17.208   4.146  0.3472 -0.2067  0.3488
 3454W        W19928   8.268  16.948  10.457  0.0197 -0.0338 -0.0570
 3455W        W19929  12.626   6.798   1.821  0.3471 -0.0053 -0.0861
 3456W        W19930  11.686  17.332   5.164  0.1398  0.2157 -0.1596
 3457W        W19931   0.527   5.002   1.993 -0.2584  0.1497  0.0826
 3458W        W19932   3.176  18.335  13.622  0.0113  0.0822 -0.0048
 3459W        W19933   5.786  11.237   2.125 -0.0929  0.0487 -0.2691
 3460W        W19934   6.025  13.925  13.217  0.2582  0.3611 -0.3890
 3461W        W19935   5.413  11.803   2.579 -0.5273 -0.0843  0.0071
 3462W        W19936  11.994   1.046  10.585 -0.0580 -0.2807  0.1842
 3463W        W19937   8.310  11.193  10.755 -0.0215  0.0252 -0.0188
 3464W        W19938  10.740   0.105   1.578  0.0482  0.2974 -0.2969
 3465W        W19939   1.424  18.917  10.844  0.1096  0.1099 -0.2370
 3466W        W19940  19.206   9.526  12.871  0.1076 -0.1336  0.0569
 3467W        W19941  18.244  15.041   3.061  0.2224 -0.1249  0.0202
 3468W        W19942   0.343   3.418   0.788 -0.1311  0.1408 -0.1445
 3469W        W19943   2.540   9.428   2.456  0.1893 -0.0236  0.1051
 3470W        W19944  10.428   3.709   9.765  0.2000 -0.3915 -0.3619
 3471W        W19945  16.484   7.709   4.731 -0.2400  0.2991 -0.0023
 3472W        W19946  12.916   6.409  11.590  0.2600  0.1652  0.1267
 3473W        W19947   7.303   5.618  11.848 -0.1549  0.3490  0.2102
 3474W        W19948  12.569   6.234   1.834  0.2113 -0.0857  0.4102
 3475W        W19949  16.734   9.628   3.284  0.0050 -0.5417  0.0449
 3476W        W19950   2.449  16.973  13.015 -0.1943  0.3631  0.0004
 3477W        W19951   6.802  10.829  14.036 -0.1294  0.2185  0.0944
 3478W        W19952   0.660  17.021  10.832 -0.1786 -0.3724  0.0678
 3479W        W19953   4.325  14.520  12.513 -0.1952 -0.1679  0.0694
 3480W        W19954  12.245   8.364  12.562  0.0951 -0.1173 -0.0977
 3481W        W19955   6.940   2.887   0.453  0.4315 -0.1282  0.1008
 3482W        W19956  10.049  19.353   4.364  0.3043 -0.2115  0.1622
 3483W        W19957  16.123  16.402  13.818  0.1899  0.2260 -0.0019
 3484W        W19958  10.646   2.198   3.428 -0.0019 -0.0471  0.2505
 3485W        W19959   8.318  12.047  13.323 -0.2368 -0.1739  0.0379
 3486W        W19960   5.093  12.519   1.801 -0.3964 -0.2189  0.0430
 3487W        W19961  13.821  16.586   4.153  0.1370  0.1708  0.1296
 3488W        W19962   0.297  12.850  10.502 -0.0801 -0.1253  0.0160
 3489W        W19963  14.174   8.509  10.065  0.1839  0.0479  0.0652
 3490W        W19964  10.606   9.876   4.974 -0.2688 -0.3154 -0.0533
 3491W        W19965   8.596  17.265  13.495  0.0321  0.0965 -0.0389
 3492W        W19966  17.358   0.842  10.251 -0.5044  0.0457 -0.0529
 3493W        W19967   0.881  10.596  13.903 -0.2664 -0.1417  0.0863
 3494W        W19968   1.095   1.197   2.983  0.1513 -0.0660 -0.0818
 3495W        W19969  16.255   9.468  13.098 -0.0190 -0.0663 -0.0348
 3496W        W19970  17.398   4.723  12.308 -0.0766  0.0082 -0.0165
 3497W        W19971   6.649   9.811  11.075  0.4610 -0.2140 -0.0814
 3498W        W19972   1.816   9.569  13.523  0.1539  0.1429 -0.1888
 3499W        W19973   8.628  17.511  10.142 -0.1705 -0.1700  0.2678
 3500W        W19974  17.004  10.425   0.034 -0.5385  0.0575 -0.0280
 3501W        W19975   4.723  17.113  13.185  0.0665 -0.1908 -0.1611
 3502W        W19976   5.020   6.129   3.932 -0.2108  0.2999 -0.0081
 3503W        W19977   9.957  15.323  13.076 -0.0292  0.2271 -0.1427
 3504W        W19978   3.594  16.213   3.014  0.1954 -0.0159 -0.3333
 3505W        W19979  16.200  13.784   1.917 -0.2015  0.4741  0.2617
 3506W        W19980   7.561  18.610  11.222  0.1790  0.0801  0.0814
 3507W        W19981  13.906   4.470   0.450 -0.0500  0.0087 -0.0913
 3508W        W19982   8.007   0.791   1.812 -0.0246 -0.0142  0.3189
 3509W        W19983  14.603   9.278  11.875  0.1979 -0.2385 -0.3569
 3510W        W19984  17.249   0.516   1.838  0.1094  0.2154  0.2286
 3511W        W19985   0.392  14.176  12.659 -0.1390  0.3245  0.1388
 3512W        W19986   7.158  17.489   2.027 -0.0975  0.1923 -0.1225
 3513W        W19987  18.299   5.055   2.889 -0.0796  0.3281 -0.2092
 3514W        W19988   8.866  15.214   2.587  0.0783  0.0691  0.1545
 3515W        W19989  17.190  18.567   2.152  0.2988 -0.1381  0.3727
 3516W        W19990   1.532   4.786  12.850  0.0958 -0.0017  0.0188
 3517W        W19991   3.104   0.789  13.008 -0.1290 -0.4133  0.2055
 3518W        W19992  17.855  12.964  10.746 -0.0427 -0.0787 -0.1834
 3519W        W19993   8.162  11.689   1.789  0.2978 -0.3830 -0.0567
 3520W        W19994  15.499  19.459  13.846 -0.0018 -0.1591  0.0432
 3521W        W19995  15.756   3.836   1.073 -0.3439 -0.1999  0.3054
 3522W        W19996   6.139   1.346  14.173  0.4511 -0.1361  0.3058
 3523W        W19997   8.332  17.303   4.423  0.1339  0.0837  0.1813
 3524W        W19998  15.988  14.570   4.415  0.0573 -0.2126  0.1855
 3525W        W19999  15.891  19.320   2.086 -0.0454 -0.2617  0.1611
 3526W        W20000   1.344   9.282  11.863  0.1264  0.0681  0.0729
 3527W        W20001   0.520   2.995   1.391  0.1341  0.0896  0.3051
 3528W        W20002  10.799   6.177   2.344 -0.0861  0.0019 -0.0379
 3529W        W20003  13.733  14.278   2.548 -0.0754 -0.0134  0.0990
 3530W        W20004  18.970   3.239   3.449  0.2306  0.0005  0.2136
 3531W        W20005   1.629  15.731  12.777 -0.0747  0.0837  0.1508
 3532W        W20006  14.936  18.282  12.677 -0.1031  0.2712  0.0076
 3533W        W20007   0.358   8.254  12.938  0.1155 -0.0212  0.2876
 3534W        W20008   2.963   1.482   3.159  0.0286  0.3358 -0.2464
 3535W        W20009   0.940   3.779  10.326  0.3693 -0.3712 -0.1363
 3536W        W20010   8.789   9.318  12.511 -0.0148 -0.0477  0.0219
 3537W        W20011   9.987   5.159  13.277 -0.2696  0.2484  0.0043
 3538W        W20012  11.254   5.612  12.617 -0.1027 -0.0175 -0.1712
 3539W        W20013   7.480  17.269   1.573  0.1428  0.0848  0.1600
 3540W        W20014   6.741  15.508  10.409 -0.0181  0.4917 -0.3455
 3541W        W20015   6.009   4.821  13.201  0.2064  0.5367 -0.2157
 3542W        W20016  14.532   6.212  10.297  0.1406  0.0728  0.1371
 3543W        W20017  10.340   5.442   1.839  0.0630  0.1270 -0.0002
 3544W        W20018   9.876   7.360   4.128  0.1786  0.0005  0.1991
 3545W        W20019  17.053  11.193   2.579  0.2022 -0.0235  0.0769
 3546W        W20020   4.439  10.924   1.977 -0.4128  0.0110 -0.0792
 3547W        W20021  14.513  13.694   1.167 -0.1773 -0.3275  0.0106
 3548W        W20022   8.228  10.796  14.355 -0.4435  0.2176 -0.1808
 3549W        W20023   7.864   8.796  11.735 -0.3543  0.1062  0.2843
 3550W        W20024  19.114   1.761   2.223  0.2224 -0.2206  0.3214
 3551W        W20025   9.799   2.033   0.760 -0.1566  0.0599 -0.0012
 3552W        W20026  14.732  12.349   1.562  0.0546  0.2685  0.1647
 3553W        W20027  14.625   2.835   4.770 -0.0823 -0.1415  0.2545
 3554W        W20028  18.292  11.857  11.714 -0.5443 -0.1210 -0.3680
 3555W        W20029  15.145   6.664   5.414  0.0701 -0.1670 -0.3950
 3556W        W20030  11.122  16.351  12.933  0.1178  0.0515  0.2670
 3557W        W20031  11.516   0.406  11.599  0.0822 -0.3260  0.0816
 3558W        W20032  10.077   3.224  10.469  0.0412 -0.2437  0.3973
 3559W        W20033  16.925   7.233  10.401  0.0948 -0.1059  0.4766
 3560W        W20034  14.404  13.554   3.302 -0.1875  0.1765 -0.1286
 3561W        W20035   4.836   1.933   3.080  0.1596  0.1991 -0.1777
 3562W        W20036   3.091   7.891   0.320 -0.2239  0.2448  0.2441
 3563W        W20037   5.553   2.052   3.603 -0.1907  0.0442  0.0574
 3564W        W20038  19.255  17.402   3.276  0.3464 -0.4521 -0.2803
 3565W        W20039  17.413   0.055   1.846 -0.1408 -0.0225  0.1686
 3566W        W20040   7.304  10.156  10.541  0.1020  0.0500  0.1363
 3567W        W20041  16.753  13.144  11.033 -0.2359 -0.2291  0.0900
 3568W        W20042  14.901   9.440   9.661 -0.1914 -0.1796  0.2916
 3569W        W20043   3.171   6.184  13.002 -0.0496 -0.3334  0.0977
 3570W        W20044   6.292   5.142   4.126  0.0606 -0.2547 -0.1588
 3571W        W20045   0.705  17.488   2.053 -0.1385 -0.0692  0.0302
 3572W        W20046   4.737  15.317  12.335 -0.0598 -0.3656  0.0165
 3573W        W20047  11.173  15.077   2.835  0.0563 -0.0405 -0.2377
 3574W        W20048  15.143   3.995  11.112  0.1527  0.0407  0.0064
 3575W        W20049  10.977  11.792   3.194  0.4075  0.1056 -0.0260
 3576W        W20050   0.157  16.674   3.358 -0.3067 -0.2398 -0.0597
 3577W        W20051   4.466  14.693   5.331 -0.2878  0.0890 -0.1014
 3578W        W20052   5.049  18.768  11.284  0.1744  0.2068 -0.2031
 3579W        W20053   7.760   9.798   2.644  0.1710  0.0271 -0.0740
 3580W        W20054  11.252  17.402   4.435  0.0812  0.1392  0.0816
 3581W        W20055  12.744  11.539  14.347  0.1714  0.4576 -0.3320
 3582W        W20056  18.328   8.015   2.116  0.2937  0.3851 -0.0189
 3583W        W20057  15.583   4.096   4.217  0.3611  0.1183 -0.1816
 3584W        W20058  18.239   5.919  13.070  0.0683 -0.1692 -0.1439
 3585W        W20059   8.792  18.068   2.100  0.3851 -0.1188 -0.0963
 3586W        W20060   9.097   8.651  14.251  0.1335 -0.2166 -0.2892
 3587W        W20061   1.965   9.686  14.491 -0.0309  0.2209 -0.0708
 3588W        W20062   3.330  18.619   4.246  0.0924  0.0481 -0.1975
 3589W        W20063   8.210   9.584  12.474 -0.1189  0.0329 -0.1176
 3590W        W20064  12.479   6.797   3.975 -0.0837 -0.0694 -0.1230
 3591W        W20065   3.429   2.106  12.349  0.1663  0.3191 -0.0531
 3592W        W20066   0.068   7.230   4.076 -0.1229 -0.0394 -0.1144
 3593W        W20067   0.243  13.900  13.578  0.2949  0.1338  0.1812
 3594W        W20068   3.184  13.365   2.202  0.0151 -0.1382 -0.1970
 3595W        W20069  19.149   9.002  14.339 -0.1792  0.2577 -0.4091
 3596W        W20070   5.507   8.732   1.869 -0.0313  0.0413 -0.2456
 3597W        W20071   2.032  11.125  12.124  0.0240  0.0351 -0.2913
 3598W        W20072   2.315   6.153   0.242  0.1521  0.0879 -0.1014
 3599W        W20073  10.536   0.577   3.980  0.1050  0.2700  0.0110
 3600W        W20074  15.602  12.407   1.087 -0.0180  0.1208  0.0610
 3601W        W20075  11.730   0.415  10.829 -0.1087  0.0777  0.2130
 3602W        W20076   2.932   0.551   1.962 -0.0486  0.4040  0.3801
 3603W        W20077  14.392  15.507  10.442 -0.0452 -0.1753 -0.1112
 3604W        W20078  13.207   9.384  13.876 -0.1066 -0.3519  0.0107
 3605W        W20079  16.243  15.237   2.748 -0.4175  0.1557 -0.2680
 3606W        W20080   3.657   8.191  10.308 -0.2681 -0.3155  0.0025
 3607W        W20081   3.641  18.969  11.568  0.1399  0.0783 -0.2021
 3608W        W20082  19.515  10.126   9.903  0.0552  0.0536  0.0645
 3609W        W20083   5.071  11.335   1.176  0.5249 -0.2695  0.4634
 3610W        W20084   9.630  15.629  11.616  0.2579 -0.0318 -0.1144
 3611W        W20085   2.292  13.483   4.346 -0.1426 -0.1221  0.2121
 3612W        W20086  19.140   6.032   0.027 -0.0490 -0.0924  0.3934
 3613W        W20087   3.007  19.470  11.386 -0.2493  0.1421 -0.0826
 3614W        W20088  14.028   8.319   1.323 -0.1878  0.0333  0.1894
 3615W        W20089  19.329  11.096  11.632 -0.0066  0.1122  0.0536
 3616W        W20090  17.450   6.072   4.801  0.2619  0.3279 -0.0772
 3617W        W20091  16.830  14.398  11.884  0.1672 -0.0844  0.0513
 3618W        W20092   7.791   4.298  12.458  0.1108  0.3811 -0.1115
 3619W        W20093  15.601   0.643  12.683  0.2424 -0.4088 -0.4597
 3620W        W20094  19.058  12.095  14.033 -0.1490  0.3169 -0.1302
 3621W        W20095   0.082  12.315  14.053 -0.1632 -0.0132  0.2465
 3622W        W20096   3.944  15.263   1.094  0.2987 -0.4051 -0.0720
 3623W        W20097   8.976   1.870  14.264 -0.0332  0.1001 -0.2962
 3624W        W20098   6.617   2.583   3.483  0.1099 -0.3641  0.0820
 3625W        W20099  10.060  13.773  14.433  0.1049  0.1145 -0.5729
 3626W        W20100  18.266   4.093   5.326  0.2161 -0.1362  0.1561
 3627W        W20101   0.029   9.002  14.066  0.2076  0.4135  0.1581
 3628W        W20102   6.775  14.226   3.838  0.2412 -0.3776 -0.0114
 3629W        W20103   1.422   3.543   3.159  0.2194  0.0196  0.1438
 3630W        W20104  17.075   1.536   3.716  0.0355 -0.1692 -0.0443
 3631W        W20105   3.328  17.207   9.799  0.1601 -0.3112  0.0367
 3632W        W20106  14.468   8.914   3.753 -0.1596  0.1498 -0.3126
 3633W        W20107   2.198   5.017   0.262  0.0808 -0.0171 -0.3442
 3634W        W20108  15.243  18.793   3.743 -0.2144 -0.0397  0.1390
 3635W        W20109  12.932   7.026   2.771 -0.2143 -0.2585 -0.1259
 3636W        W20110  10.033   8.254  11.588 -0.1840 -0.2197 -0.2410
 3637W        W20111   8.964  11.039  10.717 -0.1709 -0.4201  0.0628
 3638W        W20112  16.772  14.392   4.883  0.3184 -0.1068 -0.0778
 3639W        W20113  12.577  11.577   1.935  0.3664  0.0690  0.2091
 3640W        W20114  16.159  11.074  13.203  0.0122 -0.5602  0.0414
 3641W        W20115   3.041  12.353  13.787 -0.0848  0.0576 -0.0987
 3642W        W20116  19.265   2.860  14.513 -0.0935 -0.0743  0.0993
 3643W        W20117  11.586   8.760   0.215 -0.2271  0.0576  0.0815
 3644W        W20118   2.709   3.466   3.849  0.1328 -0.0729  0.0304
 3645W        W20119   8.763  13.849  14.286  0.1512 -0.2133 -0.1003
 3646W        W20120   8.314   5.591   0.198  0.0916  0.0756 -0.0563
 3647W        W20121   4.421  11.126   0.491  0.0482 -0.1347 -0.2920
 3648W        W20122   2.585   9.640  10.485 -0.4348  0.1497 -0.0515
 3649W        W20123  17.339  17.434   1.463 -0.1083  0.4139  0.0880
 3650W        W20124  11.531  18.667  13.191  0.0914 -0.1985  0.1629
 3651W        W20125   0.307   7.817  12.043  0.0319  0.0673 -0.1461
 3652W        W20126  13.599   0.637   4.494 -0.2378  0.3027  0.4072
 3653W        W20127   6.319  10.561  11.237  0.1475  0.3711 -0.2127
 3654W        W20128  18.478   8.785   4.553 -0.1020  0.3177 -0.1467
 3655W        W20129   2.406  13.542   4.882  0.1278  0.0180 -0.0296
 3656W        W20130   4.037  17.162   0.072 -0.2919 -0.3546 -0.2141
 3657W        W20131   6.302   3.743  14.295  0.1151  0.2485  0.1084
 3658W        W20132  16.015   2.018   3.224  0.2352 -0.0206  0.3900
 3659W        W20133  11.209   5.574  11.382 -0.2056 -0.0635  0.0379
 3660W        W20134  18.617   6.818   9.367 -0.0183  0.3032  0.1308
 3661W        W20135  11.170  16.471  11.356 -0.2286 -0.0389 -0.1183
 3662W        W20136   8.128  17.611  12.056 -0.1915  0.1075  0.1561
 3663W        W20137  12.303  12.333   3.454 -0.0831  0.0274 -0.2661
 3664W        W20138   0.428  19.071  11.819  0.0588 -0.1115 -0.2548
 3665W        W20139  14.327  18.613   3.029  0.3198 -0.2049  0.0226
 3666W        W20140   2.433   9.343   1.376  0.1893  0.1959  0.2249
 3667W        W20141   0.354   3.651  14.159 -0.0447  0.1024  0.0751
 3668W        W20142  19.327  12.348  10.731 -0.2454  0.0013  0.2104
 3669W        W20143  18.164  15.766  11.591  0.2280  0.0906  0.0165
 3670W        W20144  11.373   0.587  13.557  0.2929 -0.3833  0.0215
 3671W        W20145   1.789   1.367   2.438  0.2056  0.1386 -0.2519
 3672W        W20146   1.881   5.020   2.287  0.0015  0.0751 -0.3462
 3673W        W20147   9.267   6.309   2.875  0.1267  0.3776 -0.4584
 3674W        W20148  13.390   3.334   1.821 -0.1354 -0.0379  0.3300
 3675W        W20149  10.853   9.415   0.116  0.0729  0.1566 -0.1021
 3676W        W20150  19.302   5.526   1.760  0.0681 -0.3582 -0.2216
 3677W        W20151  10.134  17.285  13.051  0.2503 -0.2553  0.1057
 3678W        W20152   9.186   2.882   9.679 -0.1971 -0.1509 -0.0159
 3679W        W20153  10.828  15.588   5.667 -0.0713 -0.0843  0.2347
 3680W        W20154  19.160  10.658   4.242  0.3554  0.1483  0.0459
 3681W        W20155  15.681  11.708   4.372 -0.0361  0.2903 -0.0637
 3682W        W20156  16.386   9.804   4.520  0.0580  0.1374 -0.2680
 3683W        W20157   2.415  19.466   1.205 -0.4473 -0.1266 -0.0205
 3684W        W20158   9.967  11.347  10.721 -0.0033 -0.2890 -0.0232
 3685W        W20159  14.289  19.118  11.470  0.0775  0.0847  0.2388
 3686W        W20160  14.525  16.913   0.352  0.4153 -0.1892  0.0398
 3687W        W20161   1.704  15.395  12.386 -0.0690 -0.3269 -0.1739
 3688W        W20162  17.382   5.532   4.784 -0.0158  0.0257  0.1718
 3689W        W20163   2.674  18.982  10.342 -0.0888  0.0319  0.0637
 3690W        W20164  18.022  16.240   5.320 -0.1678  0.0692  0.2614
 3691W        W20165   8.920   1.391   1.759 -0.1405  0.0852 -0.2044
 3692W        W20166  18.225  12.367  12.100  0.0237 -0.3691  0.2713
 3693W        W20167  18.287   6.800   1.858 -0.0023  0.0437 -0.0681
 3694W        W20168   5.358   6.153  11.421 -0.2476  0.3478 -0.3936
 3695W        W20169  13.875   2.711   0.944 -0.1284 -0.0186  0.0559
 3696W        W20170   6.624  11.240   3.484  0.1497 -0.1538  0.1532
 3697W        W20171   4.824  18.490  13.838 -0.1743  0.3734  0.0621
 3698W        W20172  11.866  17.718   4.957  0.1796  0.1093  0.1400
 3699W        W20173  17.517   6.575   0.090 -0.0263 -0.1208  0.1738
 3700W        W20174   0.451  18.841  14.439  0.0298  0.2427 -0.1270
 3701W        W20175  11.098   7.290   9.853 -0.0704  0.2210 -0.1350
 3702W        W20176  11.275  17.314  12.817  0.0726  0.4021  0.1817
 3703W        W20177  15.702  16.665   4.331 -0.0757 -0.1121 -0.1804
 3704W        W20178  15.361   9.705  12.520  0.2345  0.5151  0.0330
 3705W        W20179  11.546   1.204   3.673  0.1369 -0.2624  0.1634
 3706W        W20180  15.201  15.303   1.322  0.4189 -0.2663 -0.0910
 3707W        W20181   4.067   2.502  13.545 -0.0355 -0.0775 -0.1195
 3708W        W20182   6.469   4.688  13.419 -0.2813 -0.2150 -0.0432
 3709W        W20183   9.982   0.087  14.666 -0.1410 -0.1537 -0.3141
 3710W        W20184   0.838   8.526   0.873  0.1906 -0.2937  0.1339
 3711W        W20185  11.677   2.015   3.308 -0.2001 -0.1364 -0.0952
 3712W        W20186   3.128  15.020   2.326 -0.0726  0.3087  0.2399
 3713W        W20187   5.313  10.954  12.399  0.1647 -0.0197  0.0600
 3714W        W20188  11.023   4.102  12.737  0.0493 -0.1011 -0.1797
 3715W        W20189  14.817  18.628  12.241 -0.2961 -0.0905 -0.2062
 3716W        W20190  13.911  12.716  14.551 -0.1624 -0.2798  0.0455
 3717W        W20191   0.317   1.306   0.038  0.0727 -0.1611  0.2474
 3718W        W20192  16.460  11.159   0.856 -0.0627 -0.0851  0.0304
 3719W        W20193  19.233   4.855   0.585  0.2276 -0.0758  0.2627
 3720W        W20194   8.506  16.503   0.616 -0.2560  0.0835 -0.6063
 3721W        W20195  12.977  16.978  13.042  0.4534  0.0458 -0.0410
 3722W        W20196   0.672  17.031  13.930 -0.1430  0.3188 -0.1114
 3723W        W20197  11.906   9.550   3.134  0.0305 -0.1268  0.0818
 3724W        W20198  15.968   9.549  10.993  0.2492  0.0104 -0.1132
 3725W        W20199  13.837   3.688  10.161 -0.2575  0.1441  0.2911
 3726W        W20200   0.759   9.819   5.387 -0.2338  0.0287 -0.1841
 3727W        W20201  10.891   8.110   2.861 -0.5793  0.1027 -0.1135
 3728W        W20202   7.416   0.945  13.746 -0.1273 -0.2502  0.2550
 3729W        W20203   2.506  14.401   2.856  0.1148 -0.3309 -0.1452
 3730W        W20204  12.022  15.647  14.270  0.0074 -0.2000 -0.2173
 3731W        W20205  17.217   2.107  14.550  0.1841  0.2755  0.0367
 3732W        W20206  16.065  19.491  11.147  0.3474  0.1079 -0.3038
 3733W        W20207  12.857   8.400   3.758 -0.0779 -0.0556 -0.1039
 3734W        W20208  15.666   5.796   2.206  0.0950  0.1910  0.0593
 3735W        W20209  14.880   8.748  14.500 -0.0198  0.3237  0.1295
 3736W        W20210   3.541   4.244   0.504  0.0251  0.3674 -0.2456
 3737W        W20211   0.722   9.558   1.417  0.0732 -0.2190 -0.4120
 3738W        W20212   8.709   5.474   4.471 -0.0229  0.0065  0.0723
 3739W        W20213  16.125  13.666   1.128  0.4067  0.1642 -0.0896
 3740W        W20214   5.987   8.393  13.555 -0.3026 -0.1528  0.1535
 3741W        W20215   5.553  14.860   4.171  0.1642  0.0226 -0.0762
 3742W        W20216  12.611   4.191  12.772 -0.0854 -0.5230  0.3484
 3743W        W20217  18.571  17.247  13.728  0.1706 -0.0063 -0.2684
 3744W        W20218  14.063  19.373   0.779  0.2245  0.2372 -0.3070
 3745W        W20219  13.759   0.134   2.946 -0.1236 -0.0567  0.0820
 3746W        W20220   2.867   4.707   9.985 -0.0171  0.0609  0.2581
 3747W        W20221  11.488   7.762  12.048 -0.1001  0.1342  0.1569
 3748W        W20222  13.191   6.155   3.771 -0.2290  0.1068 -0.2067
 3749W        W20223  15.712   4.450   2.757 -0.2330 -0.1299 -0.2232
 3750W        W20224   6.138   2.562  11.520  0.0489  0.1560 -0.0286
 3751W        W20225  13.593  11.723  12.973 -0.2837  0.1069 -0.3895
 3752W        W20226   7.789  13.969  11.805 -0.1200  0.0351 -0.3314
 3753W        W20227   6.581  16.950  13.930 -0.1396  0.3524  0.1557
 3754W        W20228   8.415  15.191   2.495  0.1979  0.0652 -0.0092
 3755W        W20229  15.161  17.469  13.628 -0.1488 -0.0691 -0.1256
 3756W        W20230   4.112  17.420   2.259 -0.1356 -0.0574  0.1425
 3757W        W20231   0.215   9.588  14.588 -0.1416  0.2444  0.0475
 3758W        W20232  17.537  10.539   2.585 -0.0204 -0.3545  0.3039
 3759W        W20233   0.577  15.121   0.802  0.1064  0.3206 -0.0247
 3760W        W20234  10.151   8.223  14.266 -0.1151  0.0992 -0.1166
 3761W        W20235  10.720  10.340   1.691  0.4596  0.0590 -0.1629
 3762W        W20236  10.820   0.393  10.614  0.0316  0.2799  0.0943
 3763W        W20237  16.147  15.725  12.726  0.1489  0.0311  0.0880
 3764W        W20238  11.482  10.344  14.225 -0.1006 -0.2131  0.2141
 3765W        W20239  16.966  15.663   0.801  0.1417 -0.2858 -0.0717
 3766W        W20240  15.748   2.958   3.290  0.3854 -0.1015  0.1485
 3767W        W20241   5.900   7.761  13.212  0.0466 -0.0742  0.2608
 3768W        W20242   1.758  11.779   2.291 -0.0154 -0.0236  0.0106
 3769W        W20243  12.348  13.611  14.452 -0.2017 -0.1975 -0.2763
 3770W        W20244   8.179  13.728  11.680 -0.1412  0.2129 -0.1213
 3771W        W20245  11.459  11.806   1.193 -0.0018  0.3429 -0.1706
 3772W        W20246   1.332   9.261  10.595  0.0194  0.1895  0.0599
 3773W        W20247  18.930   7.818   0.827  0.0022 -0.3336  0.0183
 3774W        W20248   7.095  18.807  11.986  0.1094 -0.2225 -0.1562
 3775W        W20249   8.642   3.480  12.996 -0.0307  0.1896 -0.1316
 3776W        W20250   2.050  11.068  10.365  0.1341 -0.0514 -0.0514
 3777W        W20251   6.133   8.797  13.320 -0.0589 -0.0334 -0.1634
 3778W        W20252   9.938   3.603  10.122  0.1255  0.1546  0.1420
 3779W        W20253   4.891  16.445  11.609  0.1388 -0.0753 -0.2906
 3780W        W20254   4.659  18.654   0.638 -0.0854  0.1598  0.0516
 3781W        W20255   1.132  17.667   2.847  0.3456 -0.0909  0.2569
 3782W        W20256  15.286  10.458   4.106  0.0293 -0.0951  0.1568
 3783W        W20257   6.880   7.766   0.705 -0.2018  0.3163 -0.0816
 3784W        W20258  11.563   9.835   4.502  0.1554 -0.0984 -0.3297
 3785W        W20259   5.955  13.810  10.535 -0.0731 -0.1398 -0.1071
 3786W        W20260  19.561   2.416  11.198 -0.0436 -0.2570 -0.0528
 3787W        W20261  16.032  13.153   2.912 -0.3049 -0.1032 -0.4036
 3788W        W20262  18.976   0.489  14.352 -0.0427 -0.1175  0.0445
 3789W        W20263  13.423  11.794   0.159 -0.1037  0.0990 -0.1942
 3790W        W20264  19.273  15.438   0.031 -0.1858 -0.0036 -0.1548
 3791W        W20265  14.166   1.001  12.654 -0.1434  0.1751 -0.3899
 3792W        W20266   2.536  14.210  10.668 -0.0312  0.0516 -0.0359
 3793W        W20267   0.369  18.318   2.609  0.1107  0.2798 -0.4113
 3794W        W20268   2.306   5.384  10.289  0.2452  0.2331  0.1898
 3795W        W20269  13.302   0.901   4.187  0.1969  0.1970  0.1234
 3796W        W20270   9.318   3.261  12.833  0.0698 -0.1682 -0.1713
 3797W        W20271  17.628   1.373  12.388  0.0302 -0.0896 -0.0841
 3798W        W20272   4.015   7.143  12.453 -0.1437  0.3216 -0.3331
 3799W        W20273   3.233   3.422  11.316  0.1179 -0.0752 -0.0738
 3800W        W20274  14.780   7.594   0.700  0.0345 -0.1716  0.0240
 3801W        W20275  11.798   9.918  10.971  0.0563  0.0926  0.1438
 3802W        W20276   1.437   4.194  13.658  0.0229 -0.1366  0.1261
 3803W        W20277   5.661  15.491   2.822 -0.0630 -0.1197  0.0524
 3804W        W20278   2.552   7.067  13.408 -0.0890  0.1931  0.3230
 3805W        W20279   5.870   9.295  12.673 -0.0231  0.0941  0.0178
 3806W        W20280  13.247   5.996   2.014 -0.0282 -0.0986  0.0802
 3807W        W20281  15.637  14.120   0.240 -0.0357  0.2843  0.1097
 3808W        W20282   3.520  14.858  10.099  0.0122 -0.4343 -0.0023
 3809W        W20283   4.006   3.755  14.288  0.0193  0.0834  0.0160
 3810W        W20284  19.075  16.810  13.029  0.2704  0.2934 -0.0554
 3811W        W20285  18.985  14.063  10.591  0.2269 -0.2052  0.0244
 3812W        W20286   2.152   9.710  13.904  0.0684 -0.0489 -0.1596
 3813W        W20287   0.880   1.809  11.797  0.1439 -0.3854  0.5600
 3814W        W20288  17.232  19.295  10.958  0.4222 -0.1402  0.0515
 3815W        W20289   7.929   8.987  13.500  0.0394 -0.1916  0.0762
 3816W        W20290  17.529   4.692  10.284  0.0943 -0.1575  0.1520
 3817W        W20291   9.906   9.292   2.188 -0.2726 -0.2591  0.1276
 3818W        W20292  15.964  15.952  11.457 -0.1244  0.0084  0.4397
 3819W        W20293   7.925  15.923   4.659  0.0232 -0.3392 -0.0830
 3820W        W20294  17.773  14.867   0.621 -0.1605  0.1766 -0.0724
 3821W        W20295  10.849   2.086   2.535 -0.0377 -0.0790 -0.1184
 3822W        W20296   0.000   5.136   1.548 -0.3969  0.5061 -0.0363
 3823W        W20297   9.024   9.919  13.462 -0.2397  0.4447  0.1676
 3824W        W20298  18.083   3.535   1.330  0.2082 -0.0769 -0.1406
 3825W        W20299   4.221  17.179  12.908 -0.2036 -0.4582  0.2256
 3826W        W20300   9.825   9.548  13.649  0.0129  0.0577  0.0580
 3827W        W20301  12.535  14.860   3.127 -0.1067  0.4113  0.1675
 3828W        W20302  12.359   3.122   0.813  0.2704 -0.1016 -0.0175
 3829W        W20303  10.203   3.800   2.748  0.2606 -0.3498 -0.1833
 3830W        W20304   1.222  18.665  13.715  0.1504 -0.1731  0.0402
 3831W        W20305  14.611  16.870   2.411  0.3543  0.1413 -0.0322
 3832W        W20306  16.290  11.361   2.220  0.0060  0.0914  0.1075
 3833W        W20307  15.800  14.753   2.835 -0.0021 -0.1557  0.1377
 3834W        W20308  17.445   2.618   1.593  0.1048  0.3030 -0.2373
 3835W        W20309  15.429   9.053   3.486 -0.0049  0.1380  0.1140
 3836W        W20310  13.998  16.918  14.301  0.1754 -0.0495  0.4730
 3837W        W20311  14.438   3.409   3.093 -0.0343 -0.2217 -0.0140
 3838W        W20312  12.871   2.692  12.280 -0.4077  0.0724 -0.2221
 3839W        W20313  17.919   7.775   4.447  0.2124 -0.0496 -0.0816
 3840W        W20314   3.118  18.284  11.100 -0.1007 -0.0374  0.1587
 3841W        W20315  15.436   7.411  12.974  0.1141  0.1092 -0.0925
 3842W        W20316   0.217  14.263  14.127  0.2005 -0.0881  0.0201
 3843W        W20317   3.693   1.375   9.925  0.3187 -0.3320 -0.2220
 3844W        W20318  17.303  12.021   3.750  0.1366 -0.1322 -0.0449
 3845W        W20319  14.951   1.812  11.714 -0.0450 -0.0072 -0.1833
 3846W        W20320   0.225  12.833  11.652 -0.0348 -0.0778  0.1659
 3847W        W20321  14.288   8.037  13.875  0.4434  0.0520  0.0697
 3848W        W20322   3.758  18.717   5.052 -0.0271  0.1474  0.1219
 3849W        W20323   5.552   0.601  13.382  0.0745 -0.2634 -0.2747
 3850W        W20324   9.806  18.394   4.227 -0.0962 -0.0364 -0.0931
 3851W        W20325   1.596  14.264   4.677  0.0038  0.1621 -0.3482
 3852W        W20326  13.416  11.314   0.504 -0.0743 -0.1933  0.4324
 3853W        W20327  15.944   6.657   1.069  0.1240 -0.0942  0.2654
 3854W        W20328  18.087  18.474   4.689  0.2102 -0.3256  0.0842
 3855W        W20329  10.748   6.942   3.227  0.1471  0.1160  0.1014
 3856W        W20330   6.258  17.736   1.883  0.0951 -0.4589 -0.0227
 3857W        W20331  13.232  18.281  12.760 -0.3590 -0.1260 -0.2590
 3858W        W20332   5.638   4.640   3.061  0.2341  0.2668 -0.3079
 3859W        W20333   2.632   6.679   1.784  0.1261 -0.3364 -0.0617
 3860W        W20334  13.969   1.692   2.064  0.2204  0.0127  0.1721
 3861W        W20335  11.820   4.037   4.954 -0.0342  0.4760 -0.0105
 3862W        W20336  17.372   2.586  11.879 -0.2527 -0.1503 -0.1844
 3863W        W20337   0.158  16.237  13.713 -0.0175 -0.0637  0.0391
 3864W        W20338   1.544  15.780  11.813 -0.2120  0.1878  0.0219
 3865W        W20339   1.678  11.302  13.913 -0.1453 -0.0877 -0.1142
 3866W        W20340  17.621  17.066   2.689  0.2159 -0.0118  0.4425
 3867W        W20341   8.192   3.610  10.294 -0.0376  0.0759 -0.0021
 3868W        W20342  15.354  10.773   4.467 -0.2215 -0.2360  0.0365
 3869W        W20343  17.118  11.246  14.647 -0.0035  0.0204 -0.2123
 3870W        W20344   4.659  10.565   3.001  0.2970 -0.0297 -0.1336
 3871W        W20345   4.338  15.770  13.294 -0.0879  0.3029 -0.2063
 3872W        W20346   7.031  14.431   5.596 -0.0757  0.0076  0.1403
 3873W        W20347   9.922  14.356   2.055 -0.0626  0.1870  0.0997
 3874W        W20348   5.057   1.165  10.938 -0.0162  0.1883  0.1112
 3875W        W20349   6.114   5.532   4.497  0.1037 -0.3038 -0.0203
 3876W        W20350   2.567  12.371  12.903  0.0305  0.1630 -0.2592
 3877W        W20351   5.099  11.381  13.581  0.1148 -0.0769 -0.0617
 3878W        W20352   7.767   3.366  10.262 -0.2035  0.0592  0.4414
 3879W        W20353  14.272   2.612  11.292 -0.2939  0.1149 -0.3134
 3880W        W20354   8.212   1.846   3.345  0.1593 -0.3126  0.0361
 3881W        W20355   6.613  18.414  14.185  0.1288 -0.1434 -0.0753
 3882W        W20356   1.859  12.954  12.636 -0.0675  0.0727 -0.1154
 3883W        W20357   0.473   4.281  12.913 -0.2232 -0.1146 -0.0557
 3884W        W20358   8.174   3.467   5.125 -0.0319 -0.0771 -0.0588
 3885W        W20359  16.949   7.771   2.946  0.3959  0.0060 -0.3052
 3886W        W20360  19.236  12.696  12.924 -0.0063 -0.0033  0.0659
 3887W        W20361  15.214   6.215   4.858 -0.1407  0.1338 -0.0628
 3888W        W20362  14.381  13.408  12.884 -0.1833 -0.1645  0.2256
 3889W        W20363   5.283  15.394  12.515  0.0317 -0.1605 -0.2187
 3890W        W20364   5.173   0.842   3.637 -0.0247 -0.4728 -0.2358
 3891W        W20365  11.280  17.634   2.410 -0.0548 -0.0454  0.0410
 3892W        W20366   9.417   4.648   4.488 -0.2356  0.2324  0.2286
 3893W        W20367  11.424   7.275   1.039  0.1790 -0.0973  0.2699
 3894W        W20368   1.478  14.152  10.018 -0.0926  0.1844 -0.2182
 3895W        W20369  19.560   3.882   2.937  0.5597 -0.2871 -0.1621
 3896W        W20370   0.650  15.134   2.302 -0.0496  0.2635  0.4408
 3897W        W20371  13.049   9.260   3.784  0.0166 -0.0450 -0.1491
 3898W        W20372  13.528  12.902   2.761  0.0025  0.1185 -0.0985
 3899W        W20373  11.533   8.607   1.200  0.1361 -0.0262 -0.1268
 3900W        W20374  16.150  10.519   3.779 -0.2349  0.0733  0.0969
 3901W        W20375   6.320  12.902  13.991  0.0618 -0.1215 -0.1826
 3902W        W20376  19.533   8.324  11.149 -0.0891  0.3739 -0.2597
 3903W        W20377   7.456   0.704  12.940 -0.0969  0.1161 -0.1173
 3904W        W20378  14.613   8.917   4.456  0.0350 -0.2524  0.0988
 3905W        W20379   0.280  11.271   2.462 -0.3917 -0.1473 -0.0244
 3906W        W20380  18.520  18.261   4.812  0.1321 -0.2866  0.1988
 3907W        W20381  19.271   7.656  14.566 -0.0138 -0.1680  0.0576
 3908W        W20382  19.260  10.945  12.097 -0.0946  0.0995 -0.2590
 3909W        W20383   4.150  14.783   3.175  0.0700  0.0823 -0.0968
 3910W        W20384   3.551   7.489   1.136  0.1954 -0.0093  0.2482
 3911W        W20385  13.080  11.805  12.739  0.4579 -0.2377  0.3080
 3912W        W20386   8.354  14.351   0.121  0.1562  0.1984  0.2079
 3913W        W20387  17.201   1.123  14.541 -0.0429  0.0484 -0.1344
 3914W        W20388  15.168  17.396  10.482  0.0751  0.0428  0.3653
 3915W        W20389  10.486  18.148   2.322 -0.4829  0.1336  0.1102
 3916W        W20390   7.087  18.892  14.094  0.0135  0.0377  0.1001
 3917W        W20391   6.661  10.624  11.662 -0.1370 -0.3565 -0.3373
 3918W        W20392   9.591   8.175   9.816  0.1572  0.0292 -0.0863
 3919W        W20393  13.809  12.705  11.378  0.4335 -0.2196 -0.1738
 3920W        W20394  16.888  16.770   0.928  0.0073 -0.0261  0.2825
 3921W        W20395   8.518   1.748  11.571  0.0216 -0.1987  0.0618
 3922W        W20396  14.362   9.965  12.239 -0.0273 -0.1556  0.0963
 3923W        W20397   8.674  17.099   1.206 -0.1754  0.2067  0.3368
 3924W        W20398  13.229   9.142   4.388  0.2518 -0.1934  0.3872
 3925W        W20399   3.358   9.759   0.208  0.3236  0.0588 -0.0912
 3926W        W20400   8.246   4.792   4.242  0.0950  0.5362  0.0998
 3927W        W20401   5.814   9.089  10.372  0.2431  0.1876 -0.0065
 3928W        W20402   9.582   0.909  13.615  0.0951 -0.1345 -0.1317
 3929W        W20403  12.258   6.859   9.278  0.0242 -0.2546 -0.0884
 3930W        W20404  14.512  15.765   1.790  0.3161  0.0059 -0.1428
 3931W        W20405  13.280   7.610  11.106  0.1096  0.0416 -0.2094
 3932W        W20406   1.810  10.617  13.832  0.0553 -0.1987  0.1837
 3933W        W20407   2.765  12.215   3.122 -0.0775  0.2305  0.2625
 3934W        W20408   7.120  15.930  11.631 -0.2945 -0.0668  0.0576
 3935W        W20409   1.776  10.909   9.953  0.0667 -0.2019 -0.0063
 3936W        W20410   0.286   6.893   0.912  0.0204  0.2449  0.0016
 3937W        W20411  15.287   0.591  10.516 -0.0725  0.0951 -0.1118
 3938W        W20412   5.872  11.120   3.099  0.1447 -0.0980 -0.0411
 3939W        W20413  12.314   5.422   1.810  0.1180 -0.1126  0.0522
 3940W        W20414  12.734  18.910   3.498 -0.2959 -0.2660 -0.2848
 3941W        W20415   5.248  17.979   2.276 -0.0612 -0.1320  0.0250
 3942W        W20416   9.291   1.332   2.135  0.0200 -0.0041 -0.2355
 3943W        W20417  10.620  14.735   4.870 -0.0251 -0.3172  0.0629
 3944W        W20418   4.051  10.139  14.188 -0.1110  0.0686  0.3525
 3945W        W20419   0.991   4.494  10.933  0.0716 -0.3092  0.0855
 3946W        W20420  12.190  13.758   4.742  0.0483  0.0148  0.0802
 3947W        W20421   8.631   0.076  10.815  0.3288  0.4714 -0.0849
 3948W        W20422   1.012   2.597  14.066 -0.1672  0.0376 -0.2024
 3949W        W20423   8.903  12.169  11.110  0.1829 -0.0143  0.3250
 3950W        W20424  15.353   6.024  11.963  0.0025  0.2151  0.0451
 3951W        W20425   9.424  17.439  11.318 -0.1765 -0.0861  0.1189
 3952W        W20426   8.314   1.138   2.291 -0.0165  0.1742  0.0484
 3953W        W20427  14.247  14.496   0.392  0.1626  0.0219 -0.2750
 3954W        W20428   5.058  14.781  13.043 -0.1603  0.1626  0.0939
 3955W        W20429  13.128   2.319   4.229  0.1349 -0.1091  0.1255
 3956W        W20430   7.168  11.611  12.028 -0.0797 -0.2156  0.2147
 3957W        W20431  15.465  14.313   2.273  0.2512 -0.1843 -0.1006
 3958W        W20432  13.283   7.051   4.028  0.2837 -0.2489 -0.0681
 3959W        W20433   1.958   0.165   1.363 -0.1397 -0.1806 -0.2543
 3960W        W20434  15.976   9.477   5.243  0.0176 -0.0356  0.3528
 3961W        W20435   2.274   5.226  11.159  0.4716 -0.0434 -0.4614
 3962W        W20436  10.483  18.694  11.005  0.2032  0.1054 -0.2885
 3963W        W20437  11.223   3.574  10.167 -0.0255 -0.0584 -0.0750
 3964W        W20438   3.375  10.224  12.293  0.0519  0.1335 -0.0244
 3965W        W20439  13.267   1.851  11.423 -0.2290 -0.0948 -0.1654
 3966W        W20440  16.336   7.964   0.566 -0.0678 -0.0996  0.2804
 3967W        W20441  14.958   1.904   4.497  0.2041  0.0890 -0.0083
 3968W        W20442   1.953   8.961   3.428  0.1368 -0.0152  0.2256
 3969W        W20443  19.171  10.189   4.908  0.1738  0.2930 -0.1703
 3970W        W20444   0.804  10.911   1.144 -0.1091  0.0234  0.0267
 3971W        W20445  11.391  14.017  12.950  0.2387 -0.1485 -0.1173
 3972W        W20446  12.485  16.132   4.440  0.4255  0.3420  0.2902
 3973W        W20447   9.743   8.477   1.700 -0.1156 -0.0158 -0.1126
 3974W        W20448  10.236  13.809   0.562  0.0166 -0.1794 -0.0195
 3975W        W20449  15.603   9.944   1.353 -0.1726 -0.0338 -0.2098
 3976W        W20450  19.593  18.281   4.734  0.0449 -0.3533  0.1851
 3977W        W20451   7.533   7.743   2.443 -0.2147  0.4469 -0.0313
 3978W        W20452   3.185   3.867   0.628 -0.0425 -0.2223 -0.0414
 3979W        W20453   0.045   5.317  13.698  0.0834 -0.4320  0.0962
 3980W        W20454   6.964   0.918   4.055  0.0070 -0.4539 -0.2865
 3981W        W20455  16.382  15.681  13.205 -0.2007  0.2224 -0.0798
 3982W        W20456   7.141  12.332  10.723  0.3423  0.1643 -0.2570
 3983W        W20457  11.884  16.960   2.782  0.0802 -0.0537 -0.2223
 3984W        W20458  18.466  19.521   3.825 -0.0502  0.0012  0.0489
 3985W        W20459   9.009   9.977  14.465  0.0278 -0.0828 -0.5862
 3986W        W20460  17.107  18.873   5.512 -0.0952 -0.1489 -0.0364
 3987W        W20461  10.628   3.454   2.634  0.1033 -0.1163  0.0769
 3988W        W20462   3.118   1.585  10.133 -0.0750  0.2665  0.1283
 3989W        W20463   3.391   2.906  12.139 -0.2387 -0.3912 -0.2039
 3990W        W20464   5.438   7.854  10.240  0.1977  0.0498 -0.0369
 3991W        W20465  15.514  10.816  10.416 -0.2101 -0.3985 -0.0776
 3992W        W20466  15.532   1.047   3.224  0.2517 -0.0768  0.2165
 3993W        W20467   3.430  13.953  12.305  0.0095 -0.2359 -0.4724
 3994W        W20468   5.430   2.026  14.627 -0.3317  0.2757 -0.0843
 3995W        W20469  16.140   2.306   2.885 -0.2198 -0.0377 -0.1270
 3996W        W20470   8.334  11.604  14.662 -0.0249  0.1748  0.0162
 3997W        W20471  10.657   7.527   1.212 -0.0383 -0.1558 -0.0944
 3998W        W20472  11.287  17.492  13.902 -0.1170  0.1111 -0.3277
 3999W        W20473   4.659  15.575   1.572 -0.0311 -0.0984  0.1746
 4000W        W20474  14.802  11.759  11.534  0.1039  0.0706 -0.0120
 4001W        W20475   2.947  16.080   0.758  0.1582 -0.0092 -0.1267
 4002W        W20476   2.199  10.061   3.651  0.0858 -0.1075 -0.1546
 4003W        W20477   1.424  10.929  13.607  0.0212  0.3293  0.1543
 4004W        W20478   7.684   7.563   1.277 -0.0137  0.2894  0.0271
 4005W        W20479  10.037  10.468  14.077  0.2325 -0.3771  0.4448
 4006W        W20480   2.614  18.722  12.838 -0.2399 -0.1412 -0.0369
 4007W        W20481   6.976  15.157  13.642  0.0270 -0.2111 -0.1633
 4008W        W20482   7.035   6.575   2.396 -0.1594 -0.1970 -0.0624
 4009W        W20483  11.877   3.923  13.760  0.2035  0.1318 -0.0417
 4010W        W20484   2.133   2.904   1.537  0.2450  0.2773 -0.0546
 4011W        W20485   2.665   2.396   4.770  0.3452 -0.2417 -0.2052
 4012W        W20486   2.616  11.810   2.799  0.0638 -0.3313 -0.0472
 4013W        W20487  19.336   4.089  12.913 -0.0353 -0.2497 -0.0075
 4014W        W20488   5.788   0.607   1.293 -0.1528 -0.0153  0.2237
 4015W        W20489  13.095  19.095  10.239  0.1266 -0.0731  0.1259
 4016W        W20490  18.062   7.334   2.874  0.0210  0.0734 -0.0558
 4017W        W20491  18.268   6.574   3.605  0.2761 -0.2638  0.1052
 4018W        W20492   4.415   1.918  10.993  0.1686 -0.0267  0.1032
 4019W        W20493   4.309  14.023   4.028  0.1374 -0.0990  0.0924
 4020W        W20494  16.915   9.638   1.302 -0.0948  0.0800  0.1444
 4021W        W20495  16.902   2.918   0.511  0.2664  0.1109 -0.0820
 4022W        W20496  13.320   0.153   4.412 -0.1072  0.2556  0.0453
 4023W        W20497   7.920   6.329  10.503  0.0338  0.0768 -0.4202
 4024W        W20498   1.552  14.873   1.395 -0.2354  0.0333  0.1181
 4025W        W20499  14.853   0.478  11.044 -0.1668 -0.1491 -0.2547
 4026W        W20500  13.171   6.901  12.499  0.3192  0.2246  0.0673
 4027W        W20501  12.375  10.668   1.744 -0.2947  0.0245  0.0571
 4028W        W20502  11.483   9.505  10.415 -0.0170  0.0565  0.1301
 4029W        W20503  12.999   0.198   1.040  0.1866 -0.0511  0.0337
 4030W        W20504  16.857  16.769  10.537 -0.0604  0.0826  0.0463
 4031W        W20505   0.799  15.682  13.551 -0.1328 -0.2083 -0.1357
 4032W        W20506   3.921  16.893   1.852 -0.1999  0.2621  0.0632
 4033W        W20507  14.157  19.233  10.304  0.2989 -0.0832  0.1010
 4034W        W20508  15.107   3.380  12.915  0.2354 -0.2102  0.1241
 4035W        W20509  17.878   2.750  10.487 -0.0172  0.0093 -0.1611
 4036W        W20510   4.896   6.498   0.820  0.3274 -0.0539  0.3068
 4037W        W20511  16.403  18.257  10.790 -0.1205  0.1149 -0.2300
 4038W        W20512   3.954  13.126   1.956  0.3509  0.2459 -0.0326
 4039W        W20513   7.754   2.982  14.637  0.1886 -0.2870 -0.0392
 4040W        W20514   2.034  10.539  10.268  0.1689 -0.1128  0.2302
 4041W        W20515   2.341  11.633   4.428 -0.1220  0.0751 -0.0132
 4042W        W20516  18.819   6.304  12.607  0.0766  0.1883 -0.0784
 4043W        W20517  14.794  18.945   2.443  0.1052  0.0147 -0.1564
 4044W        W20518  10.223  13.759  13.671 -0.2674 -0.0828  0.0417
 4045W        W20519  17.326   3.985  10.752  0.1080  0.0727 -0.0480
 4046W        W20520   4.433  17.908  11.714  0.1227  0.0596 -0.2573
 4047W        W20521   2.265   4.841  12.216 -0.0147 -0.0692  0.3303
 4048W        W20522  11.027   3.401   1.721 -0.0435 -0.1932  0.0299
 4049W        W20523   2.427  12.989  12.068  0.5623 -0.3017  0.0101
 4050W        W20524   2.510  19.066  14.053  0.0266  0.1855 -0.1412
 4051W        W20525  12.581   8.413   1.455 -0.0380 -0.1175  0.2581
 4052W        W20526  19.217   5.967  11.493 -0.0151  0.1092 -0.0390
 4053W        W20527  13.249   8.996   3.005  0.2154 -0.0494  0.0693
 4054W        W20528   9.435   0.853  12.195 -0.1122  0.1338 -0.3781
 4055W        W20529   2.422   7.309  13.883  0.1244  0.1357  0.2597
 4056W        W20530  11.785   2.930  11.624  0.0109  0.0623  0.3389
 4057W        W20531   9.910  11.611   1.159 -0.2613 -0.5770  0.1341
 4058W        W20532  10.541   6.494  13.978  0.0572  0.2859 -0.4750
 4059W        W20533   7.839  17.735   5.187  0.0441  0.0451 -0.0772
 4060W        W20534   2.876  13.757   9.785 -0.0903 -0.0048 -0.0172
 4061W        W20535  12.875  15.706  10.288 -0.0293  0.1168  0.1671
 4062W        W20536   4.518   6.357  13.495 -0.0717 -0.1117  0.0596
 4063W        W20537   0.814  12.964   0.441  0.2015  0.2895 -0.2646
 4064W        W20538  10.625  16.515   4.971 -0.2018 -0.2354 -0.2141
 4065W        W20539  19.508  15.537  11.250 -0.0156  0.0004 -0.0461
 4066W        W20540  11.093   5.903  11.694 -0.0793  0.0497  0.0139
 4067W        W20541  15.123   4.066  13.856 -0.2392 -0.2065  0.1451
 4068W        W20542   8.963   3.185   3.012  0.1616  0.4275 -0.0306
 4069W        W20543  17.120   8.750   4.609 -0.0909 -0.0013  0.0783
 4070W        W20544   1.286   6.347  14.620 -0.4651 -0.0918 -0.1946
 4071W        W20545   0.480  13.783   5.440  0.0641 -0.2030 -0.0216
 4072W        W20546  19.365   4.883  13.829  0.0654  0.1041 -0.0801
 4073W        W20547  13.492  14.571   2.923 -0.0413  0.0127 -0.0297
 4074W        W20548  10.824  18.795  12.699  0.1239 -0.0256 -0.1750
 4075W        W20549   9.910   4.024   5.119  0.1864  0.0539  0.0902
 4076W        W20550   0.747  18.754   4.420 -0.2806  0.0097  0.0725
 4077W        W20551  15.210  11.580  13.252  0.3598  0.4283  0.1895
 4078W        W20552   9.018  11.231  11.689 -0.1237 -0.0857 -0.2410
 4079W        W20553   2.668  12.136   1.674  0.1705 -0.1614 -0.2214
 4080W        W20554   2.246  16.030   0.003 -0.1370  0.0412  0.2394
 4081W        W20555   7.011   8.207   2.998 -0.0534  0.1561 -0.5355
 4082W        W20556  19.135   6.521   4.125  0.0581  0.3313 -0.2791
 4083W        W20557   6.361   0.025   1.535  0.0083 -0.3860  0.0595
 4084W        W20558  13.326   6.609  10.669  0.2271  0.0118  0.3335
 4085W        W20559   8.349  13.700   4.517 -0.2697 -0.0646 -0.1122
 4086W        W20560  13.034  17.014  13.904  0.0855 -0.0690  0.0816
 4087W        W20561  12.684  10.734  11.122 -0.3350  0.0513 -0.0051
 4088W        W20562   5.130  15.755   2.141 -0.1363  0.0873 -0.2139
 4089W        W20563  10.333   9.634  14.612 -0.1521 -0.4413  0.1431
 4090W        W20564   1.207   2.820   2.264  0.2057 -0.1244 -0.1463
 4091W        W20565   9.248  13.791  10.575  0.2023  0.1265 -0.0370
 4092W        W20566   6.727  16.287   3.857  0.1330  0.2877 -0.3772
 4093W        W20567  16.636   8.691   1.660  0.0442  0.0360 -0.3360
 4094W        W20568   8.580  17.068  12.078  0.1870  0.1780 -0.1835
 4095W        W20569   5.873  13.771   3.536  0.1345 -0.1423 -0.0733
 4096W        W20570  13.243  18.979  11.125  0.0792  0.2879  0.1258
 4097W        W20571   5.411   0.757  12.944  0.1654  0.1414 -0.1978
 4098W        W20572  18.551  10.710   4.466 -0.3034 -0.1800  0.0291
 4099W        W20573   2.599  12.077  11.592 -0.0897 -0.2199 -0.0132
 4100W        W20574  10.721  13.805   1.888 -0.3300  0.1120 -0.3611
 4101W        W20575   2.872  14.767   3.024  0.1560 -0.4554 -0.1426
 4102W        W20576  10.949  11.824  13.645  0.0501  0.0120 -0.1476
 4103W        W20577   4.680   2.700   4.137  0.2048 -0.0936  0.1752
 4104W        W20578  19.181  17.696  12.548 -0.1480 -0.3397  0.0364
 4105W        W20579   6.016   0.081  13.831  0.0378  0.0208 -0.0306
 4106W        W20580   6.090  18.599  12.178  0.0073  0.1037  0.2298
 4107W        W20581  14.839  17.089   2.001  0.0089  0.1956 -0.4021
 4108W        W20582   8.319  11.516   3.832  0.1314  0.0915 -0.5691
 4109W        W20583  17.916   0.897  12.469  0.1311 -0.5119 -0.1071
 4110W        W20584  14.448  17.587   1.230 -0.1924  0.0756 -0.2381
 4111W        W20585  13.360  19.601  13.854 -0.1024 -0.1554 -0.2816
 4112W        W20586  18.355  13.845  13.178 -0.0982 -0.2118 -0.2681
 4113W        W20587   9.536  18.391  12.215 -0.0896 -0.1557 -0.1663
 4114W        W20588  18.414   2.596   0.221 -0.0166  0.0832 -0.1162
 4115W        W20589   7.990   0.613  12.798 -0.1230 -0.3645  0.0422
 4116W        W20590  19.219  10.811  11.014 -0.2537 -0.3063  0.1144
 4117W        W20591  18.598  14.034   5.026  0.4014  0.1213  0.0001
 4118W        W20592  14.212   9.253  12.494 -0.5733 -0.0847  0.2556
 4119W        W20593   4.366  13.142   0.425 -0.2517  0.0244 -0.3343
 4120W        W20594  18.661   8.171  13.222 -0.1390 -0.3591  0.2455
 4121W        W20595  16.949   3.938   3.710 -0.1540  0.2792 -0.0176
 4122W        W20596  14.134  18.066  14.048  0.2085 -0.3180 -0.2069
 4123W        W20597  14.573   6.894  10.600  0.3240  0.2407  0.2217
 4124W        W20598   2.599   4.971   3.848  0.0286  0.1817  0.1081
 4125W        W20599   6.475   5.616  13.706 -0.0712 -0.0817  0.2311
 4126W        W20600  17.074   6.155  10.915 -0.2671  0.1840 -0.2386
 4127W        W20601   9.125  11.685   1.487  0.1245 -0.0076  0.1328
 4128W        W20602   6.085  17.882   2.708 -0.2567  0.1044  0.0856
 4129W        W20603  17.440  11.970  13.469 -0.3219  0.2621 -0.1158
 4130W        W20604   9.473  17.750   5.093 -0.0847 -0.0182  0.0666
 4131W        W20605  14.138  14.529  11.551 -0.1764 -0.0113  0.0068
 4132W        W20606   9.398   2.041   4.920  0.1765  0.2485  0.0164
 4133W        W20607   8.879  16.719   0.190 -0.0152 -0.2606  0.0291
 4134W        W20608   6.855  14.015  13.853 -0.3224  0.2552  0.0804
 4135W        W20609   6.359   3.593   3.012  0.0080  0.2667  0.2245
 4136W        W20610   6.523   2.626   5.229  0.0523  0.0874  0.1370
 4137W        W20611  10.835  13.800  14.300 -0.0251 -0.0613  0.1312
 4138W        W20612  17.696   0.719   2.294 -0.0730 -0.2848  0.0370
 4139W        W20613  16.932  16.277   0.704 -0.2224 -0.1472  0.1601
 4140W        W20614   0.838  16.247   1.271  0.0431  0.0424 -0.0296
 4141W        W20615  12.959  12.375   0.050 -0.1543  0.3199 -0.3157
 4142W        W20616  16.673  19.263   3.503 -0.1883  0.1336 -0.2376
 4143W        W20617  15.403  15.040  10.403  0.2570  0.1390 -0.1829
 4144W        W20618   6.316   7.642  10.451  0.2411  0.3567 -0.0545
 4145W        W20619   5.930   9.657  13.885  0.1350  0.0131  0.5096
 4146W        W20620  15.498  18.803  10.418 -0.1538  0.0676 -0.1164
 4147W        W20621  16.125   1.984  13.304 -0.0847  0.1045 -0.0716
 4148W        W20622   9.371   3.326  11.874 -0.0998 -0.3130 -0.1030
 4149W        W20623   8.557  12.583   4.848 -0.1263  0.0340 -0.3667
 4150W        W20624  11.340   8.935   4.312 -0.3065 -0.0339  0.0338
 4151W        W20625   1.187  16.349   2.088  0.5722 -0.1480 -0.2266
 4152W        W20626   8.654   1.676  10.606 -0.1668  0.0298 -0.0523
 4153W        W20627  10.964   7.504   3.119  0.0183  0.1235 -0.0715
 4154W        W20628   3.009  16.149   3.560 -0.0577 -0.3768 -0.3759
 4155W        W20629   3.523   3.394  12.947  0.0568  0.3004 -0.1608
 4156W        W20630  15.315   1.498   3.222 -0.1050  0.1738  0.0126
 4157W        W20631   6.151   9.827   5.339  0.1767  0.0370 -0.4123
 4158W        W20632  17.067   8.243   2.702  0.0212 -0.0031  0.0359
 4159W        W20633   4.955  18.342   2.152 -0.5537  0.2327  0.0625
 4160W        W20634  13.384   0.379  12.610  0.1587  0.0183 -0.1421
 4161W        W20635  17.625  13.730   2.685  0.0657 -0.1936 -0.1856
 4162W        W20636   4.357  10.523  14.102 -0.0227 -0.0346 -0.0014
 4163W        W20637   7.119  10.742  11.959  0.0301 -0.3577  0.1757
 4164W        W20638   6.126  11.226   1.614  0.0051 -0.0741 -0.2121
 4165W        W20639   1.199  10.497   3.472 -0.0453  0.1239  0.1011
 4166W        W20640  13.054   3.010  10.908  0.1242  0.1079 -0.0975
 4167W        W20641  10.208   9.491   4.601 -0.1200  0.0472  0.0071
 4168W        W20642  13.708   6.710  10.353  0.0537 -0.1321 -0.2377
 4169W        W20643  14.851   2.686  12.767  0.1417  0.0631 -0.1708
 4170W        W20644   6.276   8.898   3.995 -0.1240  0.1664  0.4051
 4171W        W20645   2.883   1.598   4.796  0.0791  0.0445  0.0780
 4172W        W20646   3.104  18.252   4.649  0.2747 -0.0115 -0.2553
 4173W        W20647  15.194  15.993  10.895 -0.3249 -0.1217  0.3393
 4174W        W20648  18.090  12.151   0.909 -0.0407  0.2785 -0.3529
 4175W        W20649   6.554   5.121   2.063 -0.1028 -0.3707 -0.0567
 4176W        W20650   1.611   3.078   3.227 -0.1143 -0.0914  0.0791
 4177W        W20651   0.789  11.329   9.962  0.2445 -0.0054  0.1795
 4178W        W20652   9.578  18.687  14.528  0.1657  0.1036 -0.0690
 4179W        W20653  12.296  13.910   0.253  0.1278  0.1640  0.0732
 4180W        W20654  11.463  10.245  10.813 -0.1645  0.0469  0.3495
 4181W        W20655  18.122   3.523  11.001 -0.0687 -0.0760 -0.2117
 4182W        W20656  13.375   3.514  12.664 -0.3572 -0.1129  0.0942
 4183W        W20657  10.935  16.257   2.251 -0.0863  0.2567  0.1624
 4184W        W20658  18.084  12.934   4.692  0.3915  0.5507  0.3330
 4185W        W20659  10.313   5.597   2.936 -0.0765 -0.0634 -0.0326
 4186W        W20660   0.998   0.892  12.052  0.4024  0.1145  0.3192
 4187W        W20661  11.032   5.457  13.136  0.1223  0.0140  0.3047
 4188W        W20662   0.415   5.859  10.862 -0.1321 -0.1164 -0.1721
 4189W        W20663  15.101   2.350  11.803 -0.1386 -0.2774  0.0064
 4190W        W20664   9.773   5.881  14.146  0.1793 -0.1844  0.0977
 4191W        W20665   7.775  10.098  14.108  0.1301 -0.0890  0.0044
 4192W        W20666   0.474  17.567   3.335  0.0266  0.2042  0.2653
 4193W        W20667   6.006   3.711  11.725  0.1544 -0.1311  0.2096
 4194W        W20668  19.183  13.086  13.838 -0.0368  0.1246  0.0134
 4195W        W20669   9.163  18.428   4.659 -0.1211 -0.0022  0.0646
 4196W        W20670   1.252   0.573   2.410 -0.3553 -0.1217  0.0962
 4197W        W20671  13.794  14.956   3.181 -0.0736 -0.0602  0.1861
 4198W        W20672   0.404  11.745   9.458  0.4141  0.2754 -0.2232
 4199W        W20673  16.482   0.577  14.301  0.2098  0.3331  0.0541
 4200W        W20674  10.875   7.581  12.086 -0.0307  0.0103 -0.0147
 4201W        W20675  13.972  18.216   2.951 -0.1979 -0.5034 -0.0917
 4202W        W20676  13.507  10.186  14.249 -0.3497  0.1638  0.1083
 4203W        W20677  16.420   8.268  12.485 -0.1003  0.0338  0.0687
 4204W        W20678  13.665  12.510   1.661 -0.1024  0.0722 -0.1452
 4205W        W20679  14.050   3.748  12.705  0.0883  0.1921  0.2063
 4206W        W20680  19.368  19.431  12.572  0.0834 -0.2160 -0.0519
 4207W        W20681   4.182   4.178   4.333  0.0132 -0.3052 -0.0329
 4208W        W20682   6.627  18.207   4.384  0.1553  0.2679 -0.1704
 4209W        W20683  18.510  17.881   3.453 -0.1954 -0.1900  0.2029
 4210W        W20684  13.802  12.246  14.587 -0.1621  0.1348  0.0665
 4211W        W20685  11.004   6.528   3.464  0.1637  0.2569  0.1912
 4212W        W20686  16.742   2.349  12.065  0.0387 -0.3505 -0.4928
 4213W        W20687  16.426   9.666  14.595  0.1056  0.2074  0.0586
 4214W        W20688  18.993   2.354  12.601 -0.2884 -0.0401 -0.1436
 4215W        W20689   7.092  13.644   2.171 -0.2854  0.1671  0.0489
 4216W        W20690  16.154   6.630   0.612 -0.1607  0.1365  0.1122
 4217W        W20691  13.838   7.212   2.682 -0.3602 -0.0929  0.1250
 4218W        W20692  18.794  19.301  12.190 -0.3549 -0.1467 -0.2795
 4219W        W20693   1.572  14.593   4.316  0.2057 -0.0858 -0.0152
 4220W        W20694   0.225  14.101  10.635 -0.0564 -0.1316 -0.0662
 4221W        W20695   2.733   0.222   4.560  0.5391  0.0107  0.3382
 4222W        W20696   4.191   8.145   3.487  0.1643  0.0312  0.1526
 4223W        W20697   2.685  10.199   1.595  0.0948 -0.0213  0.2874
 4224W        W20698  13.236   4.280  10.300  0.1515 -0.1511 -0.0456
 4225W        W20699  15.038   5.194   5.493  0.0492  0.2407  0.1650
 4226W        W20700  16.898  12.783   2.474 -0.1447  0.1319 -0.0844
 4227W        W20701   7.520   4.308  10.658 -0.2290  0.0025 -0.1413
 4228W        W20702   9.705   9.004  11.226 -0.2147 -0.1893  0.1235
 4229W        W20703  17.765   4.303   3.481  0.3101 -0.0766 -0.1885
 4230W        W20704  16.060   1.513  12.461  0.0802 -0.1903  0.0897
 4231W        W20705   9.270   0.328  11.911 -0.1518  0.1529 -0.0016
 4232W        W20706  16.052  14.586   1.635  0.1315 -0.0060  0.0967
 4233W        W20707  10.883   6.029  12.734 -0.2674  0.1255 -0.0058
 4234W        W20708  14.067   1.624   0.899 -0.0167  0.2793  0.2096
 4235W        W20709   3.131  11.342  11.128  0.0319  0.1367  0.0488
 4236W        W20710   7.460  12.439   1.775  0.2077  0.2143  0.1633
 4237W        W20711   5.894  16.490   0.957 -0.0806 -0.0431  0.0687
 4238W        W20712   6.015   2.603  13.365 -0.3508  0.1013 -0.0671
 4239W        W20713  14.661  13.522   1.942  0.1185  0.2068  0.1090
 4240W        W20714   4.411   7.954  14.357  0.1542 -0.0746 -0.0067
 4241W        W20715   7.285  12.326  12.983 -0.2414  0.1023  0.0094
 4242W        W20716   2.744  15.901  13.736 -0.2363  0.1545 -0.4054
 4243W        W20717  19.199   9.473   3.486 -0.1671  0.1083 -0.1588
 4244W        W20718   8.253   1.960  10.485 -0.4397 -0.1059  0.2335
 4245W        W20719   1.533   7.779   2.527 -0.1589 -0.1645  0.1109
 4246W        W20720   4.695   8.537   1.884 -0.2072  0.2225 -0.1264
 4247W        W20721   9.197   9.055   3.314  0.0892 -0.0682 -0.0847
 4248W        W20722   0.414  11.080  12.509  0.0832  0.0291 -0.1836
 4249W        W20723   9.527  10.259   2.317  0.3486  0.2881  0.3187
 4250W        W20724   5.497  10.565   1.588 -0.4506  0.0485 -0.1753
 4251W        W20725   7.514  10.167  11.048 -0.1748 -0.5100  0.1780
 4252W        W20726  15.614   7.875   1.313  0.0353  0.3649  0.1830
 4253W        W20727   3.053   3.558  12.955 -0.1913  0.1802 -0.0822
 4254W        W20728   2.920  15.574  14.165  0.2197 -0.1260  0.3322
 4255W        W20729  15.335  16.884   3.355  0.4905  0.1200 -0.3582
 4256W        W20730   3.006   2.257  12.640 -0.0755  0.1866  0.3900
 4257W        W20731   1.153  11.004   0.669 -0.0507 -0.1395 -0.0533
 4258W        W20732   7.302  13.573  13.282 -0.0880  0.2668 -0.2494
 4259W        W20733  11.791  17.544   1.044  0.0261  0.2374  0.0590
 4260W        W20734  12.815  18.949   9.807  0.0395  0.2827 -0.1342
 4261W        W20735   4.996  14.879  11.314 -0.1264  0.2150 -0.4757
 4262W        W20736   0.485   4.629   3.314  0.2661  0.2431 -0.3212
 4263W        W20737  12.543   9.698  12.624 -0.0729 -0.2918 -0.0463
 4264W        W20738  11.117   1.809   2.131  0.1748 -0.2089 -0.0015
 4265W        W20739   8.720  14.143   1.310 -0.0524 -0.3036  0.0773
 4266W        W20740   7.745  15.427   1.687  0.1305 -0.0460  0.3280
 4267W        W20741  16.537  12.439  12.166 -0.1644  0.3753 -0.0929
 4268W        W20742   3.749   9.772  13.477  0.2381 -0.1116 -0.0549
 4269W        W20743   6.481  16.633  14.361  0.5567  0.0554 -0.0427
 4270W        W20744   6.752   6.149  13.718 -0.0723 -0.3017 -0.0029
 4271W        W20745  19.549  14.081   0.032  0.3489 -0.0349  0.1526
 4272W        W20746  19.152   6.690   3.526  0.2520 -0.0568 -0.0263
 4273W        W20747  14.133   4.495   2.440 -0.0244  0.2421  0.1215
 4274W        W20748  13.607   6.116   0.013  0.0725  0.1235 -0.1489
 4275W        W20749  10.150  16.627  11.704 -0.0868 -0.0959  0.4603
 4276W        W20750   0.553   9.656   1.921 -0.0324 -0.0663  0.1792
 4277W        W20751   1.753   4.335   2.874 -0.2807  0.1760 -0.2348
 4278W        W20752  18.836  10.025   0.660  0.1257  0.3548  0.4164
 4279W        W20753  15.349  18.066  12.971  0.0653 -0.0225 -0.2079
 4280W        W20754  14.603  18.180   1.248  0.2030  0.0540 -0.1325
 4281W        W20755  16.968  13.884   2.032  0.0067  0.2491 -0.3639
 4282W        W20756  10.493   8.418   9.834 -0.0852 -0.1116 -0.4386
 4283W        W20757   0.471  14.867   4.802 -0.0292 -0.0679 -0.3060
 4284W        W20758   6.068  17.935  14.038 -0.0687 -0.3263 -0.0484
 4285W        W20759   3.930   9.455   0.577  0.2982  0.1500 -0.0667
 4286W        W20760  19.496  16.026   9.458  0.0901 -0.1635 -0.0639
 4287W        W20761  12.571   9.738   2.176 -0.2237  0.3545  0.0253
 4288W        W20762   6.022   4.219  13.711  0.2101 -0.1632 -0.1581
 4289W        W20763  11.037   8.271   1.755  0.1357 -0.0345 -0.1356
 4290W        W20764  18.291   6.143   2.406 -0.0145  0.0651  0.3347
 4291W        W20765  14.565  10.467  14.446  0.1261  0.0694  0.2949
 4292W        W20766  16.002  10.004   1.020  0.1546 -0.0339  0.0700
 4293W        W20767  17.206  10.402  14.205 -0.1251  0.0816 -0.0375
 4294W        W20768  14.494   4.896   2.004 -0.0036  0.0146 -0.0455
 4295W        W20769  14.585  19.335   4.291 -0.3288 -0.1661 -0.2988
 4296W        W20770   1.917   8.550  10.494  0.1451  0.2989  0.2140
 4297W        W20771   2.271   7.005   3.478 -0.1293  0.4118  0.0050
 4298W        W20772   0.643  12.706  13.744  0.3800 -0.1613  0.3977
 4299W        W20773   1.389  17.656  12.930  0.0635  0.0272 -0.1394
 4300W        W20774   0.844  11.950  14.119 -0.0391 -0.3177  0.3551
 4301W        W20775   7.679  18.837   0.876 -0.4107  0.0928 -0.1343
 4302W        W20776   3.156  16.866  11.006 -0.3028 -0.0279 -0.3653
 4303W        W20777  16.982   4.905  12.293 -0.3105 -0.1037 -0.0349
 4304W        W20778   5.117   2.924   4.052 -0.4209 -0.2675 -0.1539
 4305W        W20779   3.799  16.916  14.203 -0.1831  0.1639  0.0607
 4306W        W20780  15.392  10.208   0.758  0.1047  0.2678 -0.6819
 4307W        W20781   5.121  17.222  11.911 -0.1353 -0.0387 -0.2432
 4308W        W20782  17.588  13.024   0.913 -0.0176 -0.2495 -0.0247
 4309W        W20783   5.894  11.617   0.673  0.0955 -0.0775  0.0795
 4310W        W20784   6.460   4.575  14.369 -0.1307 -0.2284  0.0720
 4311W        W20785  10.962   3.846   4.347  0.0830  0.0984 -0.0028
 4312W        W20786   2.585   3.201   2.709  0.1150 -0.1572 -0.1751
 4313W        W20787   2.262   2.094   1.371 -0.4322 -0.0872 -0.3607
 4314W        W20788   2.125   1.314  14.384 -0.0709 -0.1926 -0.2139
 4315W        W20789   7.743   1.177   2.130 -0.2578  0.0131  0.1498
 4316W        W20790  15.562  18.768   1.449 -0.1223 -0.0674  0.1906
 4317W        W20791   5.394  19.449   1.718  0.1852  0.1071  0.1879
 4318W        W20792   6.601  16.489  12.170 -0.1037 -0.0027 -0.4516
 4319W        W20793   7.828   1.287  13.517 -0.0215 -0.1165 -0.0047
 4320W        W20794   5.438  18.993   4.989 -0.2210  0.1738  0.2128
 4321W        W20795   2.777  16.572   0.960 -0.0554  0.1115  0.1277
 4322W        W20796  15.946  11.375   3.419 -0.2742 -0.3095  0.1203
 4323W        W20797  19.139  16.576   0.281  0.2438 -0.1201 -0.3025
 4324W        W20798  15.610   9.802   5.331 -0.0559  0.3806 -0.2341
 4325W        W20799   9.683  12.888  11.918 -0.3912 -0.0604 -0.2507
 4326W        W20800   9.432   5.391  13.137  0.1081  0.3482 -0.0828
 4327W        W20801   7.839  18.380  11.600 -0.1337  0.1220 -0.2381
 4328W        W20802   0.540  11.668   4.159 -0.0688 -0.3935  0.0593
 4329W        W20803   0.438   5.727  12.212  0.3326 -0.0401 -0.4527
 4330W        W20804   3.707  17.089  10.304  0.0433 -0.3088 -0.2358
 4331W        W20805   9.018   7.137   2.417 -0.1947  0.1089  0.0157
 4332W        W20806  13.245   4.005   1.503 -0.1365  0.0390  0.2359
 4333W        W20807  14.142   4.103   0.022 -0.1135 -0.4733 -0.1746
 4334W        W20808   5.906  12.297   0.091 -0.7009  0.1737 -0.1429
 4335W        W20809  12.850  13.888   0.113 -0.0829 -0.1077 -0.2788
 4336W        W20810   5.609  15.368   4.199  0.0086 -0.0691 -0.0109
 4337W        W20811   2.948  17.821   4.616  0.0929  0.0861 -0.0707
 4338W        W20812  19.438   9.922   1.356  0.1641  0.0833  0.0506
 4339W        W20813  19.070  17.818   3.458  0.4482  0.4230 -0.0508
 4340W        W20814   9.261  16.984  11.149 -0.2027  0.2283 -0.0314
 4341W        W20815   2.147   0.108   3.249 -0.0246 -0.0362  0.4886
 4342W        W20816  13.918  15.103   2.174 -0.0964  0.0949 -0.1705
 4343W        W20817   8.025   9.177  13.956  0.1386  0.1348 -0.0657
 4344W        W20818  17.138   5.581  11.670 -0.1057 -0.2304 -0.1306
 4345W        W20819  12.151  17.491   2.257 -0.0152  0.2604  0.3743
 4346W        W20820  16.309   6.400   2.927 -0.1157 -0.3035 -0.0366
 4347W        W20821  12.773   4.791   3.515 -0.1162 -0.0711  0.0184
 4348W        W20822  11.254   3.078   4.056 -0.3812  0.0510 -0.0828
 4349W        W20823   9.244   4.511  14.231  0.0210  0.2372 -0.2082
 4350W        W20824  16.735  18.487  12.934 -0.3538 -0.0132 -0.0856
 4351W        W20825   9.296  12.151   5.497  0.1052  0.2719  0.0651
 4352W        W20826  15.975   3.331   0.471  0.0806  0.2830  0.1670
 4353W        W20827  14.663   4.325   3.359 -0.0289 -0.1049  0.4019
 4354W        W20828  18.094   9.437  12.615  0.1702  0.1822  0.1789
 4355W        W20829  18.236   3.819   4.739  0.2386 -0.1603  0.0678
 4356W        W20830  10.148   9.961   3.461  0.0990 -0.1939 -0.0811
 4357W        W20831   7.547   1.985   5.136 -0.0551 -0.0769  0.0295
 4358W        W20832   0.965   9.934   2.076  0.2704  0.2278 -0.2885
 4359W        W20833   5.078   7.485   1.226  0.1479  0.1745 -0.0257
 4360W        W20834   4.300   9.947  11.287 -0.3320 -0.1190  0.1600
 4361W        W20835  13.884   7.534  11.729 -0.2259 -0.2034 -0.1282
 4362W        W20836  12.726  15.149   0.240 -0.3065  0.0158  0.3765
 4363W        W20837  16.953   1.602   4.494 -0.1585 -0.2088  0.2180
 4364W        W20838  17.121   7.391  10.841 -0.1602  0.0323  0.2451
 4365W        W20839   4.023   2.114   3.180  0.3485  0.2366  0.1662
 4366W        W20840   2.895  19.428   1.113 -0.1862 -0.2491 -0.1928
 4367W        W20841   3.246   4.812  14.248  0.0249  0.2907  0.0975
 4368W        W20842   5.232  14.144   3.013 -0.1077 -0.2302  0.0866
 4369W        W20843  18.070   1.815  11.690  0.2023  0.0633  0.0978
 4370W        W20844  16.539  10.352  11.580 -0.4359  0.1619  0.1901
 4371W        W20845   4.259  14.776   3.698 -0.1219  0.0714 -0.1159
 4372W        W20846   7.703   3.952  10.960 -0.0266 -0.1881 -0.1423
 4373W        W20847  14.424  18.119  13.406 -0.4106 -0.4181  0.1777
 4374W        W20848  13.829   9.568   2.754  0.1377 -0.0115 -0.1105
 4375W        W20849  17.384   4.648   5.220 -0.0344  0.1238 -0.0220
 4376W        W20850  12.709  12.980   2.892 -0.0190 -0.2062 -0.1183
 4377W        W20851   5.996  11.163   0.791 -0.1665  0.2071 -0.0727
 4378W        W20852   2.560   7.560   1.190 -0.0440  0.0872  0.0597
 4379W        W20853   7.128  12.538  13.431  0.0747  0.2347  0.0482
 4380W        W20854   2.560  17.535  11.955  0.1225 -0.5140  0.2225
 4381W        W20855  10.133   8.659  12.478  0.1271 -0.3073  0.0229
 4382W        W20856  10.241  10.483  11.261 -0.2619 -0.0354 -0.0814
 4383W        W20857   9.961   4.713  13.542 -0.1111  0.3364 -0.0386
 4384W        W20858  16.699  14.733  12.324 -0.2194 -0.0286 -0.2618
 4385W        W20859  13.338   7.341   2.200  0.0546  0.0651  0.3410
 4386W        W20860  19.122   0.240   0.208 -0.0223  0.2241 -0.1114
 4387W        W20861   7.775  11.873   1.128  0.2924  0.1030  0.0231
 4388W        W20862   4.204  14.447  14.560  0.0136  0.0876 -0.3581
 4389W        W20863   0.290   6.082  12.524 -0.0460  0.4407 -0.1452
 4390W        W20864  16.950  15.298  11.482  0.3263  0.2200  0.2112
 4391W        W20865  14.472  19.465  13.747 -0.3652 -0.1053  0.1561
 4392W        W20866   0.216   2.604   5.276  0.1478  0.0384 -0.1958
 4393W        W20867   3.379   0.866   4.193  0.4485  0.0271 -0.4175
 4394W        W20868  17.149  10.394   4.431  0.3806 -0.0681  0.2978
 4395W        W20869  18.531  14.811  10.768  0.2418  0.1701 -0.0743
 4396W        W20870  11.793   3.073   4.189  0.0609 -0.0335  0.1206
 4397W        W20871  11.440   8.819  12.797  0.1071 -0.1256  0.2108
 4398W        W20872   4.044  15.378  14.271  0.0164  0.2002  0.0165
 4399W        W20873   6.219  13.335  11.764  0.0419  0.3330  0.0706
 4400W        W20874  17.008   5.014   2.598  0.0780  0.0507  0.2143
 4401W        W20875   2.457  18.931   2.272 -0.2604 -0.0584  0.1935
 4402W        W20876   6.819  13.365   4.847 -0.0246  0.3557  0.1963
 4403W        W20877   2.221  18.153   3.525  0.1285  0.0080  0.2055
 4404W        W20878  11.716   3.165  11.162 -0.2188  0.1270  0.1753
 4405W        W20879  14.214  15.377   5.407  0.1394  0.2421 -0.1675
 4406W        W20880  12.611  14.840   0.615  0.0291 -0.2397 -0.0713
 4407W        W20881   0.050  18.076   2.287  0.5259 -0.1281 -0.0495
 4408W        W20882   9.231  16.948  12.634  0.1160  0.2058  0.0419
 4409W        W20883  13.607  18.061   0.745 -0.3894 -0.3533 -0.2459
 4410W        W20884   8.630  15.494  12.718 -0.0595 -0.0871  0.2904
 4411W        W20885   1.971  15.160   1.299  0.0515  0.2001 -0.2092
 4412W        W20886   8.290   9.643   4.054 -0.0733 -0.0449  0.2942
 4413W        W20887  10.506  11.242   5.380  0.2549 -0.2262  0.1915
 4414W        W20888  16.008  13.793   5.076  0.0904  0.0552  0.0777
 4415W        W20889  14.603  15.340  11.652 -0.1544  0.4088  0.1293
 4416W        W20890  11.418   3.991  12.354 -0.2761  0.0851  0.1457
 4417W        W20891   9.772  10.593   1.105 -0.2146 -0.0649  0.2976
 4418W        W20892   8.353  17.014  10.998  0.1519 -0.1857 -0.0138
 4419W        W20893  10.321  18.893  12.632 -0.1771 -0.0929  0.0803
 4420W        W20894   3.293   2.572  11.702  0.2848  0.0535 -0.1240
 4421W        W20895   7.867   5.797  10.439  0.0751  0.0581 -0.0069
 4422W        W20896   7.158   8.966  13.300 -0.2426 -0.3976 -0.0951
 4423W        W20897   3.580  11.558   2.984 -0.0754 -0.1833  0.4270
 4424W        W20898  10.932   5.113  13.876  0.5018 -0.0224 -0.0090
 4425W        W20899  10.998   6.959   2.278  0.0112  0.0938  0.2159
 4426W        W20900   9.735   6.575  12.253 -0.2533 -0.3306 -0.1508
 4427W        W20901   9.668   1.212   9.148 -0.2202  0.0048 -0.2542
 4428W        W20902  19.126  15.707  12.627 -0.0013  0.5107  0.3810
 4429W        W20903  19.504  16.303   0.645 -0.0793  0.0179 -0.0590
 4430W        W20904  11.046   1.896  13.988 -0.1258  0.1225  0.1453
 4431W        W20905  11.122   7.961   3.845  0.0171  0.1236 -0.0055
 4432W        W20906  11.384   2.498   0.546  0.2576  0.2608  0.1169
 4433W        W20907  16.869   8.972   2.423  0.0756 -0.0000  0.0711
 4434W        W20908   9.207  16.095   2.231 -0.1211  0.0501  0.1718
 4435W        W20909   9.486   7.242   3.087  0.2394  0.1149  0.1399
 4436W        W20910   1.083  18.383  14.097  0.4905 -0.0920 -0.0883
 4437W        W20911  18.047   6.304   4.563 -0.1719  0.0748  0.2710
 4438W        W20912   7.605   1.211   3.923  0.1081 -0.3934 -0.0790
 4439W        W20913  10.863   6.278   3.013 -0.0730 -0.1578  0.2499
 4440W        W20914   5.738   4.842   2.624 -0.2136 -0.2225 -0.2391
 4441W        W20915   0.606   0.028   1.482  0.0484  0.1271 -0.1693
 4442W        W20916   8.186   8.712   0.300  0.0122  0.2145 -0.0834
 4443W        W20917  19.169  13.702   0.282  0.0299  0.0455 -0.2868
 4444W        W20918   2.661  19.482   3.279  0.5099 -0.2301  0.1072
 4445W        W20919   8.176   7.250  13.636 -0.0677 -0.2050 -0.1697
 4446W        W20920  13.120  13.992  10.609 -0.0216  0.0348 -0.0088
 4447W        W20921   3.492  18.939   1.300  0.0044 -0.0661 -0.1500
 4448W        W20922   6.200  18.995  13.046  0.2693  0.1297 -0.2361
 4449W        W20923   2.091   7.660   1.234  0.0696  0.0299 -0.2362
 4450W        W20924   2.138  13.035   0.948 -0.0398 -0.1291 -0.0703
 4451W        W20925  17.391  10.923   1.262  0.0320  0.2322  0.0638
 4452W        W20926  18.607   8.725   3.134 -0.1331  0.0879 -0.0469
 4453W        W20927  12.264  17.518  10.519  0.2326  0.1032 -0.1260
 4454W        W20928  10.194  16.219   4.824 -0.1444 -0.0528  0.3090
 4455W        W20929   4.999  11.071  11.826 -0.0314 -0.2078  0.0958
 4456W        W20930   6.931  12.592   0.999 -0.3655  0.0034  0.1819
 4457W        W20931  11.074  11.770   4.654 -0.1312 -0.2973  0.0537
 4458W        W20932  13.913  12.019   0.406 -0.1314 -0.5625 -0.0533
 4459W        W20933  17.545  11.251   3.970  0.1360 -0.0580 -0.2385
 4460W        W20934  11.166   3.081  12.359 -0.0734  0.2160 -0.1636
 4461W        W20935  11.755  16.953  13.509  0.1453  0.1395 -0.0793
 4462W        W20936  15.794  12.845   0.961 -0.0405  0.0322 -0.0263
 4463W        W20937   8.683   8.381   0.277 -0.0734  0.0529 -0.0145
 4464W        W20938   7.406  16.512  13.812 -0.3564 -0.2689 -0.1029
 4465W        W20939  15.459  13.320   4.095  0.1826 -0.0267  0.0775
 4466W        W20940   7.337  10.518   0.629  0.0776  0.4275  0.0483
 4467W        W20941  15.344  11.671  11.720  0.1101  0.2809  0.1096
 4468W        W20942   4.792   2.365   0.054 -0.0658 -0.2519  0.1221
 4469W        W20943   9.848  18.633   4.688 -0.4808 -0.4103  0.0741
 4470W        W20944   7.462   1.668  13.219  0.0451  0.2186 -0.0488
 4471W        W20945  17.801   3.318  11.434  0.0716 -0.1850  0.0825
 4472W        W20946  18.832   3.298   2.582 -0.3065 -0.1675 -0.1314
 4473W        W20947   9.269   0.118   4.548 -0.1659 -0.0513  0.0077
 4474W        W20948   0.538  10.643   1.620  0.5279  0.2703 -0.0571
 4475W        W20949  14.409   4.354  12.044  0.0409 -0.1169 -0.1520
 4476W        W20950   3.860  11.835   2.209  0.0732  0.3311 -0.1093
 4477W        W20951  13.265  18.475   1.709  0.1615  0.2151  0.0218
 4478W        W20952   3.585  12.158  13.754  0.0048 -0.0312  0.0436
 4479W        W20953  18.878  15.828   3.917 -0.0042 -0.1215  0.3740
 4480W        W20954  14.600  14.809   0.571  0.0119  0.1232  0.2922
 4481W        W20955   4.912  13.565   2.064 -0.0668  0.0695 -0.0881
 4482W        W20956   5.834  13.246  10.758  0.1467 -0.2265 -0.2062
 4483W        W20957   6.466   4.064   2.914 -0.1338 -0.1492  0.0084
 4484W        W20958   1.105  18.219  12.974 -0.2402 -0.2041 -0.0813
 4485W        W20959   7.310  17.720  13.279 -0.1550  0.0353 -0.0628
 4486W        W20960   8.471   7.416   0.777 -0.1052  0.0800 -0.0946
 4487W        W20961  15.168  18.383   1.368  0.4476 -0.0966 -0.0533
 4488W        W20962   8.530   9.646  12.113  0.0409  0.1710  0.2795
 4489W        W20963   4.426   3.394   1.836 -0.0040 -0.1403 -0.1796
 4490W        W20964   5.090   9.267   1.342  0.0970 -0.0051 -0.1752
 4491W        W20965  17.517   4.832   1.176  0.0644 -0.1505  0.0574
 4492W        W20966   8.973   2.414   4.774  0.1188  0.0365  0.0099
 4493W        W20967  10.148   7.755  14.404 -0.0353  0.0757  0.1041
 4494W        W20968  15.825   3.660   4.481  0.0243 -0.2622 -0.0215
 4495W        W20969  18.010   3.994   1.109 -0.0653  0.2490  0.0981
 4496W        W20970   8.579   4.756  12.932 -0.1348 -0.0774  0.0138
 4497W        W20971  15.643   2.440  12.949 -0.1961  0.1451 -0.0318
 4498W        W20972   8.714   1.174  12.505 -0.3256  0.6859 -0.2737
 4499W        W20973   8.157   0.313   1.967 -0.0635 -0.3750 -0.4847
 4500W        W20974   8.855   6.715   3.065  0.0363  0.3792  0.0969
 4501W        W20975  15.616   0.080   1.894 -0.0954 -0.1207  0.0818
 4502W        W20976  18.320   6.137  12.522  0.0182  0.1176 -0.0241
 4503W        W20977   9.053  15.854   0.108  0.1610  0.1790  0.0987
 4504W        W20978  14.686  12.493  11.915 -0.1042 -0.0578 -0.0916
 4505W        W20979  15.849   1.595   4.634  0.2406  0.2457 -0.0006
 4506W        W20980   0.686  16.628  11.577  0.0559  0.0366  0.1797
 4507W        W20981   9.430   2.559   4.817  0.0631  0.0408 -0.3013
 4508W        W20982   1.200   2.489  11.665 -0.1552  0.1663  0.0451
 4509W        W20983   4.588   3.929   2.214 -0.0819  0.0756 -0.0859
 4510W        W20984   4.738   0.028   2.388 -0.0794  0.1694  0.1304
 4511W        W20985   8.515   9.926   9.721  0.1133  0.0810 -0.0708
 4512W        W20986  18.946  12.924   1.261  0.0691  0.0355  0.1033
 4513W        W20987  17.595   6.701  12.558  0.1277 -0.0833  0.2234
 4514W        W20988   2.481   8.177   3.187  0.0182  0.1216 -0.2557
 4515W        W20989  13.657  17.735  13.406  0.2289 -0.1652 -0.0145
 4516W        W20990  14.512   5.781   2.050 -0.0228 -0.0387  0.0838
 4517W        W20991  13.524  13.641   2.637  0.2120 -0.0603  0.2254
 4518W        W20992  10.848  15.591   5.167 -0.3541 -0.0477 -0.1596
 4519W        W20993  15.450   7.789   9.405 -0.1936 -0.0668 -0.0587
 4520W        W20994   2.057   0.659   3.321 -0.3781 -0.0875  0.1147
 4521W        W20995   1.943  18.529   3.834 -0.0109  0.2768 -0.0336
 4522W        W20996  14.567  14.179   3.774 -0.0611 -0.2870  0.2705
 4523W        W20997   6.085  14.984   1.182 -0.3740 -0.2793 -0.0343
 4524W        W20998  13.467   2.793   3.735  0.0144  0.0748  0.0646
 4525W        W20999   0.295  15.943   0.420 -0.0237 -0.1779 -0.0985
 4526W        W21000   9.110  14.817  12.126  0.1061  0.0591 -0.1321
 4527W        W21001   5.055   9.769   1.332 -0.3435 -0.2369 -0.2759
 4528W        W21002   2.800   6.535  11.081 -0.1288 -0.1651  0.3318
 4529W        W21003  14.633  16.827   2.913  0.3369 -0.0515  0.3965
 4530W        W21004   2.362  14.382   1.775 -0.0961  0.0889 -0.0039
 4531W        W21005  11.018   0.119  13.505  0.0971  0.0683 -0.0765
 4532W        W21006   1.027  10.063   0.686  0.0801 -0.0955  0.2062
 4533W        W21007   0.479  18.266   1.982  0.2149 -0.3627 -0.2397
 4534W        W21008   4.914  16.641   2.576  0.1107 -0.0940 -0.1459
 4535W        W21009  18.757  10.244  10.648 -0.4077  0.0929 -0.1113
 4536W        W21010  11.836   7.403   3.947 -0.0272  0.1635  0.0836
 4537W        W21011   1.122   4.912   2.102  0.0123  0.0745  0.1886
 4538W        W21012   5.711  15.130  14.385  0.0231  0.2810  0.0170
 4539W        W21013   4.288   0.781   9.527  0.1589  0.0751  0.1998
 4540W        W21014   3.254  13.418  12.165  0.0340  0.1472 -0.3397
 4541W        W21015  14.318  11.469  13.662  0.0699 -0.2505 -0.4157
 4542W        W21016   2.929  17.947  14.596  0.1643  0.2254 -0.0624
 4543W        W21017   5.467   3.505   1.423 -0.0542  0.2506 -0.1391
 4544W        W21018  12.455  18.533   4.299  0.5079  0.3223 -0.0144
 4545W        W21019   0.070   3.585  10.553  0.1831 -0.0094 -0.0907
 4546W        W21020   2.322   6.369  12.218  0.3791 -0.4069  0.1489
 4547W        W21021  11.104   6.388   0.312  0.0360 -0.0928  0.0790
 4548W        W21022  16.533   6.341   4.948  0.2267 -0.1298 -0.5597
 4549W        W21023  17.990   7.242   1.778  0.0821  0.3248  0.0467
 4550W        W21024   1.774  18.362   2.545 -0.1359 -0.1277  0.1274
 4551W        W21025   9.197  19.262   0.923  0.0204  0.1105  0.1228
 4552W        W21026   8.935  10.223  12.708  0.1916 -0.3298  0.2885
 4553W        W21027  14.155   2.158   5.311  0.1054  0.0066 -0.0581
 4554W        W21028   8.977  15.947  13.754 -0.0608 -0.0577 -0.0603
 4555W        W21029   6.151  18.645   3.233  0.1186  0.2087  0.1554
 4556W        W21030   8.674  10.772  11.693 -0.1364 -0.1613  0.1769
 4557W        W21031  10.983  14.162   0.900 -0.2265 -0.0971  0.1001
 4558W        W21032  11.215  10.625   0.863  0.2419 -0.3253 -0.1688
 4559W        W21033  18.006  19.484  12.131  0.0734  0.1280 -0.5004
 4560W        W21034  17.237  15.258   1.315  0.3791 -0.0770 -0.1425
 4561W        W21035   8.913  15.825  13.276 -0.0823 -0.1192  0.0757
 4562W        W21036   9.886  18.674   5.738  0.1980 -0.0180 -0.0012
 4563W        W21037   3.905   7.510  13.659 -0.1158 -0.1149  0.0256
 4564W        W21038  18.823   4.759   3.152  0.3152  0.3880  0.1938
 4565W        W21039  11.962  16.329   3.490  0.1727  0.4093  0.1568
 4566W        W21040   6.191   5.559  12.803 -0.0200 -0.0001  0.3211
 4567W        W21041   7.289  14.467  11.690  0.2819 -0.3678  0.3830
 4568W        W21042   6.125   9.137  14.582  0.3380 -0.0412 -0.1553
 4569W        W21043  13.009   5.980  14.442  0.1086 -0.3000 -0.0641
 4570W        W21044   5.562  11.186  11.572  0.0653 -0.1946 -0.0435
 4571W        W21045   8.865   9.733   2.667  0.0625 -0.1783  0.1139
 4572W        W21046   0.443  11.920  10.933 -0.1102  0.0117  0.3043
 4573W        W21047  12.636   0.622   4.205  0.0610  0.0983 -0.0387
 4574W        W21048  11.957  17.559   3.403  0.2934 -0.1373 -0.0349
 4575W        W21049  15.731  11.346  11.679  0.0893 -0.2690 -0.0580
 4576W        W21050   8.901  17.162  14.520 -0.3645  0.3340  0.2309
 4577W        W21051   7.562  12.018   4.754 -0.0392  0.2512  0.0767
 4578W        W21052   6.875  17.331  12.467  0.1138  0.1315 -0.2123
 4579W        W21053  14.554  14.348  13.108 -0.1475  0.0183 -0.0678
 4580W        W21054  13.148  11.250  11.746  0.0607 -0.0817 -0.2613
 4581W        W21055  14.743   0.895  11.758 -0.0891 -0.0246  0.1388
 4582W        W21056   6.632  15.725   2.465  0.0368 -0.2074  0.1742
 4583W        W21057   4.148   6.397   3.126 -0.0982 -0.1919 -0.2060
 4584W        W21058   1.703   3.345  14.027 -0.1803  0.1452 -0.0785
 4585W        W21059  19.133   9.143   1.165  0.2414  0.2093 -0.3859
 4586W        W21060   9.969   6.195   3.070  0.3110 -0.1566  0.0155
 4587W        W21061   2.696  12.080   0.244 -0.2417  0.0646  0.0478
 4588W        W21062  11.950  13.914  14.523 -0.0535 -0.0714  0.1417
 4589W        W21063   9.074  18.659  10.600 -0.0457  0.2052 -0.1011
 4590W        W21064  16.798   1.248  13.728  0.3078 -0.3171 -0.2074
 4591W        W21065  16.093  12.800   5.070 -0.2740  0.4822 -0.0970
 4592W        W21066   8.798  12.805  14.543 -0.2322 -0.0009  0.2824
 4593W        W21067  11.753   9.189  12.707 -0.0658  0.1553  0.0949
 4594W        W21068  15.885   2.359  12.314  0.3367 -0.0710 -0.0472
 4595W        W21069   0.170  14.028   0.813 -0.0230 -0.3943  0.0958
 4596W        W21070   2.209   1.111   2.538  0.2780  0.2883 -0.1597
 4597W        W21071   0.104   2.232   2.602 -0.2502 -0.2058 -0.0985
 4598W        W21072  13.062  17.142   2.084 -0.1181  0.2770  0.1969
 4599W        W21073  19.439  17.437  14.161 -0.1854  0.0336  0.1194
 4600W        W21074   9.312  17.565  12.459 -0.0144 -0.0223  0.1040
 4601W        W21075   3.776   5.397   4.770  0.0255 -0.0878 -0.1019
 4602W        W21076   6.139   9.493   2.809  0.0827  0.1603 -0.0984
 4603W        W21077   3.323  19.244   0.890  0.1696 -0.1002  0.2453
 4604W        W21078  10.600  13.553   5.225 -0.1062  0.2351 -0.0708
 4605W        W21079  14.800   1.344  10.643  0.2996  0.2173 -0.1086
 4606W        W21080   4.546   3.977   3.441  0.0099 -0.2490 -0.0781
 4607W        W21081  17.770  13.249   2.596  0.0070 -0.1634 -0.2531
 4608W        W21082  18.537  12.710   3.678 -0.2213 -0.0748 -0.1523
 4609W        W21083   8.322  10.088   3.724 -0.0388  0.0786 -0.3004
 4610W        W21084   1.529  19.400  11.855 -0.1571  0.1526 -0.1008
 4611W        W21085   2.543   5.824   3.670  0.5394  0.1592 -0.0523
 4612W        W21086  19.553   0.091  14.398  0.1816  0.0541  0.1767
 4613W        W21087   7.326   8.356   3.844  0.1330 -0.0965  0.0054
 4614W        W21088   7.785   3.500  11.136  0.1703  0.0929  0.0286
 4615W        W21089   7.550   4.835   2.240 -0.3938  0.0609 -0.0583
 4616W        W21090   7.983  17.495   1.979  0.1094  0.0847 -0.1061
 4617W        W21091   4.732   5.793  12.586 -0.1747 -0.2138 -0.1367
 4618W        W21092  10.597   5.117  11.084  0.1205 -0.1693  0.3313
 4619W        W21093  17.525   9.772  13.634  0.1086 -0.3624 -0.5277
 4620W        W21094  17.259  10.269   1.383 -0.2808  0.1029 -0.2020
 4621W        W21095  13.661   8.985  13.166 -0.0896 -0.1113  0.0116
 4622W        W21096   1.794  16.751  12.721  0.1847  0.0494 -0.0368
 4623W        W21097  14.488  16.509  11.287 -0.2356  0.0028 -0.0029
 4624W        W21098  10.734  17.496   4.644  0.0216 -0.1972 -0.0361
 4625W        W21099  10.442  16.426   4.035  0.1047 -0.0134  0.3059
 4626W        W21100  10.256   3.777  11.127 -0.0864 -0.1429 -0.1377
 4627W        W21101   1.248   0.047  13.684  0.1816 -0.1971  0.1752
 4628W        W21102  16.361  15.725   0.426  0.1673 -0.1202  0.1796
 4629W        W21103   6.706   0.922   3.520 -0.0437  0.1265  0.0453
 4630W        W21104   3.124   9.931   2.571  0.2086 -0.0462 -0.3237
 4631W        W21105  10.928   1.231   0.363  0.4205 -0.2436  0.0228
 4632W        W21106   4.802  11.534  14.143 -0.1860  0.1198 -0.0753
 4633W        W21107   9.433  16.996   4.404 -0.0051  0.0551  0.1230
 4634W        W21108   2.899  16.879   4.149  0.0143  0.0777 -0.1407
 4635W        W21109  10.989   8.807   1.689  0.2629  0.1741 -0.0451
 4636W        W21110  16.148   0.212   0.980  0.1874 -0.1481  0.3720
 4637W        W21111  11.455   3.687  13.553  0.0727 -0.1342 -0.3805
 4638W        W21112   8.382  14.166  10.621 -0.2796 -0.1674  0.0682
 4639W        W21113  14.492   4.884   2.535  0.3575  0.0142  0.2146
 4640W        W21114  11.822   9.080   1.134 -0.1137  0.2877  0.0766
 4641W        W21115   7.497  10.047  14.498  0.1878 -0.1577  0.1533
 4642W        W21116  17.857   9.757  10.728  0.0465 -0.1099  0.2454
 4643W        W21117  13.709   0.971   2.570  0.0676  0.1815  0.0192
 4644W        W21118  15.698   7.667   3.396  0.2112  0.1680 -0.3181
 4645W        W21119  10.920   8.144   2.299  0.1981 -0.0072  0.1100
 4646W        W21120   7.471   3.722   9.686 -0.1292 -0.0134 -0.0043
 4647W        W21121   1.021  14.661   4.573  0.2105 -0.2972  0.1397
 4648W        W21122  15.013   7.571  10.285 -0.0832  0.0035 -0.0029
 4649W        W21123  19.158   2.532  10.866 -0.2885 -0.0154  0.4522
 4650W        W21124   1.460  13.715  10.254  0.1246 -0.0283 -0.0558
 4651W        W21125   7.049   7.632  13.745  0.0876 -0.0900  0.1003
 4652W        W21126  16.918  12.895  12.343  0.1405  0.1322 -0.0195
 4653W        W21127  11.548   1.061  14.297 -0.1643  0.0386  0.0450
 4654W        W21128  10.660   4.306  10.516  0.1452 -0.0020  0.2041
 4655W        W21129  16.612  17.220  12.858  0.1553  0.1154 -0.0477
 4656W        W21130   3.612   9.135  13.764 -0.4059  0.0910  0.1620
 4657W        W21131  17.988  10.027  11.560  0.4196 -0.1537 -0.0815
 4658W        W21132   0.746   9.563  13.835 -0.1308 -0.1626  0.0784
 4659W        W21133   9.881   1.246  13.294 -0.0712  0.1248 -0.0167
 4660W        W21134   6.228  15.236  10.289 -0.2882  0.0263 -0.0310
 4661W        W21135  19.131   4.670  12.932 -0.6847  0.1108  0.2100
 4662W        W21136   7.994  18.661   4.130  0.3014 -0.2016 -0.0439
 4663W        W21137   4.853   6.071   9.971 -0.0461  0.3904 -0.1722
 4664W        W21138   3.184  15.362  10.612 -0.0022  0.1933 -0.1933
 4665W        W21139   3.193   1.674   1.704 -0.0511 -0.0817 -0.2629
 4666W        W21140  18.200   8.349  13.533 -0.1615  0.0398 -0.1940
 4667W        W21141   4.020   9.452   5.263 -0.2440 -0.1282  0.5212
 4668W        W21142  18.928  19.579   1.410  0.1098  0.1652  0.1601
 4669W        W21143  14.804  13.606   2.456  0.0685  0.0294  0.1426
 4670W        W21144  12.377   7.564   2.302  0.0283 -0.2152  0.0275
 4671W        W21145   0.490   1.439  12.700 -0.1209 -0.4573  0.0357
 4672W        W21146   7.532   4.782  10.922 -0.2052  0.1615 -0.0126
 4673W        W21147   3.145   8.252  13.666 -0.2443 -0.1092 -0.0959
 4674W        W21148   6.497  14.032   4.231 -0.0246  0.2908 -0.1822
 4675W        W21149  11.796   4.105   9.033  0.0403  0.1001 -0.1273
 4676W        W21150  12.578  12.353  13.397 -0.2653  0.3676 -0.0661
 4677W        W21151  18.891  10.900   2.137  0.3620  0.2345 -0.2129
 4678W        W21152   7.464   4.642  13.226 -0.3633 -0.2706 -0.2604
 4679W        W21153   4.229   8.876   4.356  0.0372 -0.1190 -0.1587
 4680W        W21154  10.932  11.666   1.037  0.0785  0.0528  0.0725
 4681W        W21155   6.340   5.852   0.996  0.2171  0.1550 -0.0084
 4682W        W21156   2.570  12.875  14.451 -0.0504 -0.1618  0.1395
 4683W        W21157   0.935  18.657  13.085  0.1833 -0.0460  0.2076
 4684W        W21158  15.204  12.131   1.286  0.2939  0.1141 -0.1203
 4685W        W21159  18.655   5.795   2.026  0.3825 -0.0651 -0.2348
 4686W        W21160  18.301  12.553   9.466  0.1730  0.2001  0.0694
 4687W        W21161   4.371  19.530  11.117 -0.0483 -0.2617  0.4982
 4688W        W21162  16.926   6.841  11.837  0.0690  0.0944  0.0295
 4689W        W21163   3.474  11.783   1.378  0.1937 -0.1413  0.2102
 4690W        W21164   4.403   7.508  10.514 -0.1761 -0.0343 -0.2161
 4691W        W21165   2.383  15.848  10.345  0.1840  0.0083 -0.1542
 4692W        W21166  16.143   8.710  13.999  0.0309  0.2224  0.0073
 4693W        W21167  15.590  10.320   5.287  0.3475  0.2112 -0.1247
 4694W        W21168  14.677   7.754  14.230  0.0040 -0.3400 -0.2911
 4695W        W21169   4.310   4.479  11.930 -0.0552  0.0435  0.0869
 4696W        W21170   8.405  16.469   1.345 -0.0795 -0.0539  0.1711
 4697W        W21171  11.385  14.342   4.145 -0.4123 -0.0950 -0.1876
 4698W        W21172  18.303   5.667  11.332  0.4027  0.0499  0.1062
 4699W        W21173   6.585   3.630  12.009  0.2148  0.0416  0.0017
 4700W        W21174   8.199   1.373   4.156 -0.2437 -0.1847  0.3798
 4701W        W21175  18.069   5.106   0.387  0.2951 -0.0177 -0.2280
 4702W        W21176  19.609  10.667   1.691  0.1900  0.0816  0.0728
 4703W        W21177  16.926  16.786   1.397 -0.0174 -0.0540  0.1934
 4704W        W21178   2.087   3.521   0.538 -0.0458  0.0724  0.0196
 4705W        W21179  16.714   9.236   2.959 -0.1427 -0.0194  0.2919
 4706W        W21180  14.566  19.223   1.493  0.0613 -0.0488 -0.1299
 4707W        W21181  16.717   8.115   4.652  0.1878 -0.0456  0.0529
 4708W        W21182   9.617  11.004   4.129  0.2621  0.0362 -0.1217
 4709W        W21183   8.317  11.648   2.633  0.2179  0.3579 -0.1969
 4710W        W21184  14.383  11.493  11.525  0.0177 -0.0577  0.0343
 4711W        W21185   5.521   9.622   4.005  0.1338  0.0251 -0.0381
 4712W        W21186  11.711   8.530  13.644 -0.2356  0.0038 -0.2953
 4713W        W21187  17.538  17.027  14.436  0.0550  0.1419 -0.0960
 4714W        W21188  12.378  14.842   3.595  0.3585  0.3387  0.0788
 4715W        W21189   9.316   2.574  13.183  0.1716 -0.0401  0.1070
 4716W        W21190   7.925  17.177   4.000  0.0537 -0.2655 -0.2327
 4717W        W21191  10.980   7.627  13.949 -0.1031  0.0299 -0.2851
 4718W        W21192  14.837  18.193  14.252 -0.2309  0.1986  0.2613
 4719W        W21193  13.208  15.221   0.629 -0.1461 -0.1533 -0.0990
 4720W        W21194  17.375  12.875  12.107 -0.2793 -0.4515  0.3297
 4721W        W21195   1.269   8.327   0.396 -0.0821  0.3049 -0.5322
 4722W        W21196  17.465   2.443   4.510 -0.1146  0.2027  0.0744
 4723W        W21197  15.696  18.192  11.813  0.1524  0.1884 -0.0578
 4724W        W21198   1.428  18.615  12.960  0.2122  0.0682  0.0122
 4725W        W21199   6.263   5.105  14.224 -0.3751 -0.0303  0.1506
 4726W        W21200   4.993   7.395   0.628 -0.1449 -0.0126  0.1078
 4727W        W21201  16.191   3.948   4.101  0.0807 -0.0223 -0.0846
 4728W        W21202  18.656  12.994  14.649  0.4912  0.0235 -0.3069
 4729W        W21203  15.829   3.769   0.558 -0.1236  0.0326  0.0300
 4730W        W21204   1.150  14.487   1.472 -0.2076  0.5129  0.1716
 4731W        W21205  19.614   6.522  14.592  0.1237  0.3336  0.2207
 4732W        W21206   8.572  11.955   0.458 -0.1735 -0.0972  0.1468
 4733W        W21207  11.562  10.309   1.789 -0.1729 -0.0994  0.1143
 4734W        W21208   9.324   8.424  10.511  0.0466 -0.2013 -0.1569
 4735W        W21209  12.902  16.954  11.816  0.1611 -0.4553 -0.0707
 4736W        W21210  16.546   8.122   1.719 -0.2311 -0.1629  0.2557
 4737W        W21211  14.613  10.854  12.245 -0.1335  0.0420  0.0646
 4738W        W21212   4.156  18.383   3.593 -0.0273  0.0270  0.3355
 4739W        W21213   6.554   9.289   4.107 -0.2024  0.1251 -0.0380
 4740W        W21214  18.996   3.963   2.802 -0.0632  0.1609 -0.2654
 4741W        W21215   4.803   3.064  14.207  0.0519 -0.4731  0.2714
 4742W        W21216   8.366  10.127   5.289  0.1796  0.0460 -0.1807
 4743W        W21217  15.885   8.533   1.239  0.3127  0.1134 -0.0751
 4744W        W21218   1.931   2.112  10.907  0.3061  0.0394  0.2727
 4745W        W21219   1.091   3.367   3.709  0.2552  0.2749 -0.0589
 4746W        W21220  12.449  12.784  11.989  0.2180 -0.2123  0.3233
 4747W        W21221  19.577  15.850  10.846 -0.0096 -0.2017  0.2027
 4748W        W21222   0.069   8.224   4.130 -0.0560  0.0975 -0.1496
 4749W        W21223  18.544   6.611   2.267 -0.2891 -0.1542  0.0598
 4750W        W21224   7.815  16.234  14.420 -0.5128 -0.2092 -0.0340
 4751W        W21225   6.490   7.183   3.733 -0.1020  0.0919  0.2588
 4752W        W21226  17.647  12.056   3.391  0.0744  0.1563  0.0149
 4753W        W21227  16.230  14.150   2.989 -0.3197  0.0706 -0.0500
 4754W        W21228  11.744   7.920   9.365  0.1225 -0.3739  0.1195
 4755W        W21229  15.559  19.311  14.432 -0.0730 -0.2603 -0.0122
 4756W        W21230  14.970   2.266   1.204  0.2279 -0.5601  0.1083
 4757W        W21231   9.716   5.161  11.833  0.1480  0.0563 -0.1846
 4758W        W21232   8.252   2.849   4.200  0.0570 -0.1374  0.2464
 4759W        W21233   4.686  13.685  12.684 -0.1816  0.2509 -0.1735
 4760W        W21234   8.834   2.681   2.192 -0.1502  0.0621  0.0557
 4761W        W21235   1.127   1.599   4.908  0.1403 -0.1242 -0.0965
 4762W        W21236   3.251  10.252   9.974 -0.3156  0.1643 -0.1266
 4763W        W21237  19.371  11.060   2.439  0.0498 -0.0919 -0.2208
 4764W        W21238   8.767   5.436   2.633 -0.1006  0.0384 -0.1177
 4765W        W21239   7.935   3.139   1.717 -0.1683  0.1795 -0.0390
 4766W        W21240  12.318   1.405   2.926  0.3988 -0.3179 -0.0289
 4767W        W21241  16.085  16.866   1.422  0.2717  0.0355  0.0198
 4768W        W21242  15.713   7.375   0.176  0.1736 -0.0286 -0.2672
 4769W        W21243   7.099  12.829  14.467  0.0921 -0.1732  0.0443
 4770W        W21244   3.702   6.891   2.693  0.0204  0.0399 -0.2630
 4771W        W21245  17.203  13.442  13.865 -0.0016 -0.0841  0.1130
 4772W        W21246   0.431   6.646   1.988 -0.3574 -0.1218 -0.1258
 4773W        W21247   0.814   6.688  11.456  0.1548 -0.2405  0.1730
 4774W        W21248  15.384  10.391  14.482  0.1925 -0.3118 -0.0218
 4775W        W21249  13.452  10.388   3.445 -0.0056  0.0394 -0.1216
 4776W        W21250   2.673   4.214   3.190 -0.2009  0.0101  0.2962
 4777W        W21251   7.961  18.621  12.388  0.0838 -0.0656 -0.0738
 4778W        W21252   5.141  10.637  12.837 -0.1910  0.0793  0.0236
 4779W        W21253  12.184  11.072  12.523 -0.2202 -0.1822  0.0230
 4780W        W21254   7.440  15.967   3.022  0.0556  0.2674  0.1536
 4781W        W21255  19.136   7.772  12.522 -0.0338  0.0740  0.1226
 4782W        W21256   7.417  17.790  11.948 -0.1638  0.0574 -0.0933
 4783W        W21257   8.383  10.044  11.817  0.5367 -0.1524 -0.0522
 4784W        W21258  11.320   3.042  11.876  0.3017  0.1648  0.2107
 4785W        W21259   0.179  10.231  10.901  0.2008 -0.2272 -0.5762
 4786W        W21260   9.018  18.880  13.997 -0.0603  0.1299  0.2032
 4787W        W21261   7.810   4.997   3.625  0.0776  0.2477 -0.1524
 4788W        W21262  13.068  18.570  10.818 -0.0959 -0.1060 -0.1288
 4789W        W21263  19.301  11.444   0.535  0.1952 -0.0335 -0.0248
 4790W        W21264   8.334  12.183   1.693  0.1659  0.0581 -0.3287
 4791W        W21265   7.595   4.283   3.006  0.2212 -0.0615  0.2427
 4792W        W21266   8.750   7.466   4.907  0.2286 -0.3120  0.0361
 4793W        W21267  10.674   0.360   3.492 -0.0809  0.2966 -0.1098
 4794W        W21268   3.749  16.567  10.310 -0.3433  0.1649 -0.0609
 4795W        W21269  16.917   3.328   0.012 -0.0325  0.2979  0.4012
 4796W        W21270   6.859  16.902   5.063 -0.3140  0.0334 -0.4573
 4797W        W21271  13.652  10.749  14.233  0.0591 -0.2431  0.0634
 4798W        W21272  16.120   3.274  11.819 -0.2259 -0.1197 -0.2808
 4799W        W21273  10.772   7.292  14.602 -0.2656  0.2791 -0.0715
 4800W        W21274   0.914   6.357   4.455  0.4066 -0.1244  0.0939
 4801W        W21275   0.226   1.620   4.743  0.1910  0.2066 -0.0449
 4802W        W21276   7.905   5.638  11.083 -0.1685  0.1065  0.0583
 4803W        W21277   3.712   8.319  11.397  0.5918  0.0081  0.1565
 4804W        W21278  19.370  10.271  12.304 -0.0561 -0.3266 -0.1958
 4805W        W21279   8.333  18.596   0.175 -0.2683 -0.0189 -0.0083
 4806W        W21280  13.110  12.313   1.585  0.1599 -0.1545 -0.0503
 4807W        W21281  12.179   9.301   9.720  0.0928 -0.0420  0.3007
 4808W        W21282  19.244   3.608  12.166  0.3838  0.1410  0.5274
 4809W        W21283   8.912  12.037  10.459  0.2592 -0.3590  0.2265
 4810W        W21284   6.741  18.564   4.679  0.2488 -0.0495 -0.0671
 4811W        W21285   2.412   1.749   0.455 -0.1337  0.2110 -0.2024
 4812W        W21286   7.995  17.074  13.334  0.1318 -0.4132 -0.0459
 4813W        W21287  10.731   6.563  10.517 -0.0823  0.0562  0.2152
 4814W        W21288   4.386   8.635   9.818  0.3236  0.0426  0.0443
 4815W        W21289   0.332   2.438  13.031  0.1083  0.2074  0.0150
 4816W        W21290   6.658   7.383  13.790 -0.1063  0.3599  0.1318
 4817W        W21291  18.597   9.468   0.042 -0.1194  0.0929  0.1939
 4818W        W21292   2.278   9.284  14.316  0.2072 -0.1857 -0.3717
 4819W        W21293   8.321  19.266  11.372 -0.3232 -0.0208 -0.0468
 4820W        W21294   5.089   2.542   5.121  0.2287  0.2467  0.0512
 4821W        W21295  18.423  11.831   3.065  0.0131  0.1415 -0.2672
 4822W        W21296   6.258   1.660   9.628 -0.0634 -0.0540 -0.2744
 4823W        W21297   5.163   5.522   2.235 -0.3571 -0.2187 -0.2389
 4824W        W21298  10.238  16.120   1.471  0.2817  0.1870 -0.2618
 4825W        W21299  19.435  11.355  14.452  0.0156 -0.1944  0.1179
 4826W        W21300   4.680   9.243  13.428  0.2142  0.0586  0.1069
 4827W        W21301   9.424  14.677   1.490  0.0557 -0.2197  0.1182
 4828W        W21302  18.212  17.359  14.666 -0.0789  0.2259 -0.4814
 4829W        W21303  15.881   5.940   5.344 -0.1933  0.0281  0.1308
 4830W        W21304  12.848  11.572   5.091  0.0841 -0.1715  0.1715
 4831W        W21305  14.757  10.530   0.265 -0.1527 -0.1845 -0.5727
 4832W        W21306  16.885   6.984  13.451  0.3137  0.2825  0.1930
 4833W        W21307  17.441   2.952   4.151 -0.0533  0.0575  0.1420
 4834W        W21308   6.819  16.370   0.743  0.0690  0.3551 -0.2990
 4835W        W21309  12.698   2.161   9.924 -0.0199 -0.0401 -0.1378
 4836W        W21310  18.624  11.367  14.289 -0.0110  0.0120 -0.1743
 4837W        W21311   1.304  11.471   5.362  0.4610 -0.0569 -0.4240
 4838W        W21312  15.859   7.232  13.288  0.3516 -0.6328 -0.2594
 4839W        W21313   7.515  15.821   4.234  0.0788 -0.3547  0.0708
 4840W        W21314   9.661   6.886   1.732 -0.0361 -0.1556  0.1763
 4841W        W21315   5.478  12.879   4.787 -0.1564  0.0495 -0.0991
 4842W        W21316  15.364   5.298  13.333 -0.2920  0.2766 -0.0590
 4843W        W21317  16.563  10.799  12.566  0.1363  0.3489 -0.1994
 4844W        W21318  12.322  12.694   3.760 -0.0154 -0.1339 -0.0170
 4845W        W21319  14.296   2.191  11.062  0.0106  0.3104  0.1685
 4846W        W21320  18.923  18.710   1.878  0.0501 -0.5574  0.0220
 4847W        W21321   5.623   1.174   4.211  0.2811 -0.0302 -0.3762
 4848W        W21322   9.304  18.556   3.254 -0.1022 -0.0239  0.0140
 4849W        W21323   9.573  11.258   0.221 -0.0825 -0.1305 -0.3220
 4850W        W21324   0.046   0.377   4.737  0.0870 -0.0939 -0.0504
 4851W        W21325  12.837   8.519  10.222  0.1972  0.1428  0.0988
 4852W        W21326   0.690   0.287   0.975  0.4986 -0.1508 -0.2872
 4853W        W21327  14.362   8.020   2.220  0.0102  0.2970  0.1661
 4854W        W21328   8.704  16.685  10.351  0.2909 -0.0760 -0.1351
 4855W        W21329   8.308  13.127   1.872 -0.1647 -0.2943 -0.0564
 4856W        W21330   7.316   3.886   5.120 -0.1787 -0.2303 -0.1774
 4857W        W21331  15.018  11.099   1.372 -0.3485 -0.0636 -0.2036
 4858W        W21332   8.434  17.551  10.608  0.0030  0.1271 -0.4113
 4859W        W21333   3.339  16.729  10.085  0.4974 -0.0664  0.0594
 4860W        W21334   2.982   5.228   1.758 -0.0702 -0.0644 -0.1595
 4861W        W21335   5.750   5.095  11.882 -0.0190 -0.0850  0.1266
 4862W        W21336  17.126  13.029   3.704 -0.0345 -0.0187  0.1133
 4863W        W21337   1.064   3.762   1.222 -0.0205  0.1613  0.0759
 4864W        W21338   5.204  12.444  12.903 -0.0146 -0.3636 -0.2103
 4865W        W21339   5.725  13.389   0.049  0.0903 -0.0181  0.2478
 4866W        W21340   0.440   4.146  12.255  0.3355  0.0349  0.0589
 4867W        W21341   1.328  18.775   4.491 -0.1744 -0.1757  0.0747
 4868W        W21342   7.567  13.211   0.607  0.4245  0.2121 -0.3583
 4869W        W21343   5.656   6.711   1.449  0.0817 -0.0206 -0.0819
 4870W        W21344  14.557   1.581  10.217 -0.0775  0.0361  0.1311
 4871W        W21345   5.144  11.097  14.247  0.1161 -0.1116  0.0302
 4872W        W21346  14.654  10.632  11.789 -0.1314 -0.1423 -0.1109
 4873W        W21347  11.983   9.428   1.861  0.0465 -0.0403 -0.1764
 4874W        W21348  15.132  18.584   1.877  0.2405 -0.2511  0.2537
 4875W        W21349   5.705   6.150   8.941  0.0182 -0.3224  0.0084
 4876W        W21350  14.060   4.543  14.288 -0.0383  0.2260 -0.0156
 4877W        W21351  19.196  13.291   2.155 -0.0137 -0.1460 -0.1655
 4878W        W21352  17.946   0.452   3.393 -0.1747  0.0618  0.2633
 4879W        W21353   6.390   2.149   3.172  0.0939 -0.0752 -0.1015
 4880W        W21354  18.006  11.716   1.104 -0.2053 -0.1044 -0.1363
 4881W        W21355  10.246  19.129  11.174 -0.2005  0.1694 -0.4458
 4882W        W21356   8.507  12.432  12.057 -0.0744 -0.0090  0.1993
 4883W        W21357   3.586   0.067   2.517 -0.2129 -0.5437 -0.3527
 4884W        W21358   0.409  12.950  12.781  0.0371 -0.2095  0.1019
 4885W        W21359  10.157   3.374   2.920  0.0585  0.1786  0.0984
 4886W        W21360  11.135   4.531  13.253  0.1121 -0.2847 -0.4030
 4887W        W21361   4.664   9.900   1.100 -0.3176  0.2397  0.1405
 4888W        W21362   8.711   8.210   4.165 -0.0861 -0.1259  0.0364
 4889W        W21363  17.770   8.203   1.453  0.2152 -0.2486  0.0451
 4890W        W21364   5.559   7.952  12.879 -0.1120  0.1029  0.0476
 4891W        W21365  14.603   6.409   0.179 -0.1544 -0.0663 -0.1553
 4892W        W21366   3.569   7.749   3.341  0.0587 -0.1541 -0.2264
 4893W        W21367  13.952  14.114  11.300 -0.0025 -0.1923 -0.1806
 4894W        W21368  15.464  15.949  13.879  0.0111  0.1929  0.1271
 4895W        W21369  16.140   7.134   1.396  0.2071  0.0848  0.1807
 4896W        W21370   8.079   8.601   2.225 -0.1139 -0.1358  0.2905
 4897W        W21371   5.128  16.280  14.468 -0.0409 -0.2552  0.0625
 4898W        W21372  14.487  17.839  10.709  0.1858 -0.0929 -0.0887
 4899W        W21373  13.233   1.877  11.909  0.1579 -0.1438 -0.2389
 4900W        W21374   9.802   8.708  13.712  0.1865  0.0373 -0.2103
 4901W        W21375   2.366  17.633   3.894 -0.1479  0.1427 -0.0997
 4902W        W21376  16.193   6.324  11.055 -0.2732  0.0155  0.5973
 4903W        W21377   5.155  12.700  14.653 -0.0755  0.1447  0.1140
 4904W        W21378   3.811  10.474  14.524  0.1864 -0.0631  0.1134
 4905W        W21379  10.297   0.552   9.172 -0.1678  0.2766  0.5181
 4906W        W21380   2.992   1.284   0.758 -0.0811  0.0309 -0.1719
 4907W        W21381   2.713  12.096   1.154 -0.0349 -0.0012 -0.1836
 4908W        W21382  18.548  13.891   2.150 -0.0775  0.0365 -0.1384
 4909W        W21383   1.158   6.965   5.045  0.1123 -0.1332  0.0675
 4910W        W21384   7.419  16.237  13.313 -0.2395  0.1207 -0.2805
 4911W        W21385   9.802  17.092  14.401  0.0779  0.0270  0.0628
 4912W        W21386  13.580  14.907  13.910  0.0743 -0.1956  0.1147
 4913W        W21387   2.707  12.282   2.116 -0.0678  0.2168 -0.1869
 4914W        W21388   2.542  12.081  13.805 -0.2670  0.2441  0.0531
 4915W        W21389   6.608  16.877   0.413 -0.1494 -0.1817 -0.3804
 4916W        W21390  17.050  11.205  11.578 -0.0139  0.0515 -0.2517
 4917W        W21391  14.729   7.047  13.569 -0.0324 -0.0120  0.3698
 4918W        W21392  15.089  15.021  11.560  0.1006 -0.0488 -0.1147
 4919W        W21393  12.329   3.623  14.474 -0.0790  0.1261  0.0695
 4920W        W21394  13.283   6.806   1.352  0.0712 -0.0351 -0.0229
 4921W        W21395  19.596   9.403   0.409 -0.0215  0.0930  0.0781
 4922W        W21396   4.256   1.144   0.931 -0.1387  0.0160 -0.3943
 4923W        W21397  16.632  12.007   0.593  0.1238 -0.0240  0.2194
 4924W        W21398   7.889  11.711   3.498  0.2763 -0.2689 -0.0681
 4925W        W21399  10.446   2.601  13.966  0.0633  0.1002  0.0535
 4926W        W21400   4.473   2.823   3.061  0.3468 -0.2481  0.2373
 4927W        W21401   0.756   5.473  12.546 -0.1327  0.0114 -0.0948
 4928W        W21402  16.904   9.963   0.162 -0.0163  0.1991  0.2999
 4929W        W21403   2.402   6.254  10.754 -0.0236 -0.2886  0.0356
 4930W        W21404   1.714  11.877  14.131 -0.4441 -0.1513  0.3033
 4931W        W21405   9.155   9.290   4.263  0.2894 -0.0831  0.1749
 4932W        W21406  11.936   5.725  10.116  0.2544  0.1075  0.0967
 4933W        W21407  12.579   4.134  14.463  0.0939  0.0105  0.2836
 4934W        W21408  18.026   9.494   4.514  0.0839  0.3987 -0.1172
 4935W        W21409   2.702  11.924   9.574  0.0140 -0.1038  0.0529
 4936W        W21410  16.025   6.658   1.715 -0.0703  0.3236  0.0601
 4937W        W21411   4.130   6.244   0.672  0.0117  0.0090  0.0353
 4938W        W21412   1.418  19.469   4.421 -0.1683  0.0113  0.1226
 4939W        W21413   6.981   4.112   0.044 -0.2016 -0.3915  0.1520
 4940W        W21414  18.179   4.633   4.427 -0.0100  0.1813 -0.0679
 4941W        W21415  12.834   6.831   0.906 -0.1460  0.2160  0.1940
 4942W        W21416  10.578  18.948   2.558  0.0987 -0.1301 -0.4859
 4943W        W21417  15.469  14.228  10.850 -0.3135 -0.2501 -0.1159
 4944W        W21418  10.326  16.241  13.802 -0.2582  0.3001 -0.0538
 4945W        W21419   1.561  11.798   4.161 -0.0591 -0.0490 -0.0345
 4946W        W21420   1.596   8.414  11.724 -0.2081 -0.0349  0.0591
 4947W        W21421   8.527   3.821   2.629 -0.3404  0.2927  0.0276
 4948W        W21422  17.178   5.826  13.832  0.2620  0.2893  0.0521
 4949W        W21423   4.573  15.015  12.762  0.0597  0.3134  0.1124
 4950W        W21424  16.317  10.118  12.000  0.0808 -0.0588 -0.1764
 4951W        W21425  18.921   0.671   0.199 -0.1324  0.1494 -0.2173
 4952W        W21426   6.385  11.082  12.343  0.0435 -0.0237 -0.1299
 4953W        W21427   2.661   7.324   5.453  0.1017 -0.5420  0.0003
 4954W        W21428  12.414   9.130  11.044 -0.0456  0.0016  0.4771
 4955W        W21429  15.509  16.492   3.023 -0.2265 -0.0613 -0.2838
 4956W        W21430   3.930  17.921  11.857  0.2665 -0.1334 -0.2788
 4957W        W21431  13.009  15.136  13.115  0.0131 -0.0791  0.1390
 4958W        W21432   1.365  10.356  12.105 -0.0271 -0.1649 -0.1379
 4959W        W21433  17.672  12.358  14.272 -0.0903 -0.0249 -0.2409
 4960W        W21434  18.661   2.466   4.753  0.1766  0.1940  0.3081
 4961W        W21435   1.216   5.275   1.406  0.1922 -0.2895  0.1802
 4962W        W21436  18.878  18.906   4.551 -0.2387 -0.2454 -0.2503
 4963W        W21437   0.669   4.071   2.009 -0.2220  0.2652  0.1776
 4964W        W21438   7.580   2.148   1.729  0.0328  0.1659 -0.1280
 4965W        W21439   7.447  10.852   3.712  0.4580  0.0609 -0.1572
 4966W        W21440   1.167   7.017  10.953  0.4792 -0.0032  0.0563
 4967W        W21441  11.239  11.644   5.539  0.0165 -0.1198 -0.0922
 4968W        W21442   3.386   0.238   2.077  0.0104 -0.0588 -0.0125
 4969W        W21443  19.242  12.636   2.889  0.1754 -0.0693  0.0247
 4970W        W21444   3.959   3.280  11.614 -0.1849 -0.2221  0.1485
 4971W        W21445   5.480   9.490   1.168  0.1575  0.1765 -0.1116
 4972W        W21446   1.029   2.891   1.230  0.0750  0.1590  0.1896
 4973W        W21447   9.657  19.533   1.037 -0.0513 -0.1871 -0.3575
 4974W        W21448  10.155   9.558  14.145 -0.2994  0.0471 -0.1693
 4975W        W21449  13.206  12.608   3.893  0.2742 -0.1182 -0.3011
 4976W        W21450   7.923  10.950   4.903 -0.0588 -0.0376 -0.2888
 4977W        W21451  13.642  12.534  12.659  0.2642 -0.0557  0.2302
 4978W        W21452   1.753  14.268  13.847  0.0551 -0.3323 -0.2301
 4979W        W21453   1.322  13.033   0.169 -0.2059 -0.0251  0.0067
 4980W        W21454   8.972   1.783   3.619 -0.0630 -0.0210  0.0249
 4981W        W21455   5.615   4.653   2.145  0.4473 -0.0880  0.0756
 4982W        W21456   4.371   2.686   1.307  0.0923  0.0969 -0.1842
 4983W        W21457   8.114   1.679  11.074  0.0073 -0.1645 -0.1277
 4984W        W21458  15.896  19.403  12.123 -0.4049  0.4563  0.1787
 4985W        W21459  13.648   9.356  13.514 -0.0479  0.3323  0.1905
 4986W        W21460   6.648   2.066  10.349 -0.2102  0.1133 -0.0405
 4987W        W21461   2.553  15.604  12.677  0.0068 -0.1881 -0.1156
 4988W        W21462  15.553   3.553  13.124 -0.0725 -0.1734 -0.4522
 4989W        W21463  12.726   5.768  13.948  0.3807  0.3590 -0.1698
 4990W        W21464   7.046  14.051   0.636 -0.2229  0.1810  0.0671
 4991W        W21465  16.333   3.302  13.766 -0.0804  0.4038  0.2781
 4992W        W21466  11.297  16.574   4.024  0.1518  0.1792  0.0493
 4993W        W21467   7.424   5.537   0.889 -0.0321  0.1066 -0.3348
 4994W        W21468  12.896  14.438   0.902  0.2084 -0.1338  0.0604
 4995W        W21469   4.716   1.541  11.784 -0.1582 -0.0958 -0.3854
 4996W        W21470  16.292   4.583   4.594  0.0227  0.1046  0.0003
 4997W        W21471   2.786   6.032  11.102 -0.4349 -0.0581  0.2576
 4998W        W21472   3.227  15.209  14.561 -0.0516  0.0495 -0.3084
 4999W        W21473   1.980   8.570   0.872 -0.3311 -0.0583  0.2806
 5000W        W21474   8.962  13.297   2.386  0.1273  0.0362 -0.1439
 5001W        W21475  18.641  12.595  10.793 -0.0660 -0.0304 -0.1838
 5002W        W21476  15.551   9.299   5.438  0.0717 -0.0226 -0.0205
 5003W        W21477   1.123  10.874   3.866  0.0665 -0.3043 -0.0038
 5004W        W21478  16.648   5.636   3.197  0.1524 -0.1170 -0.0623
 5005W        W21479   0.168  17.375  13.195  0.3190 -0.1303 -0.2960
 5006W        W21480  15.443   4.400  11.358 -0.0206  0.3197  0.1842
 5007W        W21481   2.394  17.630   3.406 -0.1425  0.3768  0.2419
 5008W        W21482  13.470   9.284  14.338 -0.2408 -0.0644  0.0582
 5009W        W21483  15.450  19.408   2.926  0.0139  0.3328 -0.0041
 5010W        W21484   5.802   0.745   0.082 -0.1673 -0.1032 -0.0911
 5011W        W21485   9.902  19.440  14.217  0.0208 -0.0311  0.1478
 5012W        W21486   5.769   4.075   3.056  0.1891 -0.2080 -0.0976
 5013W        W21487  10.867   5.606   2.313  0.0063 -0.0804  0.2767
 5014W        W21488   8.468   5.320  12.507 -0.0163 -0.0094  0.1781
 5015W        W21489  16.420   7.924   2.763  0.0209 -0.1568 -0.1346
 5016W        W21490  12.375   7.800   0.726 -0.1917  0.2126  0.1306
 5017W        W21491  11.213  18.387  11.225 -0.2072 -0.4808  0.2353
 5018W        W21492   9.396  12.285   3.412 -0.0988 -0.1391 -0.0793
 5019W        W21493   5.652  17.558   3.472 -0.3025 -0.2475  0.1853
 5020W        W21494  17.462   3.812  11.622 -0.2474 -0.0730  0.0552
 5021W        W21495   9.278   9.180  10.587  0.1710  0.1121 -0.0735
 5022W        W21496  14.432   1.484  12.579 -0.4149 -0.2307  0.0236
 5023W        W21497   6.467   9.561  14.652  0.0436  0.0268  0.1988
 5024W        W21498  10.986  18.049   2.611 -0.1319 -0.1497  0.3537
 5025W        W21499   8.041   4.372  10.960 -0.1226  0.0194 -0.0193
 5026W        W21500  10.361  10.664   4.761 -0.2385  0.0335  0.1191
 5027W        W21501  11.836   3.884  13.234  0.0369  0.0024 -0.2769
 5028W        W21502  12.022  10.155  12.450  0.3555  0.3344 -0.0339
 5029W        W21503  12.885   6.184   0.225  0.1127  0.0006  0.2834
 5030W        W21504   5.587  13.042  13.033  0.2159 -0.1393 -0.0382
 5031W        W21505   0.903  11.352   1.971 -0.0020 -0.2121 -0.4126
 5032W        W21506   4.854   2.761   2.607  0.0310 -0.1578  0.3048
 5033W        W21507   4.395  17.860  10.462  0.2114 -0.0718 -0.1296
 5034W        W21508   0.652   7.056   1.839  0.2174  0.2458 -0.1751
 5035W        W21509   6.590   1.583  14.315 -0.1194 -0.2662 -0.4327
 5036W        W21510  16.016   0.807  10.081 -0.4950  0.0173 -0.0790
 5037W        W21511   1.336  16.249   3.257 -0.1247  0.0784  0.0483
 5038W        W21512  13.567   5.276  10.683 -0.1178 -0.3505  0.5132
 5039W        W21513   1.042   8.638  11.173 -0.0850 -0.2600 -0.0157
 5040W        W21514  12.045   3.057   5.343 -0.3431 -0.0928  0.2478
 5041W        W21515   2.994  17.380  12.922 -0.1520  0.0726  0.0659
 5042W        W21516   8.213  19.201  10.457 -0.1467 -0.2161 -0.0629
 5043W        W21517  15.294  17.181   1.544  0.0699  0.2033 -0.3267
 5044W        W21518  16.883   3.251  11.140  0.1574  0.0501 -0.2452
 5045W        W21519  10.653   5.567   0.561  0.4226 -0.0110 -0.3223
 5046W        W21520  16.008   9.542   3.337 -0.0667 -0.0925 -0.1840
 5047W        W21521   6.594  19.118  12.768  0.2334 -0.1736 -0.0471
 5048W        W21522  12.894   8.014   2.875 -0.1827  0.0757  0.3060
 5049W        W21523   6.809   0.919  11.602 -0.1595 -0.4101  0.0291
 5050W        W21524  14.848  19.127   0.090  0.1093  0.0336  0.0735
 5051W        W21525  17.915   7.618  11.579 -0.0645  0.1345 -0.0737
 5052W        W21526  11.480  15.500   4.427  0.0694 -0.1297 -0.2910
 5053W        W21527   1.596  13.293  11.040  0.3811  0.1164  0.1080
 5054W        W21528   4.326   1.259  11.716  0.3108 -0.0614  0.0322
 5055W        W21529   0.799  12.080  12.647 -0.1659 -0.1762  0.2669
 5056W        W21530   3.434  11.590  10.342 -0.2762  0.0097 -0.0459
 5057W        W21531  14.704   5.575  14.547 -0.1274  0.0115  0.2211
 5058W        W21532  13.302   6.130  12.895 -0.1013  0.1784 -0.1122
 5059W        W21533  11.911   8.914  11.875 -0.0846 -0.5021 -0.1244
 5060W        W21534  11.198  11.843   3.612  0.1191  0.2376 -0.0846
 5061W        W21535   3.940  10.135   3.120  0.1200 -0.0329  0.3595
 5062W        W21536  17.086   8.233  11.997 -0.0754 -0.2193 -0.0224
 5063W        W21537   3.234  17.948   3.815 -0.0776 -0.2076  0.3035
 5064W        W21538  17.812  12.580   4.813 -0.3492  0.3134  0.4176
 5065W        W21539  17.352  11.282   4.481  0.2598  0.3642 -0.0657
 5066W        W21540   5.553  10.702   4.644  0.0982 -0.1359 -0.1070
 5067W        W21541   5.402  11.173   3.511 -0.2524  0.0017  0.2042
 5068W        W21542   5.245  11.100   3.967 -0.1190 -0.2920 -0.1389
 5069W        W21543  17.067  17.253  13.062 -0.1563 -0.3603 -0.1601
 5070W        W21544  13.238   0.031  11.030 -0.1414  0.1932  0.3533
 5071W        W21545   5.428   7.389  14.093 -0.0816  0.0376 -0.1342
 5072W        W21546   5.356  19.364   9.472  0.0988 -0.0462 -0.0660
 5073W        W21547   4.363   2.216  12.204  0.2786 -0.3951 -0.3881
 5074W        W21548  12.118   3.014  10.689  0.3866 -0.1068  0.2389
 5075W        W21549   9.067   2.459   3.609  0.2740  0.0547  0.1776
 5076W        W21550   8.501  13.753   4.008  0.2492 -0.0144  0.0613
 5077W        W21551  12.791  19.622  11.686  0.1608 -0.2216 -0.2784
 5078W        W21552  16.323   8.212  14.375 -0.0198  0.1572  0.2782
 5079W        W21553  14.781   0.255  13.542  0.2171 -0.2325 -0.1210
 5080W        W21554   8.567  17.551  11.710  0.0372 -0.1559  0.1059
 5081W        W21555   2.387   8.682   2.823  0.1850 -0.0145  0.0257
 5082W        W21556  12.767   6.936   5.331  0.1605 -0.3406  0.0801
 5083W        W21557   8.475  18.931  13.975  0.1973  0.1997 -0.2863
 5084W        W21558  19.095   5.966   3.618 -0.1569  0.0499  0.1114
 5085W        W21559  18.934  14.418   5.248  0.1952  0.2384 -0.2125
 5086W        W21560  19.511   7.279   3.194 -0.0556  0.0386  0.1164
 5087W        W21561   0.909  13.106  12.669 -0.1222 -0.0718 -0.1239
 5088W        W21562  12.655  13.740  13.971 -0.3478  0.4049 -0.0082
 5089W        W21563  16.257   1.360   1.277 -0.1355 -0.3629 -0.1249
 5090W        W21564   9.583  12.338   4.533 -0.2184 -0.0834 -0.0646
 5091W        W21565  19.159   9.889  12.507 -0.0709 -0.1155  0.1073
 5092W        W21566  17.971  19.141  11.765  0.1475  0.0244 -0.1331
 5093W        W21567   8.925   7.930   5.005 -0.0194 -0.0445 -0.2684
 5094W        W21568   3.327   7.288  13.672  0.0759  0.0009  0.3221
 5095W        W21569   2.929   8.081   4.106  0.2812 -0.4735 -0.0766
 5096W        W21570   2.961  13.936  10.620  0.3801  0.2262 -0.4652
 5097W        W21571  14.907   4.649  10.445  0.0490  0.2419 -0.1209
 5098W        W21572   9.956  14.021   0.221 -0.0069  0.1224  0.2438
 5099W        W21573  10.085  11.652   0.002  0.1248  0.2458 -0.0903
 5100W        W21574   2.271   2.610   4.543  0.1778 -0.0745  0.1334
 5101W        W21575  18.527  12.562  14.242  0.4798  0.0960 -0.0185
 5102W        W21576  12.846  18.545   0.626  0.3195 -0.5566 -0.0472
 5103W        W21577   3.121   0.138  11.783  0.0642  0.1713 -0.0277
 5104W        W21578   8.278  14.754  14.077  0.0645  0.2931 -0.0088
 5105W        W21579  13.688   8.720   3.038  0.1004  0.1933 -0.0214
 5106W        W21580  18.044  10.082  11.048  0.1829  0.0565 -0.0070
 5107W        W21581   7.955   7.618  11.774 -0.2769 -0.2935  0.3077
 5108W        W21582   3.575   5.635  11.547  0.0300  0.2784  0.0111
 5109W        W21583   3.498   1.332   3.890 -0.1948 -0.0324 -0.0160
 5110W        W21584   3.946  11.374   9.138 -0.1712 -0.0615 -0.0346
 5111W        W21585  16.699   9.360  11.654 -0.1143  0.0584  0.6108
 5112W        W21586   4.356  16.681  10.701 -0.0626  0.0716 -0.3813
 5113W        W21587   6.024   7.840  14.423 -0.2696 -0.1968 -0.1337
 5114W        W21588   7.569   3.386   0.237 -0.3529 -0.0608  0.0492
 5115W        W21589   7.935   2.176   1.345  0.1277 -0.1546 -0.2994
 5116W        W21590   9.422   0.330  10.351 -0.1911 -0.1131 -0.2175
 5117W        W21591   2.165  12.253  14.134 -0.1172  0.1017 -0.2475
 5118W        W21592   4.544  14.327   3.740  0.3270 -0.1249  0.2713
 5119W        W21593   3.879   1.956  12.228  0.2598 -0.0338  0.1114
 5120W        W21594  14.575   6.407  10.748  0.0065  0.0138 -0.0553
 5121W        W21595  15.457   3.556   3.373 -0.1374 -0.0128  0.0639
 5122W        W21596   6.022   5.695   1.742 -0.0166 -0.3563  0.1313
 5123W        W21597   6.278   4.060   4.214 -0.0809 -0.3120  0.0139
 5124W        W21598   6.780   6.791   3.968  0.0099 -0.2069 -0.0407
 5125W        W21599   6.074   3.817   2.039 -0.0592 -0.1844 -0.0605
 5126W        W21600  17.112  11.080  13.604  0.1181 -0.1704  0.0268
 5127W        W21601   1.143  11.893  10.031  0.2867 -0.0376  0.0654
 5128W        W21602  16.852   0.790   9.844 -0.1912 -0.2742 -0.0882
 5129W        W21603  18.734   5.945   4.013 -0.1388  0.0157 -0.0421
 5130W        W21604   7.802   8.147  12.762 -0.0622  0.2694 -0.1087
 5131W        W21605   5.771   7.230   2.559 -0.0115 -0.0950 -0.1132
 5132W        W21606   1.162  12.477   0.019 -0.0738 -0.1185  0.4921
 5133W        W21607   3.097  15.722  12.071 -0.0824 -0.0115 -0.2490
 5134W        W21608  18.540  10.470  14.469 -0.1869  0.3061  0.3047
 5135W        W21609  17.492  18.505  12.973  0.0171  0.1923  0.0296
 5136W        W21610  16.162  15.290   0.409  0.1753 -0.0779 -0.2040
 5137W        W21611   6.899  17.723   0.836 -0.0423  0.0674  0.1948
 5138W        W21612   0.000   2.680   2.867 -0.0736  0.0316 -0.1721
 5139W        W21613  16.112  13.236  11.726  0.4061 -0.0072 -0.1427
 5140W        W21614   7.924  11.751  14.493 -0.0911  0.3089 -0.1086
 5141W        W21615  13.826  12.579   0.380  0.0249  0.2414  0.0714
 5142W        W21616   4.793   5.442   0.592  0.3843  0.0401 -0.0126
 5143W        W21617   9.811  17.735  13.161  0.3060  0.1089 -0.1315
 5144W        W21618  19.564  13.089   1.726 -0.1011  0.1519  0.3372
 5145W        W21619  10.839  14.786  12.112  0.0617 -0.1358 -0.0939
 5146W        W21620   7.516  19.046  13.571  0.1210  0.0792 -0.0556
 5147W        W21621  11.337   7.937   2.163  0.0913 -0.0005 -0.1266
 5148W        W21622  18.980  18.162   1.412  0.0544 -0.0538  0.2604
 5149W        W21623  14.985  17.017  13.808  0.2467  0.2585 -0.3587
 5150W        W21624   1.007  13.177   4.727 -0.3835 -0.2146 -0.0243
 5151W        W21625  18.758   3.260  10.214  0.3203 -0.3518  0.0856
 5152W        W21626  12.809  18.776  11.230 -0.0672 -0.0639 -0.1532
 5153W        W21627  12.173  12.835   5.048  0.0650 -0.0195  0.2327
 5154W        W21628  13.037   3.239   4.311 -0.1464 -0.1648  0.4318
 5155W        W21629  18.357  18.315   4.235 -0.3365  0.1046 -0.3356
 5156W        W21630  14.912   6.695   3.323  0.0410 -0.0561  0.1142
 5157W        W21631  10.916   3.221  11.559  0.1736  0.2272  0.1490
 5158W        W21632  17.467   7.185   1.623 -0.1376 -0.0444 -0.3905
 5159W        W21633  17.073   3.154   3.311 -0.1099  0.0997  0.0213
 5160W        W21634  14.026   3.027  13.211  0.1948  0.0618 -0.0312
 5161W        W21635  14.942  14.478   0.331 -0.0173 -0.3083  0.1969
 5162W        W21636   8.487   0.325  12.566  0.2312 -0.2858  0.1199
 5163W        W21637   7.990  14.591  13.644  0.2623  0.2585  0.3207
 5164W        W21638   8.411  10.104   0.553 -0.0608  0.0154  0.2504
 5165W        W21639   8.378  10.759   3.009 -0.3200  0.0125  0.3975
 5166W        W21640   4.537   4.895   2.295  0.1439  0.0811  0.0637
 5167W        W21641  11.153   2.655   9.820  0.2475  0.0016  0.3349
 5168W        W21642  18.296  12.829  12.276  0.0372 -0.1453  0.2407
 5169W        W21643  11.473  12.840   2.205 -0.0397 -0.3915 -0.3165
 5170W        W21644  14.046   7.781  13.293  0.1420 -0.1593 -0.1394
 5171W        W21645   3.666  12.425   4.857 -0.0312  0.3042 -0.1411
 5172W        W21646   0.821   2.016   2.840  0.1657 -0.0149  0.1382
 5173W        W21647  13.686   9.891   3.276 -0.2332 -0.1528  0.0391
 5174W        W21648   2.844  13.510  13.763  0.0460 -0.1838 -0.2524
 5175W        W21649   8.875   3.799  10.329  0.0243  0.2500 -0.1546
 5176W        W21650  12.601  16.638   1.524  0.0794 -0.1267 -0.2219
 5177W        W21651   4.363   4.942   0.678  0.2528  0.2380 -0.0301
 5178W        W21652  15.259  16.138  13.386  0.2744 -0.1031  0.0660
 5179W        W21653   3.815   0.585   0.009  0.3500  0.0769 -0.0053
 5180W        W21654  11.110   1.427  13.551 -0.0728 -0.1162  0.2056
 5181W        W21655   7.241   9.224   1.028 -0.2072  0.0475 -0.0484
 5182W        W21656  15.067   2.976   1.873  0.5545  0.0926  0.1174
 5183W        W21657  14.516  13.796  11.669 -0.2480  0.1538  0.3190
 5184W        W21658  10.439  14.834   0.078 -0.2328 -0.2867 -0.0349
 5185W        W21659   2.986   7.430   0.599 -0.1146 -0.1684 -0.2582
 5186W        W21660   7.432  11.966   3.466 -0.0732 -0.2750  0.0228
 5187W        W21661   5.290  12.472   5.015 -0.2449  0.0637 -0.3199
 5188W        W21662   2.494   7.476   0.125 -0.0640 -0.0890  0.0010
 5189W        W21663  13.146   2.691  13.813  0.0089 -0.0586 -0.1258
 5190W        W21664   9.935  11.426   0.618  0.0433  0.0482  0.2530
 5191W        W21665   4.558  13.307   1.811  0.1603 -0.0760  0.1679
 5192W        W21666   2.304   1.497   2.175 -0.1103  0.1387 -0.4408
 5193W        W21667  15.125   8.596   0.288  0.2677  0.1968  0.1003
 5194W        W21668  11.646   7.617  13.682  0.1841 -0.0289 -0.2474
 5195W        W21669  10.009   8.435   0.319 -0.0117  0.0659 -0.1879
 5196W        W21670  11.647   9.111  13.743 -0.3310 -0.0053  0.1373
 5197W        W21671   9.246   4.857  11.077 -0.1557  0.1885 -0.0817
 5198W        W21672  11.984   0.778   4.879  0.4188 -0.0044 -0.2752
 5199W        W21673   9.190   0.551  13.324 -0.1355  0.1533  0.2136
 5200W        W21674   3.273  15.086   5.313  0.1481  0.0031  0.0630
 5201W        W21675  13.831  14.604  13.566  0.0771 -0.2562 -0.1182
 5202W        W21676   7.836  10.535  10.982  0.1083  0.0422  0.1211
 5203W        W21677  13.987  15.723   2.453 -0.4651 -0.1058  0.0411
 5204W        W21678  19.414   0.745   3.539  0.0912  0.0974  0.0010
 5205W        W21679  17.167   8.875  10.972  0.4840  0.0712  0.1117
 5206W        W21680  16.846  11.567  13.757  0.0581 -0.0321 -0.1117
 5207W        W21681   4.753   8.646  11.141 -0.1758  0.1322  0.1611
 5208W        W21682   7.924   5.305   0.943 -0.4843 -0.2436  0.1493
 5209W        W21683   8.205   6.775  11.356  0.2326 -0.4386 -0.0997
 5210W        W21684   8.378   6.210  11.271  0.4420 -0.0518  0.0110
 5211W        W21685   3.845   6.831  12.847 -0.2799 -0.1314 -0.2719
 5212W        W21686   6.528  15.623   9.921 -0.2287  0.4050 -0.2396
 5213W        W21687  18.346  14.783   3.686  0.4111 -0.3891 -0.1957
 5214W        W21688  18.352   9.059   3.671  0.2079  0.3406 -0.3225
 5215W        W21689   9.702  17.067   3.270  0.0288  0.3114 -0.0608
 5216W        W21690   3.178   3.078   2.726  0.1567 -0.3113  0.2902
 5217W        W21691  17.505   0.071  13.868 -0.2549 -0.1945  0.0578
 5218W        W21692  18.310   0.609   0.631 -0.7175 -0.3047  0.0529
 5219W        W21693   5.399  16.294   4.024  0.1256 -0.1062  0.3709
 5220W        W21694  18.188   5.646   9.791  0.0378 -0.2446  0.0993
 5221W        W21695  17.440   0.303  11.987  0.0858  0.3015 -0.2657
 5222W        W21696   7.630  14.413   9.939 -0.0669  0.2951  0.1105
 5223W        W21697   9.258   1.726   0.907  0.0710 -0.3185  0.1030
 5224W        W21698  14.837  13.728   4.703 -0.2273  0.0463  0.0499
 5225W        W21699   7.383  11.982  12.448 -0.2931 -0.2299  0.0456
 5226W        W21700   0.793  16.283  14.189  0.0274  0.0306 -0.5055
 5227W        W21701  15.324  17.810  11.803  0.0087 -0.2330  0.0685
 5228W        W21702   0.424   8.671  13.874 -0.1214 -0.0982  0.1265
 5229W        W21703  13.806  14.676   3.711  0.2543  0.0923 -0.1701
 5230W        W21704  10.767  13.757   4.462 -0.2672  0.1739 -0.0585
 5231W        W21705  13.207  10.150  11.095 -0.2020  0.1138  0.4010
 5232W        W21706   8.699   8.290   5.764 -0.2058 -0.0120  0.1154
 5233W        W21707  16.704  10.395   1.549 -0.0546  0.0269  0.1143
 5234W        W21708  16.333   6.706   2.163 -0.0036  0.1031 -0.0507
 5235W        W21709  16.399  10.818   4.742  0.1047  0.3802  0.0630
 5236W        W21710  10.899  13.135  13.449  0.1591  0.2468 -0.1036
 5237W        W21711  10.837   9.646  10.897  0.0676 -0.0481 -0.5334
 5238W        W21712  19.594   6.958  11.545  0.0962 -0.2475 -0.1284
 5239W        W21713  19.517   8.705  13.081  0.0994 -0.2180 -0.3251
 5240W        W21714   3.526  14.211   0.324 -0.1948  0.2536 -0.2802
 5241W        W21715   5.874  12.868   1.285  0.3530  0.2440 -0.4173
 5242W        W21716   1.926   6.218   4.227 -0.2952 -0.1688  0.0836
 5243W        W21717   9.717  14.300   2.492 -0.0650  0.3105 -0.2578
 5244W        W21718  15.237   6.440   4.427 -0.2883 -0.0818 -0.0783
 5245W        W21719  11.288  11.328   1.217  0.1040  0.1761 -0.2217
 5246W        W21720   7.177   7.182  10.136  0.2317  0.2406  0.0305
 5247W        W21721   8.068   1.392   4.631 -0.0305  0.0689  0.0689
 5248W        W21722  10.248   6.369   2.233 -0.0610 -0.0798 -0.1932
 5249W        W21723   5.154   0.531   9.726 -0.0899 -0.0037  0.0225
 5250W        W21724   9.128   1.245  11.518  0.1052  0.0569  0.0735
 5251W        W21725  16.158  16.583   5.401 -0.3835 -0.2945  0.1372
 5252W        W21726  10.711  10.409  10.418 -0.0619  0.1225  0.0616
 5253W        W21727  10.564  12.432   4.860 -0.1873 -0.0371 -0.1387
 5254W        W21728  12.604   8.428  11.868 -0.3593 -0.0320 -0.1562
 5255W        W21729  10.916   4.844   2.594 -0.3327  0.0136 -0.0161
 5256W        W21730  18.073  19.183   3.051  0.0998 -0.0891 -0.2734
 5257W        W21731  19.084  11.651  12.844  0.0045  0.2366  0.1546
 5258W        W21732  11.858  17.155  11.187  0.1081 -0.0238 -0.0542
 5259W        W21733   9.652   9.039   0.843  0.0957  0.0554  0.0163
 5260W        W21734  11.027   2.247  10.111  0.2268 -0.0006  0.1946
 5261W        W21735  18.350  14.657  12.059  0.0982  0.2026 -0.0410
 5262W        W21736  16.145   4.793   5.112  0.1845  0.3639  0.2970
 5263W        W21737  16.066   4.384  13.975  0.0647 -0.0383 -0.1265
 5264W        W21738   2.011   9.743   1.775  0.0345  0.4104  0.1264
 5265W        W21739   5.851   1.639   9.923 -0.1287  0.1947 -0.1994
 5266W        W21740   7.850   0.166   2.402  0.0959  0.3223 -0.2914
 5267W        W21741   5.648  16.163  14.387  0.0029 -0.1208  0.0195
 5268W        W21742   6.212  16.148   3.872  0.0096 -0.0296 -0.0986
 5269W        W21743   9.685  19.442   2.576  0.2152  0.2781 -0.2110
 5270W        W21744  13.530   1.132   3.760 -0.1664  0.3721 -0.0225
 5271W        W21745   8.004   0.880   3.178  0.1805 -0.2198  0.0549
 5272W        W21746  18.293   1.500   2.626  0.0981 -0.0827 -0.1522
 5273W        W21747   5.411  13.395   0.583  0.1582 -0.2297  0.1401
 5274W        W21748  14.989  16.373   3.967 -0.0720  0.2729  0.0185
 5275W        W21749  10.634  11.054   4.559 -0.0404 -0.4748 -0.0587
 5276W        W21750   3.925   2.861   3.402  0.1999 -0.0346 -0.0225
 5277W        W21751   3.225   0.551   2.539 -0.3073 -0.2685 -0.0738
 5278W        W21752   8.251   3.196  10.985  0.1170  0.4556 -0.0486
 5279W        W21753  18.016  13.835  12.823  0.1377  0.0998 -0.1175
 5280W        W21754   4.909   9.861  11.799 -0.0457  0.0710 -0.1847
 5281W        W21755   5.390   1.940  12.964 -0.2617 -0.3873 -0.2033
 5282W        W21756   7.695  15.019   3.004  0.1099  0.2927  0.1479
 5283W        W21757   6.577  19.572  12.489 -0.1081 -0.1752 -0.1849
 5284W        W21758  18.249   4.479  12.917  0.1554 -0.0746 -0.3461
 5285W        W21759   5.801   1.703   2.446 -0.2562  0.2593 -0.1193
 5286W        W21760   8.706  13.337  14.372 -0.0752 -0.0149 -0.0263
 5287W        W21761   6.488  10.481  14.196 -0.1750 -0.3560  0.1265
 5288W        W21762   3.402  15.971   2.167  0.1182 -0.4066 -0.1397
 5289W        W21763  16.390  14.318   1.858  0.1710 -0.1481  0.0476
 5290W        W21764  13.273  13.563  12.900 -0.1211  0.3404  0.1429
 5291W        W21765  11.246   4.503  14.269  0.1630  0.0584  0.2579
 5292W        W21766  14.205   6.075  10.712 -0.1596  0.3412 -0.1586
 5293W        W21767   0.896  11.329  11.418 -0.1438 -0.1593 -0.0144
 5294W        W21768  18.280   6.004   1.176 -0.1852  0.2273  0.0207
 5295W        W21769  15.133  10.637  12.374 -0.0129 -0.2974  0.3670
 5296W        W21770   5.691   8.489  10.488  0.1870 -0.2762 -0.1656
 5297W        W21771  17.547   8.529  10.885  0.0616 -0.0108  0.1526
 5298W        W21772   1.012   7.514  11.112  0.0084 -0.2945  0.1940
 5299W        W21773  10.615   8.190   3.879 -0.1235  0.0854 -0.0370
 5300W        W21774  19.198  19.305  11.446  0.1535 -0.1567  0.1861
 5301W        W21775   5.421   3.483   0.144 -0.1763 -0.2880  0.2644
 5302W        W21776   5.764  10.934  11.066  0.0024 -0.0018  0.0056
 5303W        W21777   2.594  17.233  13.940 -0.1349  0.2825  0.0313
 5304W        W21778   8.676   0.792  13.382 -0.0426 -0.1565  0.1337
 5305W        W21779  15.182  12.084  12.705 -0.0865 -0.1800  0.0667
 5306W        W21780  16.464   8.534  11.588 -0.2438 -0.0173  0.3665
 5307W        W21781   0.379  16.605  10.670 -0.0618 -0.3554  0.0412
 5308W        W21782   9.327  11.266  12.043  0.0577  0.1030 -0.0351
 5309W        W21783   4.948  16.885  12.268  0.0599 -0.2282 -0.1140
 5310W        W21784  10.594   3.109   0.855  0.3362  0.0122 -0.0335
 5311W        W21785  14.449  19.211  14.419 -0.3328 -0.4501  0.0886
 5312W        W21786  17.957   2.687   2.425 -0.0607 -0.1321  0.1003
 5313W        W21787  15.311  12.499  13.902  0.2085 -0.0834  0.2486
 5314W        W21788  19.040   4.417   2.584  0.0937  0.0003 -0.2752
 5315W        W21789  15.052   9.263  11.699  0.0335  0.0358 -0.0397
 5316W        W21790  15.151   2.013   4.929 -0.1079  0.3240 -0.1896
 5317W        W21791  18.768  16.365   2.597  0.1032 -0.1409  0.1061
 5318W        W21792   3.401  10.403  14.228 -0.0356  0.0036  0.3526
 5319W        W21793  18.878  12.164  10.697 -0.2672  0.3307 -0.1869
 5320W        W21794  10.468   0.031   0.359  0.0344  0.1911 -0.2077
 5321W        W21795   7.151  10.113   0.293 -0.0560  0.0060 -0.3301
 5322W        W21796  18.357   4.775   0.148 -0.0468 -0.0452  0.2121
 5323W        W21797  10.235  12.214   5.254  0.1705 -0.0532 -0.1277
 5324W        W21798   2.972  19.318  12.458 -0.0639  0.0802 -0.3017
 5325W        W21799  12.636   3.285  12.855  0.0306  0.0024 -0.2207
 5326W        W21800   9.582   5.166  10.301  0.4002 -0.2563  0.4066
 5327W        W21801   1.160  18.711  11.237  0.0219 -0.2095 -0.0875
 5328W        W21802   7.794   1.779  13.578  0.2117  0.0827  0.0150
 5329W        W21803  19.126   7.049   4.113 -0.4471  0.2184  0.1333
 5330W        W21804  17.721  13.557  10.840 -0.0503  0.3177  0.4070
 5331W        W21805  17.260  11.894  11.948 -0.0408  0.0477  0.2205
 5332W        W21806   9.686  11.575  11.831  0.0013  0.0163  0.0447
 5333W        W21807   0.614  13.221  13.718  0.1496  0.1498  0.0744
 5334W        W21808   1.784  19.048  13.108  0.2319  0.0149  0.2436
 5335W        W21809  14.178   7.351   4.290 -0.0405  0.0356 -0.0764
 5336W        W21810  17.251  10.261   2.193 -0.2509 -0.0206  0.4891
 5337W        W21811   7.693   3.592   5.316 -0.1112  0.0927  0.3541
 5338W        W21812  18.837   9.465   0.587  0.0447  0.3799 -0.2338
 5339W        W21813   5.060  11.106  13.115  0.1938  0.0021 -0.1795
 5340W        W21814  15.180   2.282   3.636  0.2140  0.1540  0.0300
 5341W        W21815  10.601   0.281   2.266  0.0581 -0.0208  0.2743
 5342W        W21816  16.938  11.741   1.255 -0.0810  0.0522 -0.0702
 5343W        W21817   2.176   2.516  11.112  0.0082  0.3037 -0.2046
 5344W        W21818   0.865   2.305  13.678  0.1046 -0.2234  0.0876
 5345W        W21819  16.752   2.014   4.770 -0.1605  0.0003  0.0899
 5346W        W21820  15.845  17.205   0.694  0.1311 -0.1543  0.2119
 5347W        W21821  19.243  18.475   3.292  0.2505 -0.3008 -0.2244
 5348W        W21822   9.414   7.013  10.095  0.2073 -0.0139  0.1689
 5349W        W21823   3.702  14.466  10.955 -0.1063 -0.0121  0.2263
 5350W        W21824  14.093   1.258   9.953  0.0938 -0.0133 -0.1285
 5351W        W21825   4.396  11.099  11.004  0.1525  0.0750 -0.0032
 5352W        W21826   6.971  11.650   3.467  0.2481  0.0332  0.1977
 5353W        W21827   8.087  15.606   2.673  0.0207 -0.0354  0.1921
 5354W        W21828  15.339   0.366   4.464 -0.0266  0.5283 -0.2295
 5355W        W21829  12.692  16.258  12.428  0.1927  0.2504  0.0225
 5356W        W21830  19.335   4.902   3.064 -0.0397 -0.0834 -0.0012
 5357W        W21831   4.601  18.646  12.214  0.1094  0.0586  0.1109
 5358W        W21832  13.436  10.622  11.100 -0.1504  0.0665 -0.3542
 5359W        W21833   4.940  10.940  10.538  0.0046 -0.0187 -0.2106
 5360W        W21834   5.389  14.355   3.732  0.3414  0.1413  0.0835
 5361W        W21835   3.045  12.972   0.031 -0.2558  0.0377  0.2296
 5362W        W21836   4.964  16.235   2.225 -0.1326 -0.1942 -0.1752
 5363W        W21837  14.080  17.977   2.563  0.0866  0.2473  0.0817
 5364W        W21838   1.923  17.510  10.897  0.0260 -0.0010 -0.1118
 5365W        W21839   6.495   3.097  13.454  0.2528  0.2015 -0.0064
 5366W        W21840   2.580  12.024  12.056  0.1399 -0.2002 -0.2326
 5367W        W21841   4.811   1.032  13.767 -0.0052 -0.0782 -0.1003
 5368W        W21842   9.406   4.220   3.097 -0.1137  0.0962  0.1458
 5369W        W21843   0.785  12.887   3.792  0.0649  0.1794  0.0344
 5370W        W21844  10.127  10.441   1.435  0.3282  0.1082 -0.0983
 5371W        W21845  12.140   5.531  11.012  0.1965 -0.1145 -0.2724
 5372W        W21846  15.241   8.106   0.351 -0.2031  0.2461  0.0417
 5373W        W21847   8.887   9.510   3.326  0.0406 -0.2349  0.0287
 5374W        W21848   0.707  12.433   2.698  0.0634  0.0871 -0.2077
 5375W        W21849   7.635   2.698   1.641 -0.1654 -0.2002 -0.0612
 5376W        W21850  10.979  19.484  12.585  0.1558  0.2331  0.1107
 5377W        W21851  15.891   7.513   2.176  0.1577  0.0441 -0.3238
 5378W        W21852   2.127   4.392   3.351  0.0862  0.1083  0.3008
 5379W        W21853  18.412   2.299   1.243 -0.1330  0.1943 -0.0051
 5380W        W21854   8.684  19.002   3.300 -0.1711  0.0299  0.0062
 5381W        W21855   7.825  14.496  11.824 -0.1512  0.1309 -0.0420
 5382W        W21856   4.637  18.878   4.466  0.1688 -0.1812 -0.1873
 5383W        W21857   7.571   5.821   3.528 -0.2004  0.0823 -0.1724
 5384W        W21858  10.448   4.110  12.002  0.0364  0.1052  0.2527
 5385W        W21859   2.471  15.009   1.329  0.0128  0.1165 -0.0720
 5386W        W21860   2.030  11.436  14.289  0.3190 -0.1032 -0.2995
 5387W        W21861  19.436  14.183  10.934  0.1275  0.4748  0.3494
 5388W        W21862   2.226   5.371  14.615 -0.0076 -0.1742 -0.3843
 5389W        W21863   9.727   5.372   1.873 -0.1767  0.0015 -0.2174
 5390W        W21864  13.802   7.349  13.069 -0.1323 -0.0123  0.0600
 5391W        W21865   0.541   2.373   4.221  0.0304  0.2688  0.1497
 5392W        W21866  16.376   0.430   0.106 -0.2602 -0.0623 -0.0078
 5393W        W21867   6.151  14.188   2.184  0.1261  0.0198  0.0106
 5394W        W21868   0.275   5.207  11.872 -0.0316  0.0067  0.1823
 5395W        W21869   5.159   9.781  10.211 -0.3058  0.1305  0.3597
 5396W        W21870  11.413   6.266  13.280 -0.2216  0.1192  0.0087
 5397W        W21871   3.451  13.545   2.563 -0.2331 -0.1046  0.0233
 5398W        W21872   8.924  17.714  12.721 -0.1322 -0.0497 -0.6373
 5399W        W21873   6.842  14.751   2.907 -0.2322  0.0569 -0.0374
 5400W        W21874   7.008   4.895  13.126 -0.0233  0.3132 -0.2727
 5401W        W21875   8.141  14.186  13.359  0.0140  0.1509  0.2253
 5402W        W21876   2.287   0.006  12.239 -0.4069 -0.2273  0.0660
 5403W        W21877   8.370   8.133  10.121 -0.1133  0.2186 -0.2580
 5404W        W21878  16.850   9.993  14.237 -0.0821  0.0371 -0.2113
 5405W        W21879   4.782  13.939   3.220  0.0214  0.1225  0.1187
 5406W        W21880  17.505  19.032   0.158 -0.0607 -0.1644 -0.1730
 5407W        W21881   2.496   8.702  11.867 -0.0629  0.0647 -0.2235
 5408W        W21882  15.069   3.875   2.362  0.0827  0.1460 -0.0017
 5409W        W21883  18.053   1.570  12.610 -0.2185  0.0412  0.3304
 5410W        W21884  18.087   4.507   2.778  0.0767 -0.5296  0.1228
 5411W        W21885  17.550  12.480   3.950  0.1764  0.1110  0.2823
 5412W        W21886   4.240   9.213  12.239 -0.2439 -0.1006  0.1195
 5413W        W21887  15.620   6.489  12.084  0.0619  0.1618  0.2630
 5414W        W21888   8.462   0.487   0.017 -0.0622 -0.1075  0.1463
 5415W        W21889  16.827   4.580   0.764  0.0578  0.1634  0.1740
 5416W        W21890  14.393   3.887  12.255  0.1970 -0.4701 -0.0355
 5417W        W21891  13.408  13.441  10.885 -0.4260  0.3457 -0.0833
 5418W        W21892  18.724   3.056   4.580  0.1527  0.1357 -0.1719
 5419W        W21893   2.315   6.263   1.654 -0.0873 -0.1999 -0.2100
 5420W        W21894  17.762  16.044   2.623 -0.1098 -0.3677 -0.2160
 5421W        W21895   5.951  13.107  14.365  0.3559 -0.1631  0.1135
 5422W        W21896   5.709   8.729   1.302  0.1434  0.0795  0.1390
 5423W        W21897  12.117  18.162   1.706  0.1672 -0.1961  0.0773
 5424W        W21898   6.472   6.073   1.968  0.0267  0.1827 -0.0912
 5425W        W21899  10.471   2.526   2.691  0.1921  0.3034 -0.0559
 5426W        W21900  14.559   2.835   2.007  0.2668 -0.2299  0.0505
 5427W        W21901  13.771   7.747  13.892 -0.1924  0.3037  0.0890
 5428W        W21902  11.947  13.386  12.407 -0.0265 -0.0921  0.0516
 5429W        W21903  15.820  17.561  13.067 -0.0183 -0.3499  0.3608
 5430W        W21904  11.455  13.608   2.206  0.4411 -0.0491 -0.2793
 5431W        W21905   5.689   4.374  13.416 -0.0003 -0.2832 -0.0535
 5432W        W21906   5.014  17.566   2.792 -0.0282  0.0201 -0.2484
 5433W        W21907   9.817   3.766   4.495  0.0258  0.1620  0.3172
 5434W        W21908  15.365  15.938  11.417  0.0366 -0.3838  0.1667
 5435W        W21909  15.114   7.156  10.597  0.1690 -0.0271 -0.2947
 5436W        W21910  12.002   1.140   3.802 -0.1631 -0.0482  0.1434
 5437W        W21911   7.514  12.489   4.649  0.0900 -0.1225 -0.2081
 5438W        W21912   1.061  12.500  14.133 -0.1015 -0.1991  0.0491
 5439W        W21913  11.308   6.653   3.956 -0.2587 -0.2193  0.0321
 5440W        W21914   8.527  16.358  12.355 -0.1391 -0.1085  0.0018
 5441W        W21915   4.291   0.291  10.706 -0.1968 -0.0202 -0.2559
 5442W        W21916   9.310   9.737   4.031  0.0019 -0.0711  0.1836
 5443W        W21917  13.824  13.295  11.820  0.0514  0.3230  0.1914
 5444W        W21918  11.742   8.202  14.084  0.0867  0.2801  0.2847
 5445W        W21919   1.171  14.128  12.390 -0.0728  0.0681  0.0497
 5446W        W21920   1.887  11.753   4.529  0.0278 -0.0624 -0.2408
 5447W        W21921  18.780  17.751   2.204 -0.1352 -0.0232  0.0258
 5448W        W21922   6.003  15.656  11.866 -0.2361 -0.3375  0.0855
 5449W        W21923  13.128  10.383   4.676 -0.0687 -0.0651 -0.0264
 5450W        W21924   5.653  10.798   0.735  0.1725 -0.1838  0.3355
 5451W        W21925   3.338  15.857  10.214  0.2292  0.3144  0.1573
 5452W        W21926  15.567  14.399   1.666  0.1869 -0.1399 -0.2622
 5453W        W21927  17.537  15.108  12.320 -0.4209 -0.0762 -0.1410
 5454W        W21928  16.928  11.427  13.246  0.1162 -0.0977 -0.0560
 5455W        W21929   5.535  10.392  12.656  0.3928 -0.1188 -0.0496
 5456W        W21930   1.115  12.911  13.609 -0.2869  0.0858 -0.0757
 5457W        W21931   0.740  13.667  11.954  0.1078  0.2951  0.0587
 5458W        W21932  12.580  14.813  12.872  0.1696  0.0321  0.0318
 5459W        W21933  18.207  18.202  10.489 -0.4306  0.5249 -0.1927
 5460W        W21934   3.605  15.086  10.521 -0.0415  0.2811 -0.2804
 5461W        W21935  11.595  14.037   3.791 -0.1187 -0.2732  0.0628
 5462W        W21936   4.670   8.673   4.379  0.4853 -0.3371  0.0439
 5463W        W21937  13.766  18.575  10.387  0.0918  0.0269  0.0498
 5464W        W21938  11.651  17.091  13.043 -0.0276 -0.0627  0.2945
 5465W        W21939   1.966   9.310  12.698 -0.0577 -0.1383 -0.1224
 5466W        W21940  10.068   1.579   4.794  0.1250  0.0164 -0.3006
 5467W        W21941   1.086   7.002   9.917 -0.1426 -0.0248  0.0328
 5468W        W21942  12.386   3.833   4.048 -0.0437  0.0725 -0.0067
 5469W        W21943   1.702   2.220   2.556 -0.2360  0.0189  0.1133
 5470W        W21944   8.827   0.148  12.197 -0.0805 -0.1745  0.0614
 5471W        W21945  13.905  18.992   1.178  0.3931  0.3498 -0.2427
 5472W        W21946  18.838   5.765   4.474  0.2235  0.1844 -0.2016
 5473W        W21947   8.635   4.530  11.847 -0.1438 -0.1796  0.0686
 5474W        W21948   6.074  15.904   0.272  0.0619  0.0603 -0.3688
 5475W        W21949   8.819  11.596   3.036 -0.1072  0.2388  0.1346
 5476W        W21950  13.821  19.441   2.485  0.1760  0.0284 -0.0464
 5477W        W21951  15.084   0.799   0.744 -0.2398  0.0916 -0.0429
 5478W        W21952   6.024  13.465   0.472  0.0960  0.2433  0.3376
 5479W        W21953   5.719   0.715   8.771  0.0307 -0.0204  0.2365
 5480W        W21954   5.239   5.083   2.761  0.1889  0.0909  0.2312
 5481W        W21955  11.142  10.795   3.116 -0.3830  0.0180 -0.1406
 5482W        W21956  19.158   1.127   4.536 -0.3579  0.2136 -0.1275
 5483W        W21957  12.394   1.248   4.731 -0.3635  0.1633 -0.2343
 5484W        W21958   5.445  16.765   3.037  0.0203 -0.0105  0.2574
 5485W        W21959  10.348  11.348  13.474 -0.0974 -0.3809  0.0935
 5486W        W21960   5.528   5.358   1.783  0.3146  0.0357 -0.1650
 5487W        W21961   9.185  12.970   3.297 -0.1455  0.1208  0.0339
 5488W        W21962   8.771  18.787  11.366 -0.1946  0.2220 -0.1615
 5489W        W21963   2.807  11.189   1.401 -0.0329  0.0927 -0.0167
 5490W        W21964  15.360   4.426   2.233  0.1246 -0.2058  0.1196
 5491W        W21965  17.636   5.577  11.760  0.5318  0.1980 -0.2362
 5492W        W21966   7.465  18.994   0.442 -0.1239 -0.2646  0.1067
 5493W        W21967   8.055  17.329  10.756 -0.0981 -0.2168  0.0942
 5494W        W21968   3.681  19.164  13.694 -0.2588  0.0200  0.0829
 5495W        W21969  17.081   6.896   4.520 -0.0092 -0.1226  0.2503
 5496W        W21970  19.003  18.555  12.649 -0.0861 -0.3412 -0.1466
 5497W        W21971  16.266   9.352  12.606  0.2634  0.3336  0.0601
 5498W        W21972   2.224  18.856  13.525 -0.1351 -0.0062 -0.0931
 5499W        W21973   3.598  15.088  11.250 -0.0279 -0.0486 -0.5814
 5500W        W21974  19.431  15.483   4.601  0.0096 -0.2473  0.0234
 5501W        W21975  10.117   4.123   3.144 -0.2091  0.2627 -0.0235
 5502W        W21976   6.537   8.327   0.087  0.0474 -0.0593  0.0222
 5503W        W21977   8.428   3.070  11.855 -0.0617 -0.0873  0.1128
 5504W        W21978  18.352  11.882  12.317 -0.3341  0.1323  0.1114
 5505W        W21979  16.635  19.406  12.188 -0.2137 -0.0203 -0.0827
 5506W        W21980  11.477   9.807   3.212 -0.2033 -0.2347  0.0062
 5507W        W21981   5.141  19.610   2.889 -0.0986 -0.0125 -0.2495
 5508W        W21982  16.052   5.980   2.488  0.2759 -0.0416  0.0712
 5509W        W21983   6.365   4.274   4.972  0.2612  0.2045 -0.3150
 5510W        W21984   2.043  14.918  10.433 -0.0317 -0.2424  0.3946
 5511W        W21985  14.962   6.246  10.016 -0.0649 -0.0094  0.0695
 5512W        W21986   5.161  17.396  13.976  0.0556  0.0282  0.1458
 5513W        W21987   9.150   7.906   4.008 -0.1503  0.0703 -0.2434
 5514W        W21988  15.499  12.511   2.214  0.3430 -0.2520  0.2377
 5515W        W21989   7.508   4.542   0.710  0.1559 -0.1361 -0.0101
 5516W        W21990  12.328   1.499   3.481  0.1904  0.0865 -0.1949
 5517W        W21991   3.285  14.639   0.175 -0.0477  0.1220 -0.0816
 5518W        W21992   2.859   8.585  12.808  0.0629 -0.2989  0.2661
 5519W        W21993  18.520  11.755   4.083  0.0361 -0.0997  0.0882
 5520W        W21994  14.533   0.322  11.400  0.0058  0.1812  0.3741
 5521W        W21995   5.277   8.019   3.130  0.3715 -0.3542  0.0367
 5522W        W21996   4.914  12.749   4.826  0.2991  0.0362 -0.1422
 5523W        W21997  11.191  17.329   0.215 -0.4539 -0.0974  0.0694
 5524W        W21998   8.784  18.189   4.406 -0.2436  0.0257  0.3819
 5525W        W21999  12.431   6.126   1.294 -0.0994 -0.2947 -0.1298
 5526W        W22000  17.913   3.351  14.062  0.0881  0.0898 -0.3143
 5527W        W22001   8.676  14.061  11.628  0.1766  0.0347 -0.1398
 5528W        W22002   5.334  17.086  10.973 -0.0860 -0.1604 -0.2878
 5529W        W22003  18.319   1.162   2.282 -0.1654 -0.2851  0.2364
 5530W        W22004  15.968  17.527  11.088 -0.0360  0.1415  0.1297
 5531W        W22005  12.158   7.595   1.148 -0.1081  0.1982 -0.1320
 5532W        W22006  15.918  19.421   0.798 -0.2628  0.0320 -0.0670
 5533W        W22007  14.514  11.760  11.923  0.0969  0.1613  0.1237
 5534W        W22008  10.991  15.379  14.441 -0.2978 -0.1009  0.2657
 5535W        W22009  11.203  18.964   4.016 -0.3441 -0.1302  0.0564
 5536W        W22010   7.516   5.744   0.431 -0.1536 -0.0029  0.2290
 5537W        W22011   8.716   5.018   1.734 -0.0471 -0.4127  0.1795
 5538W        W22012  14.015   0.614   0.193 -0.0851 -0.1440  0.0694
 5539W        W22013  15.750  10.096  14.218 -0.1709  0.3439 -0.0559
 5540W        W22014   2.015   3.364  10.783 -0.1881 -0.1746 -0.0063
 5541W        W22015   4.064  13.153  12.199  0.0709  0.0310  0.1518
 5542W        W22016  18.736   2.532   4.197 -0.2651 -0.1112 -0.1810
 5543W        W22017   3.684  16.782  11.213 -0.1317 -0.0198  0.1137
 5544W        W22018   5.939  14.840   4.484 -0.1554 -0.3248 -0.1703
 5545W        W22019   8.746   6.397  11.642 -0.6527  0.2975  0.0932
 5546W        W22020   7.775   7.010   3.852 -0.1411  0.1843  0.2085
 5547W        W22021   8.242  16.887  14.168  0.1429  0.0044 -0.1511
 5548W        W22022  12.884   2.267  13.588  0.0996 -0.1073 -0.2077
 5549W        W22023  11.773  14.743   5.750  0.1755  0.4051 -0.0740
 5550W        W22024   6.458   5.071   9.958  0.1648  0.4371 -0.1987
 5551W        W22025  16.399  13.834   3.977  0.2568  0.1862  0.1342
 5552W        W22026   2.691  18.826  13.331  0.0113 -0.0383 -0.0613
 5553W        W22027   2.758   2.456  14.665  0.0788  0.1955  0.1325
 5554W        W22028  12.997   3.991  11.756  0.2310  0.0739  0.1275
 5555W        W22029   8.242  12.325   5.874 -0.1627 -0.0487  0.0214
 5556W        W22030  18.769   5.873   0.260  0.0382 -0.0441  0.2484
 5557W        W22031  12.482   7.574  11.316 -0.0723 -0.0334  0.3168
 5558W        W22032  14.040  16.117  11.342  0.1543 -0.4054 -0.1229
 5559W        W22033   8.755   5.209  12.851 -0.1602 -0.3225 -0.3859
 5560W        W22034  15.223  19.592   5.430 -0.2354 -0.0144 -0.0793
 5561W        W22035   7.356  17.037  10.634  0.1463  0.3426 -0.2662
 5562W        W22036   6.620  17.875  13.496 -0.0209 -0.2035 -0.1021
 5563W        W22037  10.126  17.102  11.626  0.0445 -0.0449 -0.0533
 5564W        W22038   5.954   2.609  10.274 -0.1697 -0.5495  0.0634
 5565W        W22039  18.310   2.795   4.452 -0.2728 -0.0688  0.3558
 5566W        W22040   8.682  19.448   4.454 -0.0072  0.1016 -0.3481
 5567W        W22041  18.106  13.241   5.089  0.4130 -0.0045 -0.0985
 5568W        W22042  10.870  18.388  10.820 -0.1914 -0.2308  0.0606
 5569W        W22043  17.773   0.514  11.487  0.1689  0.0554  0.0365
 5570W        W22044  12.915   2.246   0.865 -0.1208  0.0275 -0.1872
 5571W        W22045   2.902   8.646  10.497 -0.1163 -0.3391 -0.0055
 5572W        W22046   9.724   1.470   1.356 -0.3145 -0.1330 -0.1158
 5573W        W22047  19.140   7.438   2.437  0.1696  0.0216  0.1423
 5574W        W22048   7.439   0.195   0.585  0.1007 -0.2162  0.0659
 5575W        W22049  19.571   4.429   2.869 -0.0735  0.2079  0.5274
 5576W        W22050  11.969   8.861   3.600 -0.1871  0.1310 -0.2818
 5577W        W22051   7.986   1.079   0.702 -0.2487  0.4065 -0.1202
 5578W        W22052  15.319  14.703  10.772  0.0210  0.0062 -0.4557
 5579W        W22053   8.620   2.187  14.285  0.5359  0.0217 -0.3179
 5580W        W22054  15.274   3.664  11.966 -0.1731  0.3195  0.1215
 5581W        W22055  14.782  12.231  10.864  0.0346 -0.0138  0.1358
 5582W        W22056   3.906  13.282  12.687  0.0452  0.0377  0.1139
 5583W        W22057   4.182   5.284  11.971  0.1763 -0.0550  0.0311
 5584W        W22058   7.799  19.345  14.518 -0.0111  0.0786  0.1156
 5585W        W22059   6.890  15.044   0.705  0.4481 -0.0285 -0.1049
 5586W        W22060   6.409   0.970   1.693  0.1673  0.0939  0.2318
 5587W        W22061   6.754  11.657  10.292  0.3926  0.2635  0.2024
 5588W        W22062  19.205   0.966   1.331 -0.1006 -0.3172  0.1014
 5589W        W22063  10.105  12.072   4.608  0.0774  0.1133 -0.0695
 5590W        W22064  12.798   1.752  14.657 -0.2275  0.3319 -0.2127
 5591W        W22065   7.331   2.621  12.613 -0.3241 -0.0477  0.4028
 5592W        W22066  17.083   5.027  10.293 -0.2112 -0.4015 -0.0435
 5593W        W22067   7.993   5.975  13.226 -0.1206 -0.0300  0.0378
 5594W        W22068   4.651  19.587   1.110  0.0994 -0.3584 -0.1424
 5595W        W22069  13.256  16.556  13.922  0.1191  0.1238  0.2046
 5596W        W22070   5.437  14.831   4.630  0.1588  0.3785 -0.0177
 5597W        W22071  11.583   6.352   2.970  0.0628  0.3806  0.1909
 5598W        W22072  11.200   0.207   0.536 -0.3521  0.0396 -0.0892
 5599W        W22073   4.653  16.106  14.379  0.2904 -0.0469  0.4159
 5600W        W22074  12.414   2.923   9.589 -0.1658  0.2273 -0.1583
 5601W        W22075   3.510  16.892   0.961 -0.1312 -0.0093  0.2099
 5602W        W22076   8.847  15.679   4.620 -0.1088  0.3138 -0.0113
 5603W        W22077   0.842  19.556   5.141 -0.0413  0.0432 -0.4612
 5604W        W22078   3.293  11.080  12.187  0.0605  0.0905  0.0621
 5605W        W22079  11.326  15.037  12.825  0.0792  0.3646 -0.1281
 5606W        W22080  11.300  12.890   0.288  0.1455 -0.2383  0.0062
 5607W        W22081  11.836   9.531  14.586 -0.1720 -0.0758 -0.2116
 5608W        W22082   8.489  14.513  13.609  0.0493  0.3223 -0.1694
 5609W        W22083  19.417  17.093   1.484 -0.2475  0.1676 -0.3912
 5610W        W22084  13.750  10.575  12.086  0.0836 -0.0818 -0.0006
 5611W        W22085  11.119   3.833  14.083 -0.3554  0.0630  0.3381
 5612W        W22086  18.023  14.250   5.031 -0.1218  0.2166 -0.0839
 5613W        W22087  15.386   7.932   3.693 -0.1227 -0.3789 -0.0811
 5614W        W22088  18.359   6.696  10.572  0.0153  0.1408 -0.1020
 5615W        W22089  13.912   7.110  11.354 -0.1566  0.0125 -0.0523
 5616W        W22090  18.467   1.221  13.626  0.2472 -0.2837  0.1665
 5617W        W22091  16.003  13.686  11.557  0.0164  0.0265 -0.0118
 5618W        W22092   2.420   8.409  14.198  0.1366  0.1037  0.0750
 5619W        W22093   8.531   2.727   0.670  0.0945 -0.1710  0.0207
 5620W        W22094  19.328  10.615   0.413 -0.2798 -0.0789  0.3869
 5621W        W22095   2.530   1.734   1.054  0.2509  0.2506  0.3939
 5622W        W22096   5.438   3.222  10.299 -0.0105 -0.2740 -0.0596
 5623W        W22097   4.127   2.626   2.121  0.0088  0.0040 -0.1179
 5624W        W22098   1.097   5.858  10.683  0.0945 -0.0774 -0.2734
 5625W        W22099   4.783  16.525  13.642 -0.0061  0.0175 -0.2149
 5626W        W22100  11.908  18.151   4.063 -0.0473  0.1866  0.2048
 5627W        W22101   7.185  14.826  12.589 -0.4533 -0.3159  0.2495
 5628W        W22102   2.246   5.238   1.012 -0.2965 -0.3404  0.1590
 5629W        W22103   6.970   6.854  12.083 -0.0989  0.3332 -0.2539
 5630W        W22104   8.857  13.824   5.486  0.2818  0.0052 -0.2584
 5631W        W22105  17.564   4.355   1.809 -0.3480  0.0457 -0.2998
 5632W        W22106  10.539  19.559  10.587 -0.2872 -0.1737  0.1685
 5633W        W22107  17.228  14.280   2.024 -0.0463  0.0726  0.1279
 5634W        W22108  13.773   0.969  11.250  0.0333 -0.4597  0.0105
 5635W        W22109  18.222   1.117  12.807 -0.1503 -0.2485 -0.1752
 5636W        W22110  17.085  12.824   1.997 -0.2198  0.0546  0.0377
 5637W        W22111   7.258   7.735   3.671  0.1708  0.0909  0.1672
 5638W        W22112   5.155  12.450   3.509  0.0408  0.1049 -0.0543
 5639W        W22113   9.415   9.149  12.201  0.2147  0.7544 -0.5307
 5640W        W22114  15.290   5.315   2.414 -0.1874  0.3095  0.3536
 5641W        W22115   9.321   2.314  12.768 -0.2269  0.3840 -0.2174
 5642W        W22116  16.679  14.901  12.916  0.2989 -0.2373  0.0252
 5643W        W22117   9.377  12.742   0.496 -0.1774 -0.0312 -0.0937
 5644W        W22118  16.850  16.280   1.219 -0.1513  0.2440  0.0171
 5645W        W22119  19.136   4.733   3.606 -0.3168 -0.0622 -0.3451
 5646W        W22120  12.105  12.218   3.890 -0.1177  0.1396  0.0251
 5647W        W22121   2.013   0.817   3.822  0.0911 -0.1611  0.0279
 5648W        W22122   4.911  18.456   4.446 -0.2246 -0.1001 -0.0013
 5649W        W22123  16.766   6.862  11.371 -0.1986 -0.0854 -0.0519
 5650W        W22124  11.932  14.475   3.611 -0.4041  0.2952  0.2837
 5651W        W22125  11.676  13.139  12.761  0.2131  0.0237 -0.0584
 5652W        W22126   4.786  14.831  12.335  0.0631  0.1657 -0.4093
 5653W        W22127   4.002   3.435  13.799  0.1388  0.0568  0.4072
 5654W        W22128   6.842   1.888  11.489  0.1282  0.1178  0.3121
 5655W        W22129   4.897  15.694   5.097 -0.0988  0.2261  0.2672
 5656W        W22130   5.566   7.725   3.386 -0.2143  0.1222  0.4140
 5657W        W22131   5.247   0.398   3.402  0.0664 -0.1531  0.1195
 5658W        W22132   3.929   9.375   1.131 -0.4000  0.1751  0.0754
 5659W        W22133  13.517  13.240   4.855  0.0330 -0.1983 -0.4043
 5660W        W22134  12.428  14.591  11.401  0.1285 -0.1689  0.2547
 5661W        W22135   5.056  17.418   0.725  0.0109  0.1525  0.2773
 5662W        W22136  17.316  15.049   5.296 -0.0891 -0.1118 -0.0777
 5663W        W22137   9.258  11.014   4.552  0.0077  0.1025  0.1806
 5664W        W22138  17.838   7.413   9.786 -0.0320  0.1456 -0.1641
 5665W        W22139  12.692   3.845   0.182  0.2937 -0.1101  0.0838
 5666W        W22140   1.253   3.514   4.611  0.2330  0.1369 -0.1133
 5667W        W22141   9.034   1.069  13.633  0.0495 -0.1076 -0.1089
 5668W        W22142   0.425   2.198   1.446  0.0740 -0.0998  0.0933
 5669W        W22143  18.295  16.998  14.083  0.0773 -0.0071  0.0085
 5670W        W22144   8.977  11.604   4.086  0.1560  0.2490  0.0461
 5671W        W22145   7.080   6.377   1.067 -0.2128 -0.2786 -0.1054
 5672W        W22146  10.750  15.187   0.176  0.0106 -0.4376  0.2609
 5673W        W22147   8.623  19.606   9.681 -0.1522 -0.1553 -0.1291
 5674W        W22148  12.699   0.739   2.143  0.0541  0.1548 -0.0575
 5675W        W22149  16.762   8.244   0.191 -0.0391 -0.1837 -0.1122
 5676W        W22150  13.894   9.300  13.994  0.0474  0.1739 -0.1269
 5677W        W22151   0.011  12.190   2.105 -0.2332 -0.3388  0.0104
 5678W        W22152  12.493  14.174  14.574 -0.2631  0.0607 -0.0073
 5679W        W22153  10.788  10.424   0.057  0.0080 -0.2193 -0.1219
 5680W        W22154  13.357  18.252  10.481  0.1701 -0.1840 -0.2075
 5681W        W22155  18.941  18.947   3.215 -0.2165  0.0119  0.2733
 5682W        W22156  13.347   2.232   0.422 -0.0088  0.1406  0.1128
 5683W        W22157  19.593   3.148   2.163  0.2682 -0.1033  0.3356
 5684W        W22158   0.996  13.454  13.857  0.0078  0.2367  0.0476
 5685W        W22159  17.354   7.842   2.596  0.2098  0.2174  0.0145
 5686W        W22160   3.959   4.668   2.689 -0.4241  0.1100  0.1900
 5687W        W22161  12.311  11.211  10.329 -0.1160  0.2186 -0.0342
 5688W        W22162   8.529   8.295   3.719  0.1471 -0.0522 -0.2652
 5689W        W22163   6.762  18.532   1.023 -0.1456  0.0635 -0.1167
 5690W        W22164  16.376   5.501  14.347 -0.3132  0.0226  0.3424
 5691W        W22165  14.364  10.556   3.974  0.0177 -0.2213 -0.1028
 5692W        W22166  16.280   6.796  11.578 -0.0821 -0.0346  0.2916
 5693W        W22167  15.004  15.006   3.574 -0.1863 -0.1978 -0.0125
 5694W        W22168  16.375   9.654   3.723  0.1468 -0.2454  0.1820
 5695W        W22169  19.461   2.128   2.163  0.3726 -0.2901  0.2145
 5696W        W22170  10.094   3.734   3.504  0.0739 -0.1180  0.1550
 5697W        W22171  19.438  19.318   8.859 -0.0501  0.0660  0.2265
 5698W        W22172   9.417   2.086  13.267 -0.1467 -0.0786 -0.0633
 5699W        W22173  19.583   2.525   3.435  0.0794  0.0807  0.0697
 5700W        W22174   1.988  12.183  11.053  0.1554  0.3339 -0.1364
 5701W        W22175   8.225   0.775   0.361 -0.1835  0.0265 -0.0359
 5702W        W22176   5.906   8.276  11.999 -0.0183 -0.1016  0.1467
 5703W        W22177  15.082  14.018  12.526 -0.0235  0.3531 -0.2784
 5704W        W22178  17.209  15.114   2.530 -0.1164 -0.2864 -0.5594
 5705W        W22179   0.382   1.946   4.030 -0.3407 -0.0298  0.2084
 5706W        W22180   3.279  17.580  12.547  0.1471 -0.1272  0.0675
 5707W        W22181  11.349  13.604   0.092  0.0158  0.2858  0.0769
 5708W        W22182  13.565  10.300  10.691 -0.2085 -0.0326 -0.0487
 5709W        W22183   6.115  10.413  14.554 -0.2200  0.2363  0.1402
 5710W        W22184  10.359  18.332   0.860 -0.1010 -0.0982 -0.0354
 5711W        W22185  18.430   8.744  13.325  0.1467 -0.3359  0.3328
 5712W        W22186   5.795   9.142  11.241  0.0703  0.1408 -0.0136
 5713W        W22187  10.753   7.607   9.668  0.0873  0.1399  0.0569
 5714W        W22188   2.888  11.869  14.430 -0.1412  0.1349 -0.2057
 5715W        W22189   2.494  15.061   3.514 -0.0498  0.4430  0.1771
 5716W        W22190  19.167  12.404   4.610  0.3549 -0.2130 -0.0573
 5717W        W22191  13.552  16.655   0.558 -0.2244 -0.0827  0.1497
 5718W        W22192   0.253   4.200   3.198  0.1253  0.0404 -0.0239
 5719W        W22193  10.542  15.315   4.752  0.1478  0.3411 -0.0498
 5720W        W22194  19.503   1.306  12.595 -0.1946 -0.2201 -0.0320
 5721W        W22195  14.563   3.236  10.458  0.0338  0.0773  0.2772
 5722W        W22196  19.074  11.767   4.265 -0.2903 -0.1303  0.0087
 5723W        W22197   3.424  18.299  14.041 -0.2047  0.3377  0.1690
 5724W        W22198  11.527   0.513   4.660 -0.2693  0.1032  0.0174
 5725W        W22199  17.649   9.592   3.788  0.1356  0.2159 -0.1824
 5726W        W22200  16.128   8.056   1.435 -0.1850 -0.1022 -0.3569
 5727W        W22201   7.355  16.876   5.197 -0.1286 -0.1714  0.2817
 5728W        W22202   4.850   2.744  13.744 -0.0369  0.0455 -0.0727
 5729W        W22203   3.745  18.238   3.896  0.0252 -0.1910 -0.0108
 5730W        W22204  14.186   1.332  14.527  0.0938  0.3588  0.1407
 5731W        W22205  11.966  15.442  11.172 -0.1134 -0.2686  0.1815
 5732W        W22206  12.058   3.813   1.693 -0.1524 -0.3803 -0.0036
 5733W        W22207  19.499   7.520   9.965  0.0884  0.2606 -0.2601
 5734W        W22208   6.006   5.499   0.990  0.1413  0.1994 -0.1108
 5735W        W22209  16.745  11.409  11.977  0.0350  0.2928  0.6124
 5736W        W22210   0.852   7.754  13.726  0.2550 -0.0125 -0.1431
 5737W        W22211  17.881  17.417   2.963 -0.2567  0.3267  0.1072
 5738W        W22212  16.280  19.554   2.819 -0.1519 -0.1008  0.0483
 5739W        W22213  13.292   7.413   3.684  0.0411  0.1921 -0.3771
 5740W        W22214  13.280   8.115  10.945  0.0951 -0.1506 -0.3182
 5741W        W22215  11.025  14.855   0.389 -0.0229 -0.3847 -0.1409
 5742W        W22216   2.199   5.412  12.821  0.2042 -0.0926  0.2102
 5743W        W22217   6.549  19.077   5.323  0.0466  0.0213 -0.0192
 5744W        W22218  15.028   9.358  12.208  0.0278  0.1060 -0.0224
 5745W        W22219   0.832   9.128  11.974 -0.2119 -0.1177 -0.1616
 5746W        W22220   9.246   7.065   1.396  0.1016 -0.1858 -0.3248
 5747W        W22221  16.145  11.667  12.612  0.1376 -0.1721 -0.2417
 5748W        W22222  13.651  16.399  12.027 -0.0302 -0.1744  0.0797
 5749W        W22223   1.359  15.451   4.790  0.3137 -0.2823  0.1734
 5750W        W22224   5.202  15.293  14.296  0.1760  0.3303 -0.1603
 5751W        W22225   5.350  10.181   3.950 -0.1913 -0.1008  0.2401
 5752W        W22226  18.323  15.424  12.998  0.0968  0.3630 -0.0928
 5753W        W22227   5.865  17.114   4.099  0.0187 -0.1405 -0.1059
 5754W        W22228  11.967   2.762  10.264  0.2863  0.1503  0.1770
 5755W        W22229  10.256   1.084  10.413 -0.0090 -0.0493 -0.1672
 5756W        W22230  16.054  16.197  10.850  0.2399  0.2656 -0.1908
 5757W        W22231  10.632   6.565   5.437 -0.2074  0.0072 -0.3079
 5758W        W22232   1.294   7.811  12.510 -0.2058  0.1010  0.1925
 5759W        W22233  18.036  12.080  13.912  0.1083 -0.3690 -0.3020
 5760W        W22234   7.669  14.404  13.216  0.1717 -0.0778 -0.3481
 5761W        W22235   1.719  14.474   1.124 -0.1970  0.2240  0.2508
 5762W        W22236  16.907   8.384  13.529 -0.2790  0.0627 -0.0450
 5763W        W22237   2.962  10.282  11.705 -0.3463  0.0748 -0.1282
 5764W        W22238   5.249   7.057   4.441  0.1403 -0.0422  0.2689
 5765W        W22239   3.435   9.824  11.017 -0.2684 -0.0137 -0.2278
 5766W        W22240   0.917   6.967  11.883 -0.0664  0.2495  0.1701
 5767W        W22241  17.665  14.035  10.802  0.0467 -0.1574  0.0504
 5768W        W22242   8.490   4.276   9.519 -0.4428 -0.0547  0.0898
 5769W        W22243  16.744  16.292   3.732  0.0056 -0.2334 -0.0198
 5770W        W22244   5.439  12.083   3.033 -0.2417 -0.1135  0.2832
 5771W        W22245   6.533  16.391   0.232  0.0289  0.0089 -0.1187
 5772W        W22246  15.900   3.699   2.013  0.0398 -0.1530 -0.0233
 5773W        W22247   9.045  19.226  11.481  0.1736 -0.0410  0.2322
 5774W        W22248   5.296   0.073  11.564 -0.0041  0.0885 -0.1005
 5775W        W22249   6.076   7.545   3.373 -0.0964 -0.2920 -0.0201
 5776W        W22250  19.423   5.295   0.957  0.6399  0.0428 -0.1045
 5777W        W22251   7.311   9.485  12.536  0.0020  0.1670 -0.1516
 5778W        W22252  14.133  19.219   4.562  0.3031 -0.1479 -0.1838
 5779W        W22253   6.195  10.093  10.870 -0.1085 -0.2140  0.1127
 5780W        W22254  19.592   8.298  10.280 -0.0645 -0.0876  0.2045
 5781W        W22255   6.637   8.862   4.340 -0.1947 -0.3772 -0.1445
 5782W        W22256   7.172   3.001  12.302 -0.2099  0.0046 -0.0276
 5783W        W22257   6.354  12.535   2.412 -0.0437 -0.0216  0.2905
 5784W        W22258   4.160  12.471  12.959 -0.2685  0.0579  0.0080
 5785W        W22259  18.743  12.315   0.019  0.0650  0.0936 -0.5150
 5786W        W22260   6.551   8.407   3.003 -0.0096 -0.1972  0.1447
 5787W        W22261   9.668  15.167  11.819  0.1480 -0.3657 -0.0384
 5788W        W22262   6.953  15.252   2.464 -0.1052  0.0021 -0.0764
 5789W        W22263  12.476  15.531  14.419  0.0508 -0.0720 -0.0530
 5790W        W22264   2.603   5.198   0.592 -0.1086 -0.1242  0.2481
 5791W        W22265  10.475  10.753   2.505 -0.0946 -0.1372  0.1774
 5792W        W22266   2.849   6.148  10.618 -0.3435  0.1354  0.0194
 5793W        W22267  17.876   3.893  12.709 -0.2468  0.0540  0.1389
 5794W        W22268   0.403  13.688  11.580 -0.0359  0.1992  0.1385
 5795W        W22269  19.209   6.442   1.607  0.2004 -0.0958 -0.1935
 5796W        W22270  10.423  12.623  14.654  0.1792  0.1959  0.0627
 5797W        W22271   8.956   8.474  10.981 -0.2424  0.1497  0.1360
 5798W        W22272   7.019   2.463   3.105  0.2687 -0.2288  0.1757
 5799W        W22273  12.788  15.013  14.441 -0.0534 -0.0558  0.0373
 5800W        W22274   9.444  10.681   0.193 -0.0563  0.1200  0.2289
 5801W        W22275   8.156  13.746  13.993  0.1686  0.3787 -0.1803
 5802W        W22276   1.100  11.782   0.882 -0.0219 -0.6048  0.1758
 5803W        W22277  13.256  14.835  11.424 -0.2749 -0.1492 -0.1580
 5804W        W22278   7.916   3.432   0.632  0.1522  0.0131 -0.0787
 5805W        W22279   3.867  13.028   3.290  0.1934 -0.0793  0.0045
 5806W        W22280  17.261   2.088  10.228  0.1339 -0.0638  0.3199
 5807W        W22281   7.463  15.565   0.960  0.0797 -0.0107  0.2468
 5808W        W22282   7.233  16.836   1.332  0.2993  0.1369  0.0879
 5809W        W22283   0.093   5.061  13.105  0.0618  0.3631 -0.0563
 5810W        W22284  11.973  16.204   5.519  0.2633  0.2321 -0.1040
 5811W        W22285  11.216  17.706   0.796 -0.2153  0.0273  0.1108
 5812W        W22286   7.749  17.541  13.616  0.0637 -0.1464  0.0675
 5813W        W22287   0.594   5.561   5.095  0.2283  0.3496  0.1463
 5814W        W22288  17.808   3.888  13.213  0.0336 -0.1263 -0.1509
 5815W        W22289   7.790   6.352  12.162  0.0757  0.6628  0.3257
 5816W        W22290   9.332   2.646   3.978 -0.7157  0.2387  0.1603
 5817W        W22291  14.185   6.508  13.173 -0.2746  0.1926 -0.2274
 5818W        W22292  13.529   8.653  12.047 -0.0263 -0.0916 -0.1341
 5819W        W22293  14.071  19.458  14.242  0.3296 -0.3417  0.2506
 5820W        W22294   8.866   6.222  10.519 -0.1962 -0.0812 -0.5311
 5821W        W22295  19.008   8.630   0.017  0.2723  0.0097  0.0127
 5822W        W22296  14.914   7.837  13.138 -0.3413  0.0043 -0.1480
 5823W        W22297   0.826   3.451   9.637 -0.0344  0.0651 -0.1444
 5824W        W22298   9.753  12.671  10.589  0.3170 -0.1109 -0.1126
 5825W        W22299   0.128  12.209   3.543 -0.1130  0.1914 -0.0305
 5826W        W22300   6.000  14.516   0.968  0.0766  0.0273 -0.1207
 5827W        W22301  12.374   6.872   1.050 -0.0333 -0.0069  0.1573
 5828W        W22302   0.783  12.568   1.676  0.1799 -0.1902 -0.4697
 5829W        W22303  18.513   5.238   1.314  0.1191  0.0198  0.1957
 5830W        W22304   8.970   8.818  12.275  0.1707  0.1461  0.1739
 5831W        W22305  15.564   0.566  11.627  0.1072 -0.3845 -0.0820
 5832W        W22306  19.273   7.540   3.956 -0.1599 -0.0239 -0.0419
 5833W        W22307  12.938   5.158   9.347 -0.0544  0.1029 -0.4840
 5834W        W22308   9.197  13.852  12.495 -0.0701 -0.1165  0.1749
 5835W        W22309  12.189  18.105   0.280  0.3875 -0.2090  0.0442
 5836W        W22310  12.996  18.777  12.666 -0.2096 -0.0770  0.2018
 5837W        W22311  13.422  16.765   4.494 -0.3413  0.1015  0.2205
 5838W        W22312  18.264   3.287   4.593 -0.0050 -0.0636  0.1838
 5839W        W22313   4.294   4.990  13.714  0.1835 -0.1413  0.1037
 5840W        W22314   5.555  18.340  14.130 -0.3907  0.2826  0.1708
 5841W        W22315   3.755  14.568  11.983 -0.0141 -0.1983  0.0235
 5842W        W22316   4.840   6.176  14.104 -0.0027 -0.0704 -0.0225
 5843W        W22317   6.751   2.619  14.181 -0.0072  0.1444  0.0756
 5844W        W22318   5.862   7.802   1.693  0.1065 -0.2209  0.3314
 5845W        W22319  17.580  14.478   9.285 -0.3744  0.2120  0.0516
 5846W        W22320  12.738  10.764  13.648 -0.0324 -0.0016 -0.1565
 5847W        W22321   2.233   4.890  10.308 -0.0949 -0.0519 -0.0426
 5848W        W22322   5.992  14.321  12.256  0.1453  0.1192  0.0566
 5849W        W22323   3.817   2.558   1.676  0.2330  0.3363 -0.1289
 5850W        W22324   8.886   4.303   0.940 -0.2240  0.0393  0.1342
 5851W        W22325  11.113   9.974  11.253  0.2287  0.0285  0.0347
 5852W        W22326   9.579   4.864  13.213 -0.1043  0.1824 -0.2278
 5853W        W22327  12.873   9.535  10.425 -0.0687 -0.1568  0.0068
 5854W        W22328  13.878  18.318  11.265  0.2490 -0.2448  0.1652
 5855W        W22329  17.598  15.456   0.525 -0.2069  0.2856  0.1258
 5856W        W22330  19.212   5.433   0.443  0.0029  0.1138  0.3289
 5857W        W22331  15.727  17.507   0.346 -0.0647 -0.1518  0.1483
 5858W        W22332  18.611   0.240   0.787 -0.1444 -0.1646 -0.0174
 5859W        W22333   0.198  19.587   2.444 -0.3501 -0.4681 -0.2617
 5860W        W22334  17.697   7.952  10.274  0.0427 -0.0720 -0.2724
 5861W        W22335   0.425  17.100  12.916  0.0495  0.0141  0.3680
 5862W        W22336  13.912   4.827  10.316 -0.0436 -0.3211  0.0655
 5863W        W22337  14.232  11.924   0.817  0.1410  0.1816  0.0118
 5864W        W22338   5.471  17.560  12.072  0.1661  0.1178 -0.4153
 5865W        W22339  13.235  13.765   0.483 -0.0620 -0.0464 -0.0598
 5866W        W22340   9.751  10.101   5.193 -0.1616 -0.2839 -0.0337
 5867W        W22341   6.359  19.023  13.528  0.1627 -0.1525 -0.2390
 5868W        W22342   1.711  19.267  10.692 -0.2198 -0.0181 -0.4570
 5869W        W22343  16.925  17.219   0.604 -0.0620 -0.0925 -0.0585
 5870W        W22344   2.915  15.942   0.225 -0.4336  0.5019 -0.0796
 5871W        W22345   0.221   1.801  12.968 -0.1350  0.0976  0.3378
 5872W        W22346  18.268   9.550   3.033  0.0339 -0.1653 -0.0639
 5873W        W22347  16.601  15.090   9.628 -0.0232 -0.0022  0.3632
 5874W        W22348  10.338   5.225   4.596  0.4950  0.0162  0.1647
 5875W        W22349  13.406   3.151  13.954 -0.2865  0.1492  0.0004
 5876W        W22350  15.540   5.528  10.946  0.1365 -0.1910 -0.0723
 5877W        W22351  11.211  16.948  14.585 -0.0743 -0.1853  0.3599
 5878W        W22352   6.742  18.433  11.632 -0.2907 -0.2748 -0.0905
 5879W        W22353   0.750  17.576  11.566 -0.1634 -0.3662 -0.2150
 5880W        W22354   1.829   1.753   9.685 -0.1111  0.2826 -0.2126
 5881W        W22355  10.941   5.618  10.509 -0.0065  0.1026 -0.1062
 5882W        W22356  16.867  16.533   0.190  0.2988  0.0692  0.4456
 5883W        W22357   2.556   5.505   3.257 -0.1957  0.0021 -0.2569
 5884W        W22358  13.849  11.922  12.031 -0.0167 -0.0229 -0.0551
 5885W        W22359   8.435  18.845   4.514 -0.2733  0.0447 -0.2047
 5886W        W22360  18.582  15.551   1.967 -0.2705  0.0297 -0.2259
 5887W        W22361   3.715  13.918   3.404  0.3372 -0.1089 -0.1393
 5888W        W22362   8.984   1.717  11.784  0.1371  0.2172 -0.1753
 5889W        W22363  15.762   0.155   3.663 -0.0467  0.1046  0.0260
 5890W        W22364   1.810  15.757  11.370  0.1097  0.0565  0.0673
 5891W        W22365  11.193   8.497   0.357  0.0563  0.3008 -0.2934
 5892W        W22366  18.012   0.261   1.444  0.2788  0.2329  0.0624
 5893W        W22367  13.186   5.895   4.553 -0.0021 -0.0222 -0.3936
 5894W        W22368   2.230  14.714   9.457 -0.1873 -0.0974 -0.1009
 5895W        W22369  12.289   9.979   0.455  0.0567 -0.2751 -0.0833
 5896W        W22370  15.670  10.648   0.747 -0.2200 -0.1713 -0.0799
 5897W        W22371  18.719  15.156   0.374 -0.1881 -0.1337 -0.0518
 5898W        W22372  18.839   9.572  12.279 -0.0317 -0.0075 -0.0091
 5899W        W22373  14.635  18.753  12.655  0.2697 -0.1474  0.0506
 5900W        W22374   3.508   7.260   4.246 -0.0444  0.1223  0.1753
 5901W        W22375  13.551  14.182  13.565 -0.0023 -0.1936 -0.1581
 5902W        W22376   7.850   9.504   0.287 -0.2945  0.5505  0.1207
 5903W        W22377   8.118   3.378  11.562  0.0205  0.0459  0.2263
 5904W        W22378  17.547  10.195   1.787  0.2677 -0.2350  0.1346
 5905W        W22379   4.717  16.686   1.093 -0.0497 -0.1782  0.0345
 5906W        W22380   0.153  15.796   4.832 -0.0686  0.2208  0.1868
 5907W        W22381   8.034   3.628   1.635 -0.2863 -0.2801  0.4140
 5908W        W22382   2.986   2.584   3.851  0.0598 -0.2439  0.1878
 5909W        W22383   9.472   9.790   1.186 -0.0173  0.2935 -0.0195
 5910W        W22384  17.475   1.914  14.142  0.0122  0.2498 -0.1235
 5911W        W22385   6.666   1.824  13.800  0.2085 -0.0902 -0.2357
 5912W        W22386  15.649   4.614   0.221 -0.1586 -0.0231  0.1596
 5913W        W22387   1.383  14.473  12.713 -0.4558  0.0947 -0.3549
 5914W        W22388  14.028  12.704  14.007  0.2211 -0.1637  0.0453
 5915W        W22389  11.176  16.005   4.385  0.0984  0.1949 -0.0307
 5916W        W22390   5.580  17.175  14.283 -0.0657 -0.2133  0.2490
 5917W        W22391  10.185   0.161   1.736  0.1156  0.0458 -0.0517
 5918W        W22392  16.674  11.280   1.308  0.2105  0.0184  0.0103
 5919W        W22393  11.433   8.592   1.715  0.1520 -0.3505 -0.1646
 5920W        W22394  14.335  12.689   2.629 -0.0966  0.1245 -0.5437
 5921W        W22395   5.724  12.818   3.193  0.2328  0.2903 -0.0058
 5922W        W22396  18.541  19.560  13.914 -0.4035  0.1198  0.2044
 5923W        W22397  12.676  16.070   2.924  0.1675 -0.0755 -0.1602
 5924W        W22398   0.352  18.482  13.398 -0.0133 -0.2398  0.0925
 5925W        W22399  11.580  15.449  12.529  0.1116 -0.0800 -0.2919
 5926W        W22400  14.619   1.483   0.715  0.3399 -0.0242  0.2416
 5927W        W22401  17.105  10.008   5.304  0.0151  0.4500 -0.3020
 5928W        W22402   7.768   1.973   0.055  0.0602  0.1389 -0.0679
 5929W        W22403   3.466  12.367   3.510 -0.1145  0.1260  0.1129
 5930W        W22404   6.516  11.972  13.081  0.0038  0.4182  0.3036
 5931W        W22405   1.945   7.984  14.269  0.0858 -0.2291 -0.0736
 5932W        W22406  13.066  19.324  12.867 -0.2524 -0.2658 -0.2131
 5933W        W22407   2.938  14.359  12.392 -0.2858  0.2985 -0.3300
 5934W        W22408  11.819   8.613  14.452  0.0888  0.2438  0.0021
 5935W        W22409   7.016   1.462  13.082  0.1221  0.4489  0.0095
 5936W        W22410   2.040   3.693  12.533 -0.1117  0.0339 -0.4961
 5937W        W22411  18.279   4.024  13.147 -0.0327  0.1236 -0.1295
 5938W        W22412   4.323  19.364   4.718  0.2176 -0.1052  0.0082
 5939W        W22413   0.502  12.439  11.206  0.1115  0.1809  0.0557
 5940W        W22414  19.406   2.294   5.528  0.0590 -0.2161 -0.2666
 5941W        W22415  14.088   3.954   1.629  0.1521 -0.0239 -0.1762
 5942W        W22416   9.581   2.784   5.313 -0.1212  0.1148 -0.2759
 5943W        W22417   6.347  12.166  14.513 -0.0391  0.2152  0.2201
 5944W        W22418   2.589  16.900  11.090 -0.1414  0.2005  0.0188
 5945W        W22419  15.466   7.692   2.855  0.2111 -0.1272 -0.2137
 5946W        W22420  12.238  10.981   3.613  0.1844  0.0947 -0.3040
 5947W        W22421   3.193  18.751   0.608  0.0221 -0.2867  0.3225
 5948W        W22422   2.952   2.924   0.349 -0.0440 -0.3611  0.0371
 5949W        W22423  12.218  15.175   0.380 -0.2831 -0.1426 -0.0523
 5950W        W22424   0.467   8.521   1.684  0.0700  0.2452  0.0251
 5951W        W22425  19.595   5.223   0.235  0.5238 -0.1024 -0.2544
 5952W        W22426   5.823   0.888   0.645 -0.3691 -0.1850  0.0501
 5953W        W22427   4.636   8.728   0.695 -0.1428  0.0386 -0.0915
 5954W        W22428   2.967  17.199  11.882  0.0362 -0.2389  0.2606
 5955W        W22429  17.938   6.277   0.394 -0.1232 -0.1472  0.0413
 5956W        W22430  17.799   3.895  11.185 -0.2525  0.1803 -0.3930
 5957W        W22431   8.664   9.546  11.042  0.4292  0.1171 -0.0303
 5958W        W22432  13.137   0.286  11.461  0.1612 -0.2231  0.2256
 5959W        W22433  10.581   5.590   4.217 -0.1590  0.2138 -0.1033
 5960W        W22434  11.919  12.576   4.678  0.0551  0.4410  0.0270
 5961W        W22435   1.589   7.166   3.318  0.0726 -0.1887 -0.0218
 5962W        W22436   3.544  17.072   4.794 -0.1057  0.2562 -0.1075
 5963W        W22437  14.972  15.621  11.219  0.1560  0.2689 -0.0452
 5964W        W22438  16.065  16.403   1.547  0.1182  0.0211 -0.1285
 5965W        W22439   2.370   4.493  11.190  0.0621 -0.1696  0.1096
 5966W        W22440  15.580   0.654  12.172 -0.3077  0.2403  0.1737
 5967W        W22441   4.220  16.512  12.133  0.0620  0.1527  0.2148
 5968W        W22442  14.955  17.030   4.599  0.0608  0.1902  0.0405
 5969W        W22443  12.988  11.853  10.170  0.3229  0.0113  0.1758
 5970W        W22444   9.899   8.938   0.387  0.2173 -0.3801 -0.2703
 5971W        W22445  11.176  19.446  14.268  0.1492  0.1454  0.2125
 5972W        W22446   2.087  16.121   1.894 -0.0134  0.1546  0.1276
 5973W        W22447  11.922   7.864   3.718  0.3686  0.0219  0.3051
 5974W        W22448  15.839  15.514   0.084 -0.1009  0.0425  0.0445
 5975W        W22449   6.191  14.192   1.261  0.0771  0.3955 -0.1111
 5976W        W22450   5.919  14.591   2.472  0.1518  0.1215 -0.0127
 5977W        W22451   6.892   1.434   4.241  0.2751 -0.1340  0.1057
 5978W        W22452  18.702  10.545   2.927 -0.0193 -0.2980  0.2294
 5979W        W22453  16.408  18.949  10.653  0.1716  0.0841  0.0897
 5980W        W22454   4.360   3.166  12.409  0.1048  0.3822 -0.2288
 5981W        W22455   4.344   3.149   0.590 -0.1621 -0.4160 -0.1570
 5982W        W22456   3.800   7.099   0.836 -0.0167 -0.3185 -0.1477
 5983W        W22457   9.118  11.791   0.991  0.2016  0.0467  0.0445
 5984W        W22458   5.806  13.525  11.871  0.1153 -0.0530  0.0419
 5985W        W22459   4.741   0.500  11.611  0.2356 -0.1309  0.0038
 5986W        W22460  18.037   7.182   0.101  0.0932 -0.1896  0.2821
 5987W        W22461   7.184   8.947   2.463  0.2238 -0.2500  0.0212
 5988W        W22462  11.055   7.433   5.188  0.3484  0.3376  0.1436
 5989W        W22463   6.584  12.577   1.369  0.1649 -0.0273 -0.0041
 5990W        W22464  15.443  11.094   0.752  0.2111  0.2341  0.1675
 5991W        W22465   0.122  17.796  13.568  0.0720  0.1303 -0.0340
 5992W        W22466   1.364   4.728   3.840  0.1146 -0.3475 -0.0016
 5993W        W22467  15.006   4.146   1.913  0.1183  0.0513  0.5639
 5994W        W22468   8.222  14.457   1.967 -0.1728  0.2352  0.3390
 5995W        W22469  10.471  11.353   0.984  0.1466  0.3486 -0.2489
 5996W        W22470  13.766   5.150   1.610  0.0926  0.0897 -0.1133
 5997W        W22471  13.135   6.027  13.463  0.2221 -0.2804 -0.1002
 5998W        W22472   3.742   1.856   0.559 -0.1862  0.1153 -0.1557
 5999W        W22473  19.615   6.298  11.012  0.3957 -0.0890 -0.0792
 6000W        W22474   0.661  12.733  10.779  0.0477 -0.2769  0.2316
 6001W        W22475   2.857  10.689   1.258 -0.0829  0.0705  0.2229
 6002W        W22476  17.709  18.300  11.165 -0.3200  0.0146  0.2832
 6003W        W22477   6.355  13.892  14.566  0.1547  0.0984 -0.2183
 6004W        W22478   1.324  14.384   3.050 -0.0347 -0.1320  0.1261
 6005W        W22479   3.281  17.737  11.277  0.3916 -0.3587 -0.0057
 6006W        W22480   9.047  10.330   2.370  0.1508  0.2964 -0.2015
 6007W        W22481  17.975   9.814  12.250 -0.2375 -0.2693 -0.2326
 6008W        W22482   1.058   0.992   4.468 -0.1727  0.1252 -0.1188
 6009W        W22483  13.821  12.941   5.163  0.0827 -0.1223 -0.2848
 6010W        W22484   5.004   2.954  13.259 -0.1375  0.2124  0.1055
 6011W        W22485   2.876  11.587  11.942 -0.2669  0.1666 -0.0296
 6012W        W22486  12.270  14.651   1.049  0.0760  0.0004  0.0297
 6013W        W22487   4.191  16.648   4.165  0.4569  0.1353 -0.0748
 6014W        W22488  15.823  12.054  12.155  0.3668  0.1883  0.3862
 6015W        W22489   0.788   3.042  10.952  0.0681  0.0013 -0.1031
 6016W        W22490  14.770  13.391  11.541  0.0345 -0.3265  0.3012
 6017W        W22491   3.776  18.179   2.108  0.0363  0.1613 -0.0834
 6018W        W22492   2.639   4.735   4.502  0.0283 -0.3087 -0.0410
 6019W        W22493  16.774  14.934  11.838  0.2887 -0.1474 -0.0138
 6020W        W22494  18.894  16.622   4.809  0.3488  0.1495 -0.0811
 6021W        W22495  16.641  12.138   1.133  0.3169  0.1388 -0.0385
 6022W        W22496  17.363   7.013   3.299  0.1632 -0.1224  0.0721
 6023W        W22497   5.121   4.524  13.744  0.0481  0.1584 -0.0566
 6024W        W22498   8.439   8.060   3.194  0.2000  0.1342 -0.2450
 6025W        W22499  16.775   2.241  11.218  0.0880 -0.2567  0.1492
 6026W        W22500  16.964  16.455   3.366  0.3272  0.1926 -0.0399
 6027W        W22501  18.331  14.423   0.037  0.0522  0.3329  0.0386
 6028W        W22502   8.255  11.517  13.490 -0.1579 -0.1463  0.0039
 6029W        W22503  18.018  18.165   3.808 -0.0773  0.0381  0.0309
 6030W        W22504  18.452   8.917   5.064  0.0858 -0.2959  0.1930
 6031W        W22505   0.553   7.705   0.749  0.4331 -0.0604  0.0432
 6032W        W22506  11.151  10.096  12.164  0.0833  0.0761 -0.0123
 6033W        W22507   3.524   0.418  10.618  0.0159  0.2898 -0.0196
 6034W        W22508   5.340  10.425   3.041 -0.0965 -0.1251 -0.4597
 6035W        W22509  11.663   1.500  13.091  0.0001  0.0759  0.3227
 6036W        W22510  12.666  16.748   3.808 -0.1066  0.0549  0.1429
 6037W        W22511  14.633  17.811  11.227  0.0737 -0.2473  0.2115
 6038W        W22512   4.604  10.680  10.786  0.1523  0.0623  0.1635
 6039W        W22513   0.740   1.130  12.404  0.0813  0.1740  0.1687
 6040W        W22514  11.817   5.176  10.121  0.2094 -0.1660  0.2331
 6041W        W22515   4.015   5.050   1.785 -0.0053 -0.0679 -0.0524
 6042W        W22516   5.019   5.875  11.182  0.2126 -0.3199 -0.0091
 6043W        W22517  18.980   1.195  13.544  0.2820 -0.0660 -0.0116
 6044W        W22518  19.246  10.346   1.553 -0.0928  0.2856 -0.1071
 6045W        W22519  17.341   2.866   0.242 -0.2765  0.1555  0.2457
 6046W        W22520   0.320  10.165   0.598 -0.2526 -0.0866  0.2235
 6047W        W22521   2.759   5.521   2.757  0.0565 -0.5363  0.2690
 6048W        W22522  12.922   9.676   5.343  0.1726  0.0691  0.2489
 6049W        W22523  16.878  10.846   1.302  0.0369 -0.0579  0.0872
 6050W        W22524  17.289   4.803  14.007 -0.0571  0.3247  0.0659
 6051W        W22525  15.646  15.642  11.782 -0.2224 -0.0862  0.0568
 6052W        W22526   7.915  11.107   3.577  0.2372 -0.0644 -0.0911
 6053W        W22527  15.428   3.110  12.162 -0.0868 -0.2919 -0.1064
 6054W        W22528  15.613   9.060   2.944 -0.0248  0.0958 -0.0656
 6055W        W22529   3.729   9.030   0.840 -0.1759 -0.4048 -0.1356
 6056W        W22530   9.290  16.803  13.135 -0.0285 -0.1215 -0.4167
 6057W        W22531   9.706   0.246   3.265  0.1925 -0.0031 -0.1238
 6058W        W22532  17.170  19.100  12.064 -0.1516  0.1024  0.0278
 6059W        W22533   1.458  17.637  11.027  0.0635 -0.1201 -0.0811
 6060W        W22534   0.072   4.269  12.588 -0.0381 -0.2792 -0.0159
 6061W        W22535   9.970  10.755   2.365 -0.1673  0.0891  0.0197
 6062W        W22536  16.286   9.448  11.417  0.2634 -0.1053 -0.0794
 6063W        W22537  12.921   7.232  11.047  0.2567 -0.0212  0.0607
 6064W        W22538   4.956  13.258  10.239 -0.0748  0.2854  0.1035
 6065W        W22539   6.002   2.370  12.389  0.2432 -0.2268  0.0076
 6066W        W22540  19.560   1.591   0.448 -0.4859  0.1188  0.1092
 6067W        W22541   8.403   8.323   2.004  0.1229 -0.1125  0.0849
 6068W        W22542   6.760  17.092  12.957  0.0047  0.1124 -0.0908
 6069W        W22543  18.336  15.957   3.144  0.0273  0.0793 -0.1619
 6070W        W22544   9.236   5.852   0.812  0.0298  0.3884 -0.0898
 6071W        W22545  16.683  14.455  12.771  0.0551  0.2433  0.2886
 6072W        W22546  19.562   0.929   2.201 -0.1034  0.1246  0.2683
 6073W        W22547   1.203  19.167  14.195 -0.1673 -0.3816  0.4984
 6074W        W22548  11.818   3.019   4.842  0.0702  0.2313  0.2793
 6075W        W22549  18.513  15.667  11.251  0.5094  0.0030  0.2276
 6076W        W22550  19.572  18.628  10.470  0.0336 -0.2040  0.0347
 6077W        W22551   8.761   4.978   0.618  0.0013 -0.1208 -0.2589
 6078W        W22552   9.936  19.256   3.730 -0.0319  0.2890  0.1734
 6079W        W22553  10.991  17.168   2.390  0.2066 -0.2622 -0.1832
 6080W        W22554   7.378  18.485  10.785 -0.0894 -0.1523 -0.0636
 6081W        W22555   9.587   8.528  14.165  0.0195  0.1498  0.1663
 6082W        W22556   5.163   9.222  14.258 -0.0809  0.2448  0.0653
 6083W        W22557   1.772   6.967  13.897  0.0651 -0.0902  0.2128
 6084W        W22558   4.310   9.139   0.762  0.0675  0.0371  0.2011
 6085W        W22559   3.936   2.414   4.680 -0.0032  0.1099  0.0156
 6086W        W22560  19.364  16.648   5.146  0.2547 -0.2539  0.0737
 6087W        W22561  10.313   4.909   9.284 -0.1128 -0.0703  0.2050
 6088W        W22562   2.082  15.892  12.572  0.0317 -0.2222  0.0069
 6089W        W22563   0.646   8.060   3.089  0.1679 -0.0247  0.1425
 6090W        W22564  15.665  16.827  11.510  0.4478 -0.2139  0.1198
 6091W        W22565   9.074  10.323   9.800 -0.1037 -0.0871 -0.0491
 6092W        W22566   9.686   0.294  13.983  0.1342  0.0057 -0.0373
 6093W        W22567  18.525  13.252   1.323 -0.2561 -0.0966  0.1117
 6094W        W22568   2.027  12.239  12.907  0.0830 -0.3452 -0.1257
 6095W        W22569   3.079   5.994   2.283 -0.1744 -0.1139 -0.2153
 6096W        W22570   3.665   9.779  12.059  0.2599 -0.2423  0.0771
 6097W        W22571   6.670  15.716  14.109  0.1070 -0.3861  0.2262
 6098W        W22572   3.912   3.824   1.254 -0.2168  0.4572 -0.0125
 6099W        W22573   0.328  16.606  13.102  0.3279 -0.0666  0.1234
 6100W        W22574   7.126  12.765  10.483 -0.0622 -0.3153 -0.2120
 6101W        W22575   3.754   6.216  10.246 -0.0167 -0.0397  0.0576
 6102W        W22576   5.578   6.305   3.439  0.1164  0.0244  0.3874
 6103W        W22577  10.933  10.942   3.655  0.0904  0.2173 -0.0387
 6104W        W22578   4.515  15.158  13.915 -0.2047 -0.1924 -0.4070
 6105W        W22579  16.654  17.063   4.253  0.1394 -0.4053  0.1273
 6106W        W22580  11.404   2.987   0.620  0.0342  0.0966 -0.2373
 6107W        W22581   7.794   1.444   1.034  0.1047 -0.1212  0.0021
 6108W        W22582  17.572  12.997   4.021 -0.0286  0.0104  0.0459
 6109W        W22583   5.623   0.761   9.880 -0.2994  0.0420 -0.0736
 6110W        W22584   0.087   7.631   0.527 -0.0864 -0.3387  0.4421
 6111W        W22585   7.369  16.411  14.311 -0.0769 -0.1018 -0.4585
 6112W        W22586   6.154   3.632  12.719  0.4595 -0.2191 -0.1560
 6113W        W22587   2.005   6.473   3.357  0.0720 -0.1233 -0.1060
 6114W        W22588   6.496   8.201   0.526 -0.3487 -0.2389  0.1770
 6115W        W22589   7.173  14.203   1.089 -0.2405 -0.0466  0.3304
 6116W        W22590   9.656   9.485   1.670 -0.0003  0.1196  0.0489
 6117W        W22591  10.993  11.671   2.240  0.1370  0.0495 -0.0850
 6118W        W22592  13.718  13.529   4.465 -0.1826  0.1856 -0.0146
 6119W        W22593   1.666  15.838   0.533  0.0331  0.1286 -0.1837
 6120W        W22594   2.924  12.558  11.739 -0.3671 -0.0988 -0.1526
 6121W        W22595   2.173   9.760   1.263 -0.2341 -0.5596 -0.2889
 6122W        W22596  19.018  16.935   1.752  0.0495  0.0617  0.4153
 6123W        W22597   9.719   3.465   3.677  0.0285 -0.0792  0.1833
 6124W        W22598   6.293  13.773   1.689 -0.2014  0.0333  0.0358
 6125W        W22599  14.338  10.698  10.887  0.0410  0.2139  0.2563
 6126W        W22600   9.601   2.760   2.576  0.1740  0.1931  0.1273
 6127W        W22601   9.687  10.696  14.423  0.1121 -0.0392 -0.0137
 6128W        W22602   9.243   8.983   9.959 -0.2090 -0.1177  0.0249
 6129W        W22603  14.354   5.932   1.285  0.3807  0.3542  0.4482
 6130W        W22604   2.137  15.654   3.049 -0.2966  0.0740  0.1902
 6131W        W22605   2.237  16.559  11.922  0.1120  0.0229 -0.2073
 6132W        W22606   2.393   2.943  11.001 -0.3493  0.1963 -0.0102
 6133W        W22607   2.264  17.315  10.387  0.0150 -0.1503 -0.0520
 6134W        W22608   2.457   7.723   3.197  0.3280 -0.0169 -0.0891
 6135W        W22609   5.785   6.432   0.760 -0.0360 -0.0346  0.0718
 6136W        W22610  10.631   4.722  13.579  0.0271 -0.1038 -0.0624
 6137W        W22611  16.108  14.516  10.472 -0.5069  0.2147  0.2290
 6138W        W22612   0.541  15.150   5.243 -0.0198  0.2131 -0.0667
 6139W        W22613  12.913  15.956  12.005  0.3312  0.1984  0.0517
 6140W        W22614  18.870   6.475  10.600  0.0259  0.0844  0.1897
 6141W        W22615  14.662  11.211   3.268  0.1607 -0.0582  0.4623
 6142W        W22616  13.984  15.485  12.413  0.3306  0.1703  0.0596
 6143W        W22617   2.921  15.193   3.252  0.0585  0.0909  0.1677
 6144W        W22618  12.567  17.363   2.440 -0.0676  0.0264  0.0901
 6145W        W22619  13.672   2.674   1.515 -0.1016  0.2144 -0.0514
 6146W        W22620  10.234  17.607   3.908 -0.1037 -0.2177  0.0980
 6147W        W22621   6.625   5.607  11.629  0.2093 -0.0605 -0.0197
 6148W        W22622   8.062  11.529   0.831 -0.0954  0.0457 -0.1517
 6149W        W22623   8.191  18.923   5.726 -0.2963 -0.2395 -0.2161
 6150W        W22624   9.248   8.168  14.279  0.0866 -0.1324  0.1360
 6151W        W22625   1.814  15.588  10.873 -0.3767 -0.2801 -0.1253
 6152W        W22626  14.600   3.206   1.193 -0.1499  0.0606  0.1904
 6153W        W22627   1.677   7.634   3.510 -0.1218 -0.2262  0.0635
 6154W        W22628   0.908  17.119   1.126  0.1133  0.1361  0.0089
 6155W        W22629   4.956  12.101   2.763 -0.1117 -0.0314 -0.2936
 6156W        W22630   8.940  11.204  14.104  0.1988 -0.0332  0.0031
 6157W        W22631   6.056  12.254  11.285 -0.1329  0.0005  0.2150
 6158W        W22632   5.979  16.349   2.559 -0.2666 -0.0016 -0.0731
 6159W        W22633  16.538   7.260  12.564 -0.1956  0.0958  0.1285
 6160W        W22634  13.177  13.723   4.749  0.2533 -0.4451 -0.3615
 6161W        W22635   1.475  18.901   2.165  0.0484  0.2052 -0.1779
 6162W        W22636  17.737  18.231  13.846 -0.0211 -0.0365 -0.0905
 6163W        W22637   5.517   3.879   1.103  0.3078 -0.1535 -0.1226
 6164W        W22638  15.583   0.129  11.844 -0.0794 -0.0506 -0.0595
 6165W        W22639   3.470   4.320  12.623  0.0685 -0.1598  0.0650
 6166W        W22640  12.530   9.170  12.651 -0.1697  0.0657  0.1803
 6167W        W22641   1.862   5.529  10.162  0.2393 -0.2048  0.2260
 6168W        W22642  15.492   8.688   4.536 -0.0906 -0.0251 -0.0900
 6169W        W22643   2.764   5.386  11.741 -0.3925 -0.0145  0.1630
 6170W        W22644  15.827   6.467  12.892  0.1008  0.0222  0.1148
 6171W        W22645  18.795  13.785   4.640 -0.2117 -0.1791  0.0861
 6172W        W22646  13.633  13.156   0.163 -0.0719 -0.3088  0.1286
 6173W        W22647  14.281  15.762  10.873 -0.4085 -0.1714 -0.1034
 6174W        W22648  13.239  14.207   2.680  0.0605 -0.1800 -0.2413
 6175W        W22649   5.498   8.885   0.447 -0.1550  0.1042 -0.1175
 6176W        W22650   6.869  16.586   9.776  0.2804 -0.2728 -0.1253
 6177W        W22651   1.322   0.730   2.956 -0.0769  0.2893  0.1988
 6178W        W22652   3.655  16.872   0.063  0.0367  0.0826  0.1157
 6179W        W22653  12.479   3.948   1.141  0.1198  0.4865 -0.2794
 6180W        W22654   4.382  19.245   2.621 -0.0768 -0.0502  0.4303
 6181W        W22655   0.743   7.709  14.448 -0.3259  0.2891 -0.0725
 6182W        W22656   7.503   5.698   4.552 -0.2312  0.0678  0.2146
 6183W        W22657   5.320   6.794   0.622  0.0870 -0.0271  0.1846
 6184W        W22658  16.430   0.182   1.949 -0.1189  0.2097 -0.2474
 6185W        W22659   7.841   3.462  12.922  0.0242  0.2601 -0.2107
 6186W        W22660   1.977   7.962   2.614 -0.2417  0.4996  0.1829
 6187W        W22661  14.107   4.253   0.857  0.0231  0.0915 -0.2442
 6188W        W22662   0.009   2.493  14.395  0.1043  0.0359  0.1484
 6189W        W22663  18.526   7.856  11.262  0.2955 -0.1032 -0.2014
 6190W        W22664  15.841   8.257  11.913  0.0890 -0.1529  0.0302
 6191W        W22665  11.428   6.877  13.587  0.1418 -0.3573  0.2942
 6192W        W22666   6.399   5.982   4.806  0.1297 -0.1557  0.1900
 6193W        W22667  17.807   1.223   1.248 -0.1074 -0.0226  0.2377
 6194W        W22668  11.424  14.434  13.213  0.1844 -0.3767 -0.1107
 6195W        W22669  12.478  10.829   0.365 -0.2066 -0.1956 -0.0217
 6196W        W22670   7.780  18.334  10.531  0.0941  0.1885  0.3169
 6197W        W22671   0.960   9.599  11.804 -0.1327 -0.2601  0.2204
 6198W        W22672   1.252   8.173  14.599 -0.3826 -0.0270 -0.3803
 6199W        W22673  18.315  12.162  10.116  0.1185 -0.0231 -0.0269
 6200W        W22674   0.718  17.548   4.391 -0.1546 -0.1662  0.2010
 6201W        W22675   3.056   2.399  13.145 -0.0631 -0.0069 -0.4943
 6202W        W22676  14.595  16.996   5.536 -0.4304 -0.1686 -0.3393
 6203W        W22677  17.395  16.138  12.471  0.0804  0.0462  0.0939
 6204W        W22678   4.895  19.497   0.712 -0.4576  0.0398 -0.0182
 6205W        W22679  13.674   9.289   1.396 -0.0623 -0.1996  0.0734
 6206W        W22680  14.871  13.331   3.986 -0.0323  0.0072  0.0578
 6207W        W22681  11.238  15.957   3.000  0.1239 -0.1625  0.2699
 6208W        W22682  10.505  13.328   0.594 -0.2515  0.1782  0.0334
 6209W        W22683  13.409   6.504   2.142 -0.3250  0.4780 -0.0001
 6210W        W22684   9.949  14.991   2.163  0.2039 -0.0208 -0.1261
 6211W        W22685   9.480   1.642   1.807  0.1773 -0.1195  0.3304
 6212W        W22686  17.928  13.722   5.060 -0.0856 -0.1007 -0.1504
 6213W        W22687  16.215   5.948   3.056 -0.1945  0.1757 -0.0896
 6214W        W22688  11.484  12.204   3.883 -0.2413  0.2012 -0.0329
 6215W        W22689   0.717   0.432   2.633  0.3536 -0.2759  0.2985
 6216W        W22690  11.247  14.073  12.344 -0.0666  0.0968 -0.2734
 6217W        W22691   9.612  13.881  11.660  0.0018 -0.2660 -0.2384
 6218W        W22692   1.835   2.697   2.913  0.0764  0.0772  0.1323
 6219W        W22693   7.236  12.821   4.907  0.0620  0.3841  0.1573
 6220W        W22694  19.242  17.740   1.492 -0.1489  0.1309 -0.0568
 6221W        W22695  10.986   4.337  12.262 -0.0501  0.3353  0.1389
 6222W        W22696  12.543  14.628  10.943  0.0225 -0.1469  0.1337
 6223W        W22697  19.143  13.886  11.861  0.2382 -0.3669  0.1699
 6224W        W22698  11.961   4.002  10.066  0.0788  0.1547  0.0212
 6225W        W22699   6.718  15.621  12.689 -0.1382  0.1267  0.1551
 6226W        W22700   0.400   9.043  11.688 -0.3023  0.3158  0.0385
 6227W        W22701   0.585   9.136   4.054 -0.2502  0.1491  0.0386
 6228W        W22702   8.567  14.296  13.124  0.2753 -0.0475 -0.0360
 6229W        W22703  10.514  14.199   2.183 -0.0735 -0.0491  0.3580
 6230W        W22704   2.916  13.213  14.284  0.1750  0.0071 -0.0324
 6231W        W22705   6.984   1.596  12.559 -0.0580  0.1243  0.3042
 6232W        W22706  18.745   3.608  11.454  0.0338 -0.3294 -0.3127
 6233W        W22707  14.705   6.341   4.556 -0.3538 -0.0228 -0.2294
 6234W        W22708  14.754   8.699   5.822  0.0132  0.0581  0.1256
 6235W        W22709  19.251  18.793   4.929 -0.0857  0.2186  0.1494
 6236W        W22710   9.463   5.689   4.076 -0.2683  0.0435 -0.2316
 6237W        W22711  13.349   1.428   2.931  0.1752 -0.2066 -0.2646
 6238W        W22712  18.426   3.487  13.827  0.3708 -0.0024  0.4093
 6239W        W22713  16.264  16.457   2.691  0.2125  0.1149 -0.2991
 6240W        W22714   1.081  15.280  10.251 -0.0658  0.0352  0.0484
 6241W        W22715   8.207   6.144  11.826 -0.3125  0.1134  0.1607
 6242W        W22716   8.722  19.495   1.109  0.3643  0.2553  0.2511
 6243W        W22717   1.277  14.140   1.081 -0.1467 -0.1672  0.1735
 6244W        W22718   6.162   0.157  13.368  0.0263 -0.1081 -0.2880
 6245W        W22719  19.138  10.691   3.599  0.0738  0.1381 -0.0309
 6246W        W22720   0.614  14.104   2.822 -0.1387 -0.1114  0.1092
 6247W        W22721   4.847  10.629  10.175 -0.2979 -0.3935 -0.5503
 6248W        W22722   3.476  13.037   4.754 -0.2539 -0.4474  0.3695
 6249W        W22723   4.029   2.023   2.703 -0.1166 -0.3629 -0.0889
 6250W        W22724   5.890   5.134  12.855 -0.0789 -0.1354 -0.0282
 6251W        W22725  13.662   3.660  13.853  0.2729  0.0318 -0.0784
 6252W        W22726  19.368  15.894   3.992  0.1500  0.0740 -0.2419
 6253W        W22727  19.338  14.622   2.975 -0.2293 -0.1189  0.1618
 6254W        W22728   9.807  14.064  10.009 -0.1226 -0.0919  0.2183
 6255W        W22729   9.479   2.697  14.185 -0.3265  0.1953 -0.3045
 6256W        W22730   0.903  18.552  12.617 -0.0798 -0.2654  0.0482
 6257W        W22731  14.401  15.270  12.705  0.2044 -0.0056 -0.1037
 6258W        W22732   2.387  10.556   3.861  0.2405  0.4726 -0.0658
 6259W        W22733  17.204   6.792  13.001  0.1487 -0.2878  0.0698
 6260W        W22734  13.546   6.195   4.390  0.1320 -0.0343 -0.1550
 6261W        W22735   8.239   1.799   0.169  0.0455  0.3307 -0.0232
 6262W        W22736  11.209   1.839   1.183  0.4936  0.2744  0.1425
 6263W        W22737  15.894  11.527  12.175 -0.1918 -0.2130  0.2337
 6264W        W22738  10.228   6.313  11.821  0.2457  0.0733 -0.0226
 6265W        W22739  12.760   8.384   0.170  0.1638  0.0950  0.1007
 6266W        W22740  19.460  18.147  10.031  0.0812  0.0690  0.1626
 6267W        W22741   7.113  11.788   4.722 -0.0645 -0.0260  0.1438
 6268W        W22742  10.121  19.249   0.427 -0.0843 -0.1371 -0.0440
 6269W        W22743  18.586   4.677   9.674 -0.1587 -0.0229 -0.1946
 6270W        W22744  17.829  15.920  13.968  0.1282 -0.0823  0.0883
 6271W        W22745   0.703  14.542  13.611  0.1930  0.2514 -0.1349
 6272W        W22746   8.426   2.396  12.254 -0.0311  0.0030 -0.0388
 6273W        W22747  15.587   9.123  12.369 -0.2420 -0.1562  0.0057
 6274W        W22748   5.332  11.689   3.968  0.0575 -0.0506  0.0009
 6275W        W22749  16.098   6.126   4.959 -0.1102  0.0595 -0.0296
 6276W        W22750  14.285   0.259  13.898  0.0977  0.1479 -0.1046
 6277W        W22751   4.245   6.623   4.281 -0.1537 -0.0624 -0.1810
 6278W        W22752  10.866  19.536   1.063 -0.1280  0.2040 -0.3045
 6279W        W22753  12.985   6.720  11.094  0.2212  0.1891 -0.0595
 6280W        W22754  16.615  12.476  12.632  0.2194 -0.1217  0.1652
 6281W        W22755   9.414   9.861  11.009  0.1222 -0.1030 -0.0172
 6282W        W22756   2.416   5.277   2.451  0.0228  0.3197 -0.2125
 6283W        W22757  19.345  15.453   9.492 -0.4746 -0.0298 -0.4766
 6284W        W22758   0.558  14.089  14.434 -0.2118  0.0794 -0.2452
 6285W        W22759  11.513   7.728  13.101 -0.0562 -0.1094 -0.2221
 6286W        W22760  15.700   0.699   5.248  0.1523  0.5651 -0.1975
 6287W        W22761   9.769  15.361   0.291 -0.1584 -0.1274  0.2553
 6288W        W22762   4.523   3.651   1.378 -0.1417 -0.1739 -0.4448
 6289W        W22763   6.864   0.582   1.812 -0.0075  0.2551  0.0032
 6290W        W22764   3.178   2.409   2.148  0.0773 -0.0206 -0.2662
 6291W        W22765   2.119  16.840  12.343 -0.0372  0.1824  0.0533
 6292W        W22766   6.755   7.851   1.377 -0.2444  0.1422  0.2244
 6293W        W22767  11.174  16.776   3.540 -0.1041 -0.3991 -0.1564
 6294W        W22768  13.569  17.660   4.864 -0.2340  0.0003 -0.1124
 6295W        W22769   7.644  19.109   4.472  0.3127 -0.1229 -0.2067
 6296W        W22770   1.223  17.772  11.505 -0.1324 -0.0361  0.0358
 6297W        W22771  11.397   2.236  12.439 -0.0305  0.2569 -0.1252
 6298W        W22772   7.566   9.185   3.552 -0.1828 -0.0210 -0.3657
 6299W        W22773  11.425  12.609   4.749  0.0462  0.0797 -0.1957
 6300W        W22774  17.389  10.948   2.973  0.2107  0.2148 -0.1630
 6301W        W22775  18.125  17.300  13.470 -0.1871 -0.0779 -0.0533
 6302W        W22776  12.957   7.774   3.697  0.0137  0.3527  0.0087
 6303W        W22777   6.005   0.009   4.666 -0.0196  0.1742  0.0958
 6304W        W22778   4.742   3.972  12.418  0.0312 -0.1786 -0.0055
 6305W        W22779  10.769  10.779  12.661  0.0840 -0.1352 -0.1201
 6306W        W22780   5.764  12.949  12.099 -0.0948  0.0803  0.2889
 6307W        W22781  14.640   8.848   1.621  0.0430  0.2512 -0.2097
 6308W        W22782  11.073  19.413   4.329  0.1586  0.0542  0.0782
 6309W        W22783   3.347   5.999   1.638 -0.0052 -0.0074 -0.0438
 6310W        W22784   4.449   2.794  10.822 -0.2545  0.0673 -0.1473
 6311W        W22785  17.789   6.680  14.147 -0.2415 -0.0343  0.0581
 6312W        W22786   3.642   2.331   2.944 -0.1612 -0.2283  0.4726
 6313W        W22787  19.179   2.963   1.876  0.2635  0.3372  0.4969
 6314W        W22788  17.119  14.406   1.396  0.1329  0.0377 -0.5009
 6315W        W22789   6.562  12.005   1.737 -0.0240  0.0386  0.0842
 6316W        W22790  12.457   0.100  12.699  0.2007  0.1502  0.1409
 6317W        W22791  17.530  16.688   4.614 -0.1954  0.2141 -0.3370
 6318W        W22792   6.158   7.618   2.722 -0.3324 -0.2119  0.2028
 6319W        W22793  14.461  17.261   2.703 -0.3206  0.0851  0.1413
 6320W        W22794   5.163   7.794  13.276  0.0828  0.2112  0.0939
 6321W        W22795   4.755  17.740  12.578  0.0289  0.5669 -0.0788
 6322W        W22796   8.597   5.389  11.688 -0.1839 -0.0538 -0.0642
 6323W        W22797   1.727   8.115  10.492  0.2552 -0.0422  0.0120
 6324W        W22798   9.943  15.855  12.772  0.3244  0.0517 -0.1165
 6325W        W22799  16.409  13.246   3.847  0.1460 -0.1303  0.1735
 6326W        W22800  19.188   9.033   1.773 -0.1758  0.0153  0.1338
 6327W        W22801  14.819  17.622  12.145  0.0720  0.0854  0.0367
 6328W        W22802   9.150  12.231   1.295 -0.1165  0.1629 -0.0059
 6329W        W22803  10.103   9.425   4.124 -0.3718  0.0185  0.2870
 6330W        W22804   3.931   9.212  11.406 -0.0600 -0.0656 -0.0296
 6331W        W22805   6.391   4.651   4.270  0.0124 -0.1589 -0.0587
 6332W        W22806   9.492  14.187  12.071  0.2645 -0.0890  0.1572
 6333W        W22807  16.877  13.836   0.708  0.0065 -0.0802 -0.2670
 6334W        W22808  16.650  12.510  10.538 -0.1121  0.1643 -0.0338
 6335W        W22809  12.923  14.598   5.151  0.2453  0.1341 -0.0069
 6336W        W22810  18.594   2.160  11.707  0.1508  0.2667  0.3570
 6337W        W22811   9.886   2.165   1.606  0.0526  0.4783  0.1390
 6338W        W22812  17.894   1.046  13.650 -0.0948  0.0435  0.1248
 6339W        W22813   9.198  13.899  14.510  0.2546 -0.1353  0.2016
 6340W        W22814   5.414   5.637   0.916 -0.0249 -0.2211 -0.4092
 6341W        W22815  15.024  11.821   2.087 -0.0140 -0.2510 -0.0547
 6342W        W22816  16.237   1.035  14.568 -0.1929 -0.2920 -0.1136
 6343W        W22817   5.506  14.331  14.080 -0.0583 -0.1014 -0.1252
 6344W        W22818  14.162   7.746   2.646  0.2047 -0.2333 -0.0007
 6345W        W22819  14.815   5.648  13.305 -0.3394 -0.3593 -0.1335
 6346W        W22820  14.761   7.400  13.938  0.2834  0.0596 -0.2765
 6347W        W22821  17.508  14.200   1.640 -0.1815 -0.0634 -0.2299
 6348W        W22822   8.428   5.005  10.782  0.4449  0.0795 -0.0389
 6349W        W22823  13.771  12.054   1.955  0.0449  0.1466 -0.3077
 6350W        W22824   4.352  19.093  10.062 -0.0282  0.0989 -0.5500
 6351W        W22825  14.746   5.774   1.104 -0.0286  0.2849 -0.0557
 6352W        W22826  14.414  16.295   2.906  0.0756 -0.0695 -0.0640
 6353W        W22827  11.019  18.211  11.766 -0.0951  0.0887 -0.2655
 6354W        W22828   9.637   6.680   3.731  0.0134 -0.2012  0.0235
 6355W        W22829  13.086  15.302   3.724 -0.1643 -0.0724 -0.4719
 6356W        W22830   5.279   4.270   3.928  0.1199  0.0636 -0.1064
 6357W        W22831  14.521   7.097   4.751  0.2546  0.2843  0.1794
 6358W        W22832   8.391  17.991   4.853  0.1877  0.2564  0.0066
 6359W        W22833  11.505  12.275  10.532 -0.0406 -0.1999 -0.0111
 6360W        W22834   5.364   9.558  14.582 -0.2509  0.0500 -0.0428
 6361W        W22835   8.504   1.733   3.872 -0.0494  0.2724 -0.0507
 6362W        W22836  10.215  15.566  11.979  0.0953  0.0691 -0.0917
 6363W        W22837  11.457   5.744  12.012 -0.1358  0.0050 -0.0191
 6364W        W22838   4.178  14.992   2.708  0.0892 -0.0699  0.0646
 6365W        W22839  15.571   6.740   2.831  0.3559 -0.1765  0.1150
 6366W        W22840   8.142  12.231   9.043  0.0024 -0.0901  0.0787
 6367W        W22841   7.403  19.530   4.320 -0.1089 -0.0499  0.1295
 6368W        W22842   8.179  15.507  13.339 -0.2364 -0.1369  0.1038
 6369W        W22843  12.517   0.544   0.725 -0.2128 -0.0394  0.3113
 6370W        W22844   2.947   0.943   3.776 -0.1134  0.2159  0.1281
 6371W        W22845  17.372  13.098   2.288 -0.4226  0.0135 -0.0158
 6372W        W22846  15.820  18.162   2.559  0.2177  0.2246 -0.0106
 6373W        W22847  12.368   2.331  10.309  0.0099  0.1849 -0.1607
 6374W        W22848   1.879   1.289   0.528  0.0312  0.2193  0.0510
 6375W        W22849   3.124   7.679  14.523 -0.1455  0.0253  0.1222
 6376W        W22850   1.695   1.463   0.112 -0.1326  0.2330 -0.0190
 6377W        W22851  13.243  12.135   3.745  0.0925  0.0320  0.2220
 6378W        W22852  10.826  10.473   2.904 -0.3608  0.0079 -0.2125
 6379W        W22853  19.059   6.621  13.001 -0.0370 -0.0818 -0.0801
 6380W        W22854   7.243   3.661  14.571 -0.1108 -0.1102  0.1087
 6381W        W22855  14.089  15.353  11.731 -0.0809 -0.2903 -0.1770
 6382W        W22856  10.518  11.450   0.172 -0.1018 -0.0026  0.1974
 6383W        W22857   1.713   7.621  10.461  0.0995 -0.0040 -0.0351
 6384W        W22858  17.035  17.052   2.694  0.0123 -0.2135  0.0716
 6385W        W22859   4.381   3.871  10.673  0.2889  0.0138 -0.2852
 6386W        W22860  17.965   3.830  14.454  0.1178  0.0263 -0.0599
 6387W        W22861  18.985  15.213   1.064 -0.2621  0.6157  0.6233
 6388W        W22862   0.722   8.279   3.612 -0.0222  0.2830  0.0427
 6389W        W22863   7.085  15.058   2.005 -0.0595  0.1932  0.1066
 6390W        W22864  12.879  10.588   1.554 -0.0354  0.3087 -0.3731
 6391W        W22865  14.870  19.612   9.864 -0.0875 -0.2205  0.1098
 6392W        W22866   9.329   2.866   0.419 -0.3230 -0.1487 -0.1152
 6393W        W22867   4.695   8.179   4.610  0.2720 -0.1058 -0.0826
 6394W        W22868   1.774   5.476   4.196  0.0696 -0.3189  0.0541
 6395W        W22869   9.271   5.323   2.304 -0.1402 -0.4747  0.1988
 6396W        W22870   8.866   8.304  10.144 -0.2044  0.0488 -0.0225
 6397W        W22871  13.646   7.456  10.286 -0.1361  0.0413 -0.1021
 6398W        W22872  12.851  16.251   3.966  0.4391 -0.2505 -0.3509
 6399W        W22873  17.667  15.371  10.887 -0.1916  0.3075 -0.0796
 6400W        W22874   4.656  17.290  14.543 -0.0326 -0.1745  0.0423
 6401W        W22875  14.438  19.322   5.060 -0.0868  0.2798  0.3284
 6402W        W22876   4.393   2.413   2.532 -0.1963 -0.1027  0.2087
 6403W        W22877  12.713   5.831   4.810 -0.2384 -0.1172  0.3643
 6404W        W22878  14.661   3.931  11.251  0.0874  0.1638  0.0014
 6405W        W22879   0.611  14.936   3.371 -0.3706 -0.0367  0.3993
 6406W        W22880   6.229   9.045   5.151 -0.1236  0.1311  0.1738
 6407W        W22881   0.595  11.287   1.418  0.1889  0.0180  0.0272
 6408W        W22882  13.330   9.203  10.763  0.1207  0.2362  0.1426
 6409W        W22883   3.708   5.188  13.491  0.1840 -0.1213  0.0209
 6410W        W22884  16.301  13.212   1.252  0.3951  0.0192 -0.0416
 6411W        W22885   1.145   2.453   1.958  0.0195  0.5141  0.1791
 6412W        W22886  17.073   2.107  11.651  0.0950  0.3999 -0.2772
 6413W        W22887  13.423  15.972   3.041 -0.2231 -0.2463  0.2637
 6414W        W22888   4.622  19.590   2.830  0.1109 -0.0797  0.0184
 6415W        W22889  16.958  12.100  12.825  0.0111  0.0299  0.0238
 6416W        W22890  14.747  13.388   2.944 -0.1786  0.0080 -0.2646
 6417W        W22891   0.687   9.171   0.654 -0.3129 -0.2677 -0.2314
 6418W        W22892  13.776  18.064  10.271 -0.0670  0.2124  0.0051
 6419W        W22893   5.953  16.719  14.307  0.0237 -0.0772  0.1741
 6420W        W22894   6.366  16.680   3.722 -0.1303  0.2457 -0.0153
 6421W        W22895  19.169   8.639  10.860 -0.0463  0.0717 -0.1941
 6422W        W22896  10.647   7.191   2.610 -0.1352 -0.1197 -0.0080
 6423W        W22897   0.756   4.144   3.203 -0.0526 -0.1242  0.3521
 6424W        W22898   0.259   7.604   4.787  0.1118  0.1274 -0.0610
 6425W        W22899  12.438  10.764   2.292 -0.0333  0.2315 -0.1357
 6426W        W22900   4.763  12.991  10.677  0.0275 -0.1824  0.0290
 6427W        W22901   4.872  15.808   4.504  0.0245 -0.0679 -0.1242
 6428W        W22902  12.212  13.378   4.303  0.0355 -0.0391  0.0859
 6429W        W22903  13.504  14.210   3.487 -0.2112  0.1404 -0.3302
 6430W        W22904   2.670   0.081  12.633  0.2315  0.0548 -0.2562
 6431W        W22905  18.577   4.323   3.027  0.0312  0.2882  0.0414
 6432W        W22906  11.615   4.374  14.663  0.0446 -0.2598  0.1140
 6433W        W22907   9.899   8.959  12.078 -0.1848  0.0338 -0.0166
 6434W        W22908   7.254  19.237  14.441 -0.0699 -0.0030  0.1063
 6435W        W22909   9.738   9.773   4.401  0.2388  0.2961 -0.1340
 6436W        W22910  14.457   3.711   4.429 -0.0013 -0.1567  0.0534
 6437W        W22911   1.506  11.137  12.556  0.0138 -0.0591 -0.0133
 6438W        W22912   0.759   2.609   0.447  0.0384  0.1109  0.3822
 6439W        W22913   4.489   4.525   3.327 -0.0678 -0.1282 -0.0964
 6440W        W22914  18.447   4.517   3.990 -0.0325  0.0041  0.0023
 6441W        W22915  15.029   6.366  14.600 -0.2466  0.0570  0.2236
 6442W        W22916  14.257   9.644   0.130  0.1584  0.1179 -0.1006
 6443W        W22917  15.763   2.054   2.668  0.0666  0.1337  0.3365
 6444W        W22918   0.934   1.726   2.003 -0.0664 -0.0534 -0.0545
 6445W        W22919  12.988   0.335   0.022  0.2940  0.2278  0.0451
 6446W        W22920   7.675  16.645   0.126  0.2535 -0.1096  0.3550
 6447W        W22921   0.666  12.888   4.355 -0.1998  0.2464  0.0906
 6448W        W22922   3.600  11.681   0.427  0.1652 -0.0055  0.0736
 6449W        W22923  14.604   0.195  10.243 -0.0611 -0.0102  0.1635
 6450W        W22924   6.752   4.932   0.838  0.0190  0.0898 -0.0748
 6451W        W22925  13.564  10.099   1.795  0.1281  0.3204  0.0653
 6452W        W22926  17.946  11.193   4.442 -0.0637 -0.0872  0.1700
 6453W        W22927   9.972  15.963  12.259  0.3641 -0.1197  0.4273
 6454W        W22928   5.724   4.496  12.949 -0.0653 -0.2458  0.1745
 6455W        W22929  14.093  18.374   2.217 -0.0060 -0.0693 -0.1023
 6456W        W22930  15.070  18.202   3.147  0.0184 -0.1442 -0.1648
 6457W        W22931  14.398  15.850  12.234  0.1899  0.2273  0.1164
 6458W        W22932  17.029   3.891   2.398 -0.1511 -0.1597  0.3075
 6459W        W22933  11.786   5.877  10.660 -0.5199  0.1330 -0.0176
 6460W        W22934   7.212   6.225  11.232  0.0549 -0.3399  0.0330
 6461W        W22935   9.944  19.230  12.418 -0.2631 -0.2930  0.1315
 6462W        W22936   8.663  13.706   2.129  0.0167  0.1372 -0.1839
 6463W        W22937   4.377  14.735  11.537  0.0070 -0.0570  0.1614
 6464W        W22938  17.021   4.176  11.570 -0.2674  0.0292 -0.0458
 6465W        W22939  15.664   1.132   4.206 -0.0359 -0.3146 -0.1769
 6466W        W22940   2.825   2.427  11.754 -0.2836  0.1324  0.4744
 6467W        W22941   0.612  10.674  10.822 -0.0217  0.1032  0.3047
 6468W        W22942  15.478   2.028   3.091 -0.2434 -0.0967  0.1550
 6469W        W22943   4.851   6.201  10.649 -0.2572  0.1194 -0.1590
 6470W        W22944  17.599  15.439  14.071 -0.3929  0.2245  0.0305
 6471W        W22945   5.956   3.928  13.327 -0.3548 -0.0149 -0.0014
 6472W        W22946   5.506  19.621  14.120 -0.0510 -0.0046  0.3588
 6473W        W22947   3.767  13.018   1.133  0.0367  0.0372 -0.0110
 6474W        W22948  19.297   0.008   2.881  0.0210  0.0048  0.0805
 6475W        W22949  13.927  14.914   1.673  0.0236 -0.0975 -0.1795
 6476W        W22950  10.948   7.284  13.183 -0.0087 -0.1541 -0.0279
 6477W        W22951  15.712   9.584  14.317 -0.4558  0.0259 -0.1957
 6478W        W22952   5.106   7.352   1.899 -0.1070 -0.0926 -0.0973
 6479W        W22953   5.363   7.767  14.550  0.0981 -0.0448 -0.1243
 6480W        W22954   7.622   0.432  12.546  0.0667 -0.0559 -0.2408
 6481W        W22955  16.614   1.347  10.258 -0.1700 -0.2527 -0.2599
 6482W        W22956   1.721  18.281  10.141  0.2787  0.0342 -0.1056
 6483W        W22957  14.286   4.608   0.119 -0.0936  0.2921 -0.0847
 6484W        W22958  17.925   4.337  14.342 -0.1646  0.3252  0.1595
 6485W        W22959  13.346   9.103  12.213  0.0406 -0.0268 -0.1362
 6486W        W22960   1.868  12.091   1.460  0.1489 -0.0572  0.2209
 6487W        W22961  18.644   6.384   2.771  0.3581  0.1263 -0.1771
 6488W        W22962   9.675   0.412  13.478 -0.0422 -0.1561  0.1458
 6489W        W22963  11.115  12.330  14.327 -0.0170 -0.0185 -0.0205
 6490W        W22964  11.892   9.494  11.727 -0.0270 -0.0479  0.0572
 6491W        W22965   8.079  13.033   2.793 -0.1471 -0.3807 -0.3119
 6492W        W22966   3.906   9.233   9.440  0.0090 -0.1240  0.1695
 6493W        W22967  17.418  17.940   2.422  0.0549 -0.0985  0.5148
 6494W        W22968  16.634   2.774   4.669  0.0064  0.0378  0.2164
 6495W        W22969   5.158  18.907   3.282  0.0611  0.0881 -0.1152
 6496W        W22970  17.939  13.180  11.186  0.4162  0.1260 -0.1790
 6497W        W22971   4.294  12.630  11.432 -0.1877  0.1984  0.2013
 6498W        W22972  13.438  13.779   2.106 -0.1790  0.3037 -0.1744
 6499W        W22973   9.307  12.883  12.656  0.1316 -0.2670  0.0360
 6500W        W22974  11.762  10.745  13.601 -0.0627  0.0064 -0.0807
 6501W        W22975   7.512  11.898  12.916 -0.2082 -0.0276 -0.1749
 6502W        W22976  18.170  10.641   3.661  0.0684 -0.1390  0.0137
 6503W        W22977   6.600  17.394   1.858 -0.2423  0.2059  0.0636
 6504W        W22978   7.153  16.941   2.956 -0.0874 -0.0235 -0.4874
 6505W        W22979  10.875   0.830   3.341 -0.0076  0.0851 -0.4082
 6506W        W22980  17.879   4.977  14.156 -0.1895  0.1917 -0.1396
 6507W        W22981  14.493   3.851   3.304 -0.2737  0.0200 -0.2394
 6508W        W22982  10.004  11.765   3.245  0.0231 -0.1072 -0.2479
 6509W        W22983  14.874   6.441  11.824 -0.1174  0.2558 -0.2102
 6510W        W22984  18.687   3.526   0.214  0.0397  0.0321  0.0818
 6511W        W22985   1.609   1.663   4.636  0.1116  0.0286 -0.0597
 6512W        W22986  12.806  16.915  10.926  0.1726 -0.2509 -0.2227
 6513W        W22987   5.889  15.386  11.424 -0.2370  0.1551  0.0831
 6514W        W22988  17.554  16.244   5.536  0.1777  0.1109 -0.0809
 6515W        W22989   3.208   1.648  14.620 -0.1287 -0.0581  0.0024
 6516W        W22990   8.467   5.333  11.197 -0.3676  0.1571  0.2456
 6517W        W22991  18.169   7.755   9.517  0.0804  0.0190 -0.0401
 6518W        W22992  11.522  16.430   1.427  0.0882 -0.1142  0.2167
 6519W        W22993   7.908  16.047   0.198 -0.3018  0.2186 -0.1671
 6520W        W22994  11.176   5.010  14.296 -0.0490 -0.1558 -0.4591
 6521W        W22995   8.025   9.666  10.568  0.0245 -0.0798  0.2759
 6522W        W22996  15.053   5.677   2.097  0.3939  0.2495 -0.5418
 6523W        W22997  11.320   1.510  10.699 -0.2235 -0.0088  0.0829
 6524W        W22998  12.020   9.792  14.135 -0.2841 -0.1091 -0.1974
 6525W        W22999   9.951  12.657   1.728  0.0962  0.2164  0.0304
 6526W        W23000  11.974   0.422   4.489 -0.1421  0.1037 -0.0470
 6527W        W23001   3.880  14.232  12.297 -0.1460 -0.3830  0.0202
 6528W        W23002  11.435  16.636   2.864  0.1099  0.1203 -0.2314
 6529W        W23003   0.176  17.479  14.550 -0.0632  0.1580  0.1135
 6530W        W23004  12.252  13.403   3.363  0.0874  0.0182 -0.1532
 6531W        W23005   9.028   0.059  14.494 -0.1424  0.0671 -0.0331
 6532W        W23006  15.156  18.710  13.551  0.1123  0.1537  0.0337
 6533W        W23007  15.448   7.683   5.169 -0.2050 -0.2046  0.2288
 6534W        W23008   9.227  15.197   3.838 -0.0744 -0.3289 -0.0780
 6535W        W23009   8.528   9.007  11.266 -0.1089  0.0399  0.2310
 6536W        W23010   4.644  16.473  11.086 -0.2887 -0.1572  0.1135
 6537W        W23011   5.009  13.911  14.381  0.0799 -0.0355  0.4076
 6538W        W23012  17.494  11.340  13.365  0.0048 -0.0914 -0.0911
 6539W        W23013   6.994   4.811  11.726 -0.2996  0.0648 -0.0930
 6540W        W23014   2.951  15.973   4.392 -0.1807  0.1996  0.0769
 6541W        W23015  18.894   3.347  14.423 -0.1327  0.2020 -0.1588
 6542W        W23016  10.390   1.566   3.084 -0.2390  0.1407 -0.1165
 6543W        W23017   8.997   6.244   2.045  0.0881 -0.1538 -0.0971
 6544W        W23018  15.757   4.843  13.991 -0.1759  0.1346 -0.1025
 6545W        W23019   2.747   8.987  14.369  0.0038 -0.2758  0.1033
 6546W        W23020  10.563   1.225  10.089 -0.3188 -0.0867 -0.4122
 6547W        W23021   4.654  18.340   1.099  0.0442 -0.0929 -0.1051
 6548W        W23022   4.727  18.747   3.534  0.0519 -0.1431 -0.1502
 6549W        W23023   3.015   9.734  14.490 -0.0426 -0.0673  0.2029
 6550W        W23024  15.542  17.119  12.856 -0.0547 -0.0904  0.0094
 6551W        W23025   1.514  18.633   4.006  0.0785 -0.0626  0.0589
 6552W        W23026  13.847  11.809   5.025 -0.1333  0.0675 -0.1423
 6553W        W23027   4.770  10.205  11.011  0.0813  0.0005 -0.2878
 6554W        W23028  13.748  17.288  13.678 -0.2201  0.1631  0.0933
 6555W        W23029   1.300   3.364  10.326  0.1080 -0.1291  0.0821
 6556W        W23030  18.470  14.432   4.707 -0.3373  0.1414 -0.1090
 6557W        W23031  14.621   2.976  11.936  0.1033 -0.0444 -0.0779
 6558W        W23032  19.376  14.060   2.657 -0.1061 -0.2590 -0.0394
 6559W        W23033   0.142   5.477   4.796 -0.1061  0.0877 -0.1511
 6560W        W23034   0.841   8.613  13.498  0.1239  0.0538 -0.1200
 6561W        W23035  12.343   2.007  11.819 -0.2748  0.0290  0.0201
 6562W        W23036   8.642   0.313   5.382 -0.1490  0.1073  0.1832
 6563W        W23037   6.396   8.010   3.219 -0.1612 -0.0242  0.2023
 6564W        W23038   8.866  19.494   3.396  0.0213 -0.4706 -0.2546
 6565W        W23039   7.775  14.876   4.362  0.2516  0.4065 -0.1559
 6566W        W23040   6.698   3.170   3.597  0.4321 -0.0666  0.1219
 6567W        W23041   6.892  11.516  13.142 -0.0661 -0.2031 -0.0953
 6568W        W23042   6.679   5.335  12.411 -0.2834  0.1693  0.0680
 6569W        W23043   1.123  16.633   4.415 -0.0520  0.3686 -0.0572
 6570W        W23044  11.747   3.091  12.697 -0.1287 -0.2812  0.4132
 6571W        W23045  12.343  11.512  12.324 -0.2107 -0.1519 -0.2128
 6572W        W23046   7.767  18.304   0.064 -0.3609  0.2395 -0.0653
 6573W        W23047  18.773   0.792   1.516 -0.0793 -0.1095 -0.0380
 6574W        W23048  14.707   7.184  12.595  0.0385  0.0408  0.1046
 6575W        W23049  16.195   2.202   9.837 -0.0923 -0.0265 -0.2251
 6576W        W23050  15.364  14.538   4.737  0.2188 -0.1940 -0.0404
 6577W        W23051   9.429  11.582  13.110  0.1486  0.1924 -0.1987
 6578W        W23052   2.931   2.903  11.827  0.2535  0.3153 -0.1132
 6579W        W23053  12.178   7.607  14.233  0.2145 -0.0208  0.1560
 6580W        W23054   6.365  18.011  14.464  0.1337  0.0658  0.1482
 6581W        W23055   7.264   7.677  10.302  0.1494 -0.2507 -0.0677
 6582W        W23056  17.651   7.188   2.174 -0.0138  0.1687 -0.2176
 6583W        W23057   7.812   8.102   3.265  0.1131  0.4498 -0.1766
 6584W        W23058  10.481  13.592  12.156 -0.3557 -0.0354 -0.0220
 6585W        W23059  12.647   7.750   3.236 -0.0769 -0.2309 -0.2411
 6586W        W23060  12.514  13.024   4.082 -0.1690 -0.1665  0.2766
 6587W        W23061   3.862   5.738   4.330  0.3385 -0.2047 -0.1485
 6588W        W23062  19.568   0.724  13.201  0.2019  0.5627  0.0314
 6589W        W23063   8.112  18.100   3.277  0.2563  0.0908  0.1229
 6590W        W23064  12.541   4.675  11.727  0.1468 -0.2522 -0.3254
 6591W        W23065  18.108  14.687  11.293 -0.0692  0.0786  0.0236
 6592W        W23066   9.152  13.097   1.329  0.0246 -0.0054 -0.1114
 6593W        W23067   3.569  15.145   1.485 -0.1029 -0.0898  0.0907
 6594W        W23068   5.433  12.043   2.077 -0.1496 -0.0041 -0.0565
 6595W        W23069   7.267   6.410   4.870 -0.2891  0.3162  0.1138
 6596W        W23070  10.261  12.950  14.249  0.1821 -0.3881  0.2684
 6597W        W23071   8.436  15.042  11.307  0.2216  0.2876 -0.3257
 6598W        W23072   7.755  16.771  14.164 -0.1326  0.3040  0.1788
 6599W        W23073   5.750  18.428   3.045 -0.4099 -0.1166 -0.0636
 6600W        W23074   2.789  17.235   2.116 -0.0509 -0.1151 -0.0050
 6601W        W23075  16.290  10.002   4.028  0.0490  0.1867  0.1620
 6602W        W23076   0.858  10.321  13.429 -0.0995  0.0917 -0.1791
 6603W        W23077  17.057   8.599  14.075 -0.0751 -0.0991 -0.4372
 6604W        W23078   1.232   4.132  10.113  0.1102 -0.2087 -0.1495
 6605W        W23079   2.799   6.893   2.651 -0.0211  0.0854 -0.1808
 6606W        W23080  18.331   1.735   4.440  0.1067  0.2027 -0.0515
 6607W        W23081  17.037   8.449   4.994 -0.1805  0.4900  0.0883
 6608W        W23082  15.052   1.806  12.297  0.0497  0.1279  0.0818
 6609W        W23083  14.798   1.087  12.611 -0.2347 -0.1197 -0.1615
 6610W        W23084  11.061  17.857  13.556 -0.4581 -0.1114  0.0154
 6611W        W23085  11.113  10.758  14.382  0.0928  0.0322 -0.2299
 6612W        W23086   2.510  17.131  11.553 -0.2461  0.3811  0.1343
 6613W        W23087  15.697  13.028   0.481 -0.3229 -0.0914  0.0577
 6614W        W23088   9.085   4.651   3.180 -0.0657 -0.1867  0.0243
 6615W        W23089  17.569   3.456  14.431 -0.1407  0.1368 -0.2337
 6616W        W23090  13.207   1.911   3.869 -0.2390  0.1883  0.1494
 6617W        W23091   8.418   7.094   4.962 -0.0784 -0.1243 -0.1321
 6618W        W23092  10.050  16.809   0.988  0.0287 -0.0485  0.0071
 6619W        W23093   8.952   5.351   3.159  0.0695 -0.1221  0.0096
 6620W        W23094  11.518  11.314  10.494  0.0116  0.0361 -0.1506
 6621W        W23095   8.826  10.539  12.328  0.2564  0.1778 -0.2957
 6622W        W23096   6.585  12.933   3.248  0.0080 -0.0807  0.0710
 6623W        W23097   3.488   0.343   1.558 -0.1670  0.2906  0.1006
 6624W        W23098   0.094  11.157   3.185 -0.0791 -0.1480  0.1579
 6625W        W23099   3.491   4.993   3.993  0.1836  0.2006 -0.0650
 6626W        W23100   3.775  10.313  12.044 -0.1071 -0.1284  0.1751
 6627W        W23101   4.014   6.047  11.261 -0.0177  0.0304 -0.2093
 6628W        W23102  17.136  11.328   1.467 -0.0442  0.0290  0.1739
 6629W        W23103   6.798   3.081  11.971  0.1355 -0.0094  0.1955
 6630W        W23104  19.289  17.359   4.657 -0.1387  0.1627  0.1034
 6631W        W23105   7.324   6.393   5.435 -0.2313  0.0544  0.0372
 6632W        W23106  19.559  12.157   4.316 -0.0911  0.0474 -0.4486
 6633W        W23107   0.965  18.014  12.570 -0.2264  0.3367 -0.2466
 6634W        W23108   4.530  13.729  11.600 -0.0236  0.0693  0.3221
 6635W        W23109  15.924   8.572   3.772 -0.0467  0.1810 -0.0342
 6636W        W23110   2.157   2.048   4.068 -0.0225  0.1483 -0.0240
 6637W        W23111  17.113  13.933  10.860  0.0239 -0.1370  0.1420
 6638W        W23112  13.297  13.869  14.341 -0.2660  0.0197  0.2850
 6639W        W23113  14.232  14.357   2.229  0.0802  0.2842 -0.3477
 6640W        W23114  16.945   3.162   4.204  0.4426 -0.4485 -0.1446
 6641W        W23115   7.019   8.833  10.853 -0.1450 -0.2128  0.0112
 6642W        W23116   2.225  18.199   9.990 -0.2729  0.2369 -0.0583
 6643W        W23117  15.390  17.018   0.509 -0.4617  0.0816  0.2163
 6644W        W23118  15.171   9.548   1.583  0.0319  0.3193 -0.0439
 6645W        W23119  12.399   9.403  12.161 -0.3201  0.0002 -0.0774
 6646W        W23120   8.762   0.034  11.282  0.0500 -0.2015  0.0872
 6647W        W23121  18.455  13.460   4.810 -0.1862 -0.0310  0.0555
 6648W        W23122  13.039   7.550   4.638 -0.0096  0.0787  0.3480
 6649W        W23123   1.754  13.702  12.144  0.2936  0.2893 -0.0815
 6650W        W23124   9.688  17.008   1.375 -0.2338 -0.2917  0.1125
 6651W        W23125  19.402  18.883   2.367 -0.1464  0.0195  0.0082
 6652W        W23126   0.287   5.264  14.485  0.0161 -0.3351 -0.0270
 6653W        W23127  13.150  13.252   2.829 -0.2423 -0.0021 -0.0531
 6654W        W23128   4.884  15.715   3.048 -0.1574  0.1070  0.0883
 6655W        W23129   7.504  18.429  13.822  0.3371 -0.1781  0.0233
 6656W        W23130   2.602   6.851  12.954 -0.0032  0.1529 -0.3832
 6657W        W23131   0.595   9.399   0.140 -0.2718 -0.0027 -0.2754
 6658W        W23132  17.727  16.752   1.139  0.0839 -0.0397 -0.0094
 6659W        W23133  19.525  18.571  13.111  0.0816 -0.1202 -0.2425
 6660W        W23134   6.655  10.149  11.494 -0.0153  0.1664 -0.0644
 6661W        W23135  17.391   5.443   4.283  0.0442 -0.0473 -0.4013
 6662W        W23136  12.787  18.698  10.363  0.0756  0.0493 -0.0922
 6663W        W23137  18.547   1.025   0.990  0.3205 -0.0563 -0.1038
 6664W        W23138  13.244  17.561   4.308 -0.4373 -0.1520  0.2077
 6665W        W23139  12.876  19.377   0.314  0.0488  0.0303 -0.0028
 6666W        W23140  11.888   3.225   0.851 -0.0135 -0.3116 -0.1781
 6667W        W23141   2.541  10.632  12.616 -0.4326  0.0828 -0.0112
 6668W        W23142  17.256  19.142  13.006 -0.1585 -0.2054 -0.0273
 6669W        W23143   1.724  10.826   0.769 -0.3928  0.1913  0.0977
 6670W        W23144   1.606   1.963   0.181  0.0477 -0.0967  0.1356
 6671W        W23145  14.105   2.061   4.213 -0.3695 -0.0587  0.2192
 6672W        W23146   3.941  11.372   0.512 -0.2524 -0.1152 -0.0155
 6673W        W23147   2.998  19.202  14.159  0.1759 -0.1550 -0.2438
 6674W        W23148  12.847  12.055   2.666 -0.1146  0.0847  0.0472
 6675W        W23149   6.894   4.329  11.892 -0.0465 -0.1228  0.1473
 6676W        W23150  19.351  10.298  11.063  0.1642  0.0119 -0.2518
 6677W        W23151  10.697   4.288  13.370  0.4325  0.0373 -0.0396
 6678W        W23152   0.365   8.543   4.498 -0.1321 -0.0479  0.0694
 6679W        W23153  11.637  16.934   1.150 -0.0301  0.1733 -0.0712
 6680W        W23154   5.393  15.856   4.334  0.1536  0.0448 -0.1451
 6681W        W23155   6.224   0.712  10.147  0.0299  0.0729 -0.0518
 6682W        W23156  10.915  16.239  10.824  0.1454  0.2191 -0.2353
 6683W        W23157   9.365  17.264   2.977 -0.3201 -0.3966  0.0553
 6684W        W23158   9.780   3.508   1.365  0.2722 -0.0273 -0.4929
 6685W        W23159   3.759  19.487  12.810  0.3775 -0.2419 -0.1855
 6686W        W23160   1.593   7.507  11.208 -0.2630  0.0827 -0.1157
 6687W        W23161  10.920   2.383  13.807  0.1418  0.1778  0.2014
 6688W        W23162   9.651  12.436  11.470  0.0564 -0.0946  0.3677
 6689W        W23163   7.981  12.766   3.363  0.0741  0.0807  0.0260
 6690W        W23164   1.449  10.238   1.348 -0.0536 -0.0638  0.0493
 6691W        W23165  14.242  16.649   5.679  0.2838  0.3900 -0.0552
 6692W        W23166  10.284  17.651   4.419  0.1007 -0.1923 -0.1535
 6693W        W23167   5.850   0.619   3.392  0.2696 -0.0708 -0.0906
 6694W        W23168   2.677   5.205   4.431  0.0270 -0.4403 -0.0018
 6695W        W23169   1.410   1.090  12.354  0.1961 -0.1949  0.0042
 6696W        W23170   6.628   6.634  10.542 -0.2151 -0.0889 -0.0477
 6697W        W23171  17.593   8.514  14.225 -0.1546  0.0554 -0.0788
 6698W        W23172  16.480  18.166  14.614 -0.0350  0.1267 -0.1458
 6699W        W23173  13.303  16.605   1.040 -0.1416  0.0006 -0.0238
 6700W        W23174   3.178  11.869  13.523 -0.1239  0.1107  0.1398
 6701W        W23175  18.803  15.565   0.098  0.0234 -0.0620  0.2192
 6702W        W23176  17.660   3.918   2.051  0.0307 -0.0303 -0.2421
 6703W        W23177   2.248   8.276  13.691  0.2688  0.2716  0.1205
 6704W        W23178  10.582   4.300   9.865  0.3500 -0.2654  0.2959
 6705W        W23179  14.516  19.512   0.855 -0.2911 -0.3777  0.2141
 6706W        W23180   0.099  18.558   3.552  0.0514  0.1844 -0.1231
 6707W        W23181  12.596  12.450  13.896  0.3399  0.1201  0.2879
 6708W        W23182   8.141  17.294  12.438 -0.0163 -0.0968 -0.0841
 6709W        W23183   1.068  14.053   3.867  0.0743 -0.0620  0.1544
 6710W        W23184   2.639   8.772   3.825 -0.0539  0.0236 -0.0271
 6711W        W23185   6.594  12.338  11.095 -0.1409 -0.3241  0.2850
 6712W        W23186  14.241  14.003   3.202 -0.0165 -0.1159 -0.0298
 6713W        W23187  17.123  19.447   4.138 -0.1767  0.3168 -0.0815
 6714W        W23188   6.985  10.300   0.936 -0.2934  0.2252 -0.0664
 6715W        W23189   8.081   7.241   1.911 -0.0694  0.3467 -0.0738
 6716W        W23190  17.744  15.212  10.341  0.1328 -0.2330  0.3175
 6717W        W23191  10.505  17.095  13.585  0.0736 -0.0998 -0.0365
 6718W        W23192  13.513  17.868   2.455 -0.0620 -0.3417  0.0452
 6719W        W23193   8.531   7.330   2.826 -0.0872 -0.2068 -0.0483
 6720W        W23194  17.953   4.075  12.072 -0.0898  0.1618  0.2738
 6721W        W23195  12.915  11.786  11.084 -0.2250  0.2085 -0.0800
 6722W        W23196  13.803   1.713  13.564  0.1589 -0.0947  0.1018
 6723W        W23197   1.946  10.175   1.455 -0.0943 -0.0110  0.3035
 6724W        W23198   7.455   9.722   3.798  0.1062  0.1963  0.0134
 6725W        W23199  13.075   9.050  10.404 -0.0771 -0.0012 -0.1831
 6726W        W23200   9.542  18.137   2.699 -0.0570  0.0679  0.2230
 6727W        W23201  17.703   9.294  14.387  0.0892 -0.0751 -0.2621
 6728W        W23202  10.764   3.397   1.200  0.1705  0.0679  0.0698
 6729W        W23203  15.133   5.197  11.052  0.1990  0.0714 -0.0420
 6730W        W23204  10.053  15.736  11.302 -0.1621  0.0404 -0.1246
 6731W        W23205  19.183  10.977   1.715 -0.1690  0.3368  0.2001
 6732W        W23206   2.688  19.569  13.988 -0.2523 -0.0129  0.0154
 6733W        W23207  18.151   3.528   3.903 -0.1705  0.1931 -0.2528
 6734W        W23208   1.565  12.768   2.059  0.2348 -0.1120  0.0255
 6735W        W23209  15.694   4.457   3.387  0.0981 -0.0042  0.3107
 6736W        W23210   3.527  11.072  11.733 -0.1117  0.0743 -0.0691
 6737W        W23211   0.223  13.326  11.806 -0.1478 -0.1990  0.1225
 6738W        W23212  14.624  12.841   3.827 -0.2030  0.0447 -0.2538
 6739W        W23213  13.245   8.250  10.399  0.0810  0.2797 -0.0586
 6740W        W23214   4.866  15.431  10.425 -0.2362  0.2634 -0.1588
 6741W        W23215  19.515  12.785  14.302 -0.2332  0.0378 -0.0380
 6742W        W23216   1.960  15.650   2.475 -0.1496  0.0597 -0.0955
 6743W        W23217   2.260  15.369  12.315 -0.2672  0.0993 -0.1302
 6744W        W23218  12.980  18.879   1.938 -0.1901  0.0612 -0.1210
 6745W        W23219  11.890   4.618   3.666 -0.4306 -0.0871  0.1249
 6746W        W23220   4.100   8.656   3.591  0.2164  0.1574  0.0359
 6747W        W23221   1.921  12.996   3.745 -0.1312  0.2858  0.0229
 6748W        W23222   2.228  12.687   3.444  0.0690 -0.1634 -0.0958
 6749W        W23223   9.009   7.278  11.849 -0.3538 -0.1059 -0.0726
 6750W        W23224   8.540   2.762   3.743 -0.2115  0.0855  0.1176
 6751W        W23225  11.029   5.074  10.362 -0.2286  0.0308 -0.2164
 6752W        W23226   1.907   6.936  10.528 -0.1665  0.1316  0.1882
 6753W        W23227  15.117  15.766   4.153 -0.0430 -0.1294 -0.2122
 6754W        W23228  11.881   7.177  14.434  0.1630 -0.1850  0.3254
 6755W        W23229   7.182   6.304  14.259  0.1277 -0.1973  0.1276
 6756W        W23230   9.793   5.595  13.526 -0.1933 -0.0391 -0.2245
 6757W        W23231   1.654   0.366   9.997  0.0787 -0.1982  0.0343
 6758W        W23232   1.468  12.157   0.646  0.3361 -0.0841 -0.0717
 6759W        W23233   2.129   1.988  13.064 -0.0329 -0.0306 -0.0003
 6760W        W23234   2.087   7.855  10.142  0.2109  0.1350  0.2042
 6761W        W23235  15.110   9.165  11.150  0.1088 -0.1167  0.0702
 6762W        W23236   9.310  11.887  10.910  0.0720 -0.1020  0.1726
 6763W        W23237  12.896  18.445   4.990  0.0685  0.1429 -0.4326
 6764W        W23238  18.552   2.238   0.531 -0.2446 -0.0540 -0.3715
 6765W        W23239  10.056  12.577   2.189 -0.1506 -0.1054 -0.3074
 6766W        W23240   5.776  13.824   0.905 -0.0297 -0.0527  0.0383
 6767W        W23241   4.521   7.492   0.369  0.1287  0.3565  0.1417
 6768W        W23242  13.110  15.133  13.866  0.1555 -0.1264 -0.1303
 6769W        W23243  14.374  13.398  11.051  0.0663 -0.0807  0.0543
 6770W        W23244   1.297   1.700   4.071  0.1265 -0.1941 -0.3108
 6771W        W23245  18.011   1.430   0.143  0.0694 -0.2198 -0.2362
 6772W        W23246   6.148  18.252  12.570  0.2198 -0.2494 -0.1085
 6773W        W23247   6.687  11.318  12.677  0.0175  0.1261  0.1057
 6774W        W23248  14.700   7.593  11.953 -0.1606  0.1506 -0.0753
 6775W        W23249   8.624   2.692  14.274  0.0228  0.3338 -0.0246
 6776W        W23250   2.989  17.879   5.140 -0.2921 -0.0733  0.1820
 6777W        W23251  14.272   9.010  12.931 -0.1487 -0.1693 -0.1578
 6778W        W23252  17.960   0.958   0.295  0.0042  0.1347  0.5509
 6779W        W23253  18.569   0.277   1.608 -0.0702  0.5169 -0.0438
 6780W        W23254  13.801   9.265   2.129 -0.1842 -0.5889 -0.0117
 6781W        W23255  15.506   2.287  14.471 -0.0500 -0.3715 -0.3025
 6782W        W23256   4.176  15.370  13.551 -0.1436 -0.1516 -0.1354
 6783W        W23257  13.288   0.707   3.603 -0.0304 -0.1791  0.2798
 6784W        W23258  10.649  14.871  12.611 -0.1570 -0.3667 -0.0047
 6785W        W23259   9.130   8.810  13.189 -0.0866  0.1916 -0.0682
 6786W        W23260   8.620  16.041  12.728  0.0605  0.0981 -0.0787
 6787W        W23261   5.475  18.907   0.055 -0.0217 -0.0016  0.0754
 6788W        W23262  17.107   7.405   2.055 -0.1633  0.2885 -0.1909
 6789W        W23263   0.370   2.968   0.277  0.2805  0.2255  0.0635
 6790W        W23264   2.500  17.123  10.049 -0.3251  0.0064  0.1277
 6791W        W23265  10.686  16.446  11.786 -0.0170 -0.0725  0.0034
 6792W        W23266   8.827   1.913   4.227 -0.0139 -0.0725  0.2818
 6793W        W23267   9.171  13.445   2.935  0.0181  0.0146 -0.0041
 6794W        W23268   1.856   5.801   4.567 -0.2570  0.0729  0.0763
 6795W        W23269  14.494   9.537  10.022  0.1729 -0.0442  0.2106
 6796W        W23270   5.498   3.602  12.019 -0.3170  0.0184  0.0051
 6797W        W23271   2.065   6.080   2.168  0.0938  0.0471 -0.1849
 6798W        W23272   8.069  14.763  11.480 -0.0016  0.0235  0.3236
 6799W        W23273   7.436   5.906  10.203  0.0353 -0.0925  0.1384
 6800W        W23274   2.559  15.287  11.242 -0.2312  0.7368  0.0555
 6801W        W23275  10.111   5.080   2.877  0.0169  0.2227  0.1937
 6802W        W23276  14.862  18.676  14.519 -0.1615  0.1339 -0.0506
 6803W        W23277  19.385   4.738  10.218 -0.0409  0.0557  0.0150
 6804W        W23278   4.757   1.953  13.795 -0.1691  0.0514  0.3290
 6805W        W23279   8.465  13.403   2.586 -0.0686  0.1487  0.0811
 6806W        W23280  13.726  12.892  13.629 -0.0899  0.2465  0.0390
 6807W        W23281  11.280  11.429  11.939  0.0201 -0.0810 -0.1931
 6808W        W23282   5.080  17.148  10.343  0.2126  0.2693  0.1422
 6809W        W23283   2.932  10.974   4.932  0.1848  0.0957  0.0949
 6810W        W23284   7.363  18.960  10.955 -0.2332  0.1165  0.3438
 6811W        W23285   1.522  15.096  11.538  0.1977  0.2900 -0.3104
 6812W        W23286  15.406   0.465   2.400 -0.1771  0.3507 -0.4425
 6813W        W23287   3.392   8.195   1.393 -0.1998  0.0770  0.1587
 6814W        W23288   2.976  18.420   0.315  0.2693 -0.3981  0.3428
 6815W        W23289   3.913   2.774   0.423  0.2664 -0.1783 -0.0940
 6816W        W23290  11.551  12.842  11.289  0.2602  0.2136  0.0725
 6817W        W23291   2.609  17.977  10.494 -0.3601  0.0689 -0.0139
 6818W        W23292  11.389   7.182   3.836  0.0721 -0.2616 -0.2901
 6819W        W23293   3.529   2.103  13.357  0.0428  0.1534  0.2736
 6820W        W23294  18.481   3.609   1.596 -0.1346  0.2084  0.0391
 6821W        W23295   2.774  18.542  10.630  0.1658 -0.1240 -0.4741
 6822W        W23296  12.438  14.380   4.955 -0.5616 -0.1960  0.2410
 6823W        W23297   7.596  17.257  13.115  0.1029 -0.1428  0.1808
 6824W        W23298   8.912  10.471  10.258  0.2062  0.1860  0.1090
 6825W        W23299   3.168   2.059  11.859 -0.1572 -0.3711 -0.2011
 6826W        W23300  19.348  14.857   1.155  0.0664 -0.4293 -0.0729
 6827W        W23301   0.894  15.518  11.556  0.2691  0.0629  0.0305
 6828W        W23302   3.331  15.698   5.043 -0.1112  0.1834 -0.1005
 6829W        W23303  18.228  15.124   4.087 -0.1380 -0.0919 -0.0093
 6830W        W23304   2.777  11.862   4.403 -0.0043  0.0063  0.1700
 6831W        W23305  14.692   5.401   4.632  0.2581 -0.3104 -0.2238
 6832W        W23306  16.532   9.665  14.038  0.0137 -0.2073  0.0783
 6833W        W23307   1.531   3.780   1.440  0.2610  0.0342  0.0930
 6834W        W23308  18.280  15.924   4.654  0.5228  0.0341  0.3679
 6835W        W23309   4.790  11.241   9.235 -0.1268 -0.1140 -0.0415
 6836W        W23310  12.119   8.541  13.919  0.2374 -0.1656  0.0585
 6837W        W23311   2.934  18.196  14.059 -0.1495 -0.0206 -0.1164
 6838W        W23312  17.182   3.628   4.117 -0.2888  0.0654 -0.0430
 6839W        W23313  10.785   6.104   5.238  0.1013  0.1804 -0.0020
 6840W        W23314   7.968   2.823   5.800  0.0982 -0.1611 -0.2635
 6841W        W23315   6.295  11.300   3.880  0.0202  0.0502 -0.0685
 6842W        W23316   3.451   7.862  12.812 -0.1450 -0.0230 -0.0005
 6843W        W23317   7.372  16.244  11.275  0.1033  0.2347  0.1395
 6844W        W23318   4.369  19.543  10.356  0.0391  0.0132  0.0715
 6845W        W23319   3.378   0.166   3.482 -0.2047 -0.0568  0.0292
 6846W        W23320  15.105   3.854   0.050  0.4614 -0.3442 -0.2457
 6847W        W23321  16.815   0.834   0.678 -0.0938  0.1474  0.2304
 6848W        W23322  11.963   0.283   2.457 -0.1902  0.1243 -0.0159
 6849W        W23323   8.362  17.184   1.948 -0.1229 -0.0239 -0.0159
 6850W        W23324   4.230  14.037   2.225 -0.1930  0.1272 -0.0881
 6851W        W23325   3.299  14.633  11.458 -0.0222 -0.1178  0.0222
 6852W        W23326  16.463   8.485   2.628  0.2687  0.1714  0.0689
 6853W        W23327   9.357   6.656  12.620 -0.3760  0.3360  0.0222
 6854W        W23328  15.761  17.236  12.312 -0.0835 -0.2036  0.1714
 6855W        W23329   5.775   1.574  12.912 -0.2196 -0.1535 -0.2749
 6856W        W23330   9.209  14.864   4.232  0.0043 -0.5117 -0.0033
 6857W        W23331  18.118  18.791  12.538  0.2344 -0.0483  0.0619
 6858W        W23332   6.162  15.388   3.870  0.1650 -0.4512 -0.0488
 6859W        W23333   3.130  15.403   2.803  0.1385 -0.4329 -0.1530
 6860W        W23334   5.131  16.985   1.013  0.1639  0.1198  0.0653
 6861W        W23335  18.392  14.487   5.195 -0.1813 -0.2078 -0.1584
 6862W        W23336  14.228   4.976   1.446  0.1088  0.0100 -0.0189
 6863W        W23337  16.103   8.419   1.758  0.0304  0.1267 -0.1574
 6864W        W23338   3.725   4.400   2.279 -0.2898 -0.2648  0.1679
 6865W        W23339   4.772  13.490   4.747 -0.0896 -0.0423 -0.1889
 6866W        W23340  14.557  17.729   1.741  0.3310  0.0331  0.1087
 6867W        W23341   4.568   6.275   2.914 -0.3234  0.3216  0.2798
 6868W        W23342   3.104   6.741  13.107 -0.0691 -0.0213  0.3386
 6869W        W23343  10.190   0.452   3.614 -0.0055  0.1532 -0.2400
 6870W        W23344  15.295  14.401  13.436 -0.2750  0.3063  0.1019
 6871W        W23345   9.929   2.442  12.652 -0.1426  0.1322 -0.3111
 6872W        W23346   4.746   8.358   1.053 -0.2801  0.1446 -0.4008
 6873W        W23347  18.441   8.054  10.760  0.0205 -0.0027 -0.0605
 6874W        W23348  15.579  17.719  13.542  0.2585 -0.0247  0.1726
 6875W        W23349   6.505  14.370  12.136 -0.0905 -0.3467  0.0885
 6876W        W23350   0.040   9.127   3.980  0.0618 -0.2446 -0.2175
 6877W        W23351   6.631  14.456   1.269  0.2101  0.2149  0.2083
 6878W        W23352   2.752  13.786   0.913 -0.3843 -0.1509  0.0753
 6879W        W23353   9.005   7.511   5.319 -0.1273 -0.2592 -0.3794
 6880W        W23354   0.499  17.664  13.306  0.0182 -0.0460  0.1384
 6881W        W23355  10.247   3.255   9.988  0.1042  0.1844  0.3634
 6882W        W23356   0.044  11.459   8.889  0.1688 -0.2965  0.1423
 6883W        W23357   6.369   5.183  13.039  0.2180 -0.0473  0.0044
 6884W        W23358   3.307   1.442   9.565 -0.2521 -0.1692  0.1990
 6885W        W23359   2.836  11.445   9.102 -0.0776  0.2736  0.1372
 6886W        W23360   8.592   6.136  13.420 -0.2571  0.1079 -0.1783
 6887W        W23361   9.295  15.124   3.062 -0.2855 -0.1542  0.0243
 6888W        W23362  18.487   9.172  12.982  0.1109  0.3470 -0.2315
 6889W        W23363  11.556   0.666  11.202  0.4289 -0.0015 -0.0040
 6890W        W23364  15.009  15.591   1.769  0.3921 -0.0941  0.1405
 6891W        W23365   9.187  18.046   9.465  0.0638  0.2085 -0.2036
 6892W        W23366   4.803   0.038   3.261  0.4136 -0.1485  0.0387
 6893W        W23367  17.543   3.256   3.141  0.1896 -0.0115  0.1084
 6894W        W23368   3.105   9.234  11.667  0.0795 -0.0417 -0.1620
 6895W        W23369   1.313   1.178   9.736  0.1509 -0.0005 -0.0741
 6896W        W23370  10.621   2.276  12.721 -0.0274 -0.1873  0.1133
 6897W        W23371  15.718   4.599  12.237  0.3050  0.0122  0.1531
 6898W        W23372  16.117  12.350   1.327 -0.1670  0.0214  0.0456
 6899W        W23373  11.685  14.296  11.168 -0.1946  0.2599  0.0429
 6900W        W23374   9.477   8.280   2.194 -0.1170  0.3154  0.2547
 6901W        W23375  15.547   4.941   2.638  0.2175 -0.0197  0.1724
 6902W        W23376   2.042  14.043   4.954 -0.3344 -0.1121  0.3798
 6903W        W23377  10.255   7.232   1.182  0.0727  0.2797  0.1826
 6904W        W23378   1.994   0.686  11.254 -0.1452 -0.0383  0.0646
 6905W        W23379   3.202  11.350  13.534  0.0933  0.2006 -0.0142
 6906W        W23380  15.437  19.236   3.912 -0.1969  0.1216 -0.0681
 6907W        W23381   1.883  12.144   4.808 -0.0582  0.2887 -0.1588
 6908W        W23382   0.357   0.850   2.402 -0.3531  0.1543  0.2099
 6909W        W23383  16.426   7.775   5.254 -0.0927  0.2677 -0.0918
 6910W        W23384   4.268   7.716   1.612  0.1654 -0.0431 -0.0137
 6911W        W23385  19.396   2.266   1.265 -0.1503 -0.0371 -0.1224
 6912W        W23386   7.222  12.588  11.857 -0.0390  0.0157  0.1162
 6913W        W23387   8.323   6.361   4.232  0.1734  0.1403 -0.0060
 6914W        W23388  16.732   8.106   5.849 -0.1638 -0.1642 -0.1027
 6915W        W23389   4.936   5.245  12.898 -0.2058 -0.0858 -0.0140
 6916W        W23390  15.017  15.984  12.559 -0.3069  0.1475  0.0729
 6917W        W23391   7.112  12.519   2.587 -0.0164  0.0296  0.0140
 6918W        W23392  15.795   8.760  13.255  0.3509  0.1570  0.0343
 6919W        W23393  13.317  19.007  14.658  0.1552 -0.0136  0.2249
 6920W        W23394   1.274   6.468   3.666 -0.3340 -0.2461 -0.1787
 6921W        W23395   8.188  19.372   9.921 -0.2478 -0.1165 -0.0873
 6922W        W23396   5.149  10.061   0.111  0.1684  0.2877 -0.2775
 6923W        W23397   2.994   6.923  13.633 -0.1255 -0.2127 -0.0816
 6924W        W23398   0.828   0.076  14.634 -0.2351 -0.0603 -0.3295
 6925W        W23399   7.281  19.240   2.776 -0.0125 -0.1107  0.1446
 6926W        W23400  10.229   7.618   0.835 -0.2166 -0.2376  0.0328
 6927W        W23401  18.978  19.261   3.641 -0.3549  0.2360  0.1500
 6928W        W23402  17.352  13.952   4.291  0.1456 -0.0841  0.3863
 6929W        W23403   4.697   5.828   3.790 -0.1120  0.4058 -0.0576
 6930W        W23404   6.397   5.523   1.377 -0.0209  0.0313  0.1938
 6931W        W23405  12.043  19.077   2.109 -0.3347  0.0345 -0.0128
 6932W        W23406   1.325   1.060  12.833 -0.1901  0.0951 -0.0957
 6933W        W23407  15.161  16.633   4.376 -0.1110 -0.1869  0.0069
 6934W        W23408  16.304  18.382  14.161 -0.0504  0.2555  0.0140
 6935W        W23409   9.947  11.021   2.897  0.0128  0.1327 -0.0331
 6936W        W23410  15.139   7.709  13.998 -0.3820 -0.0647  0.0734
 6937W        W23411   3.445  16.859  12.538  0.1059 -0.2562 -0.2659
 6938W        W23412   6.830   3.128  10.400 -0.0679  0.2148 -0.1138
 6939W        W23413  18.049   3.188   1.795  0.1710 -0.2825 -0.1101
 6940W        W23414  18.329   1.652  13.028  0.1806  0.1469  0.3766
 6941W        W23415   4.531  15.014  10.813  0.1200  0.0630  0.3612
 6942W        W23416  12.940  15.329   2.466 -0.3906 -0.0770 -0.0358
 6943W        W23417   6.863   6.381  13.209  0.1335 -0.0486 -0.2900
 6944W        W23418  15.407  10.405  13.883 -0.0144 -0.1448 -0.2117
 6945W        W23419   1.366  15.056   4.233 -0.2449  0.1075 -0.2525
 6946W        W23420   6.322  13.531  14.187 -0.1020  0.1019  0.1103
 6947W        W23421   2.624  10.745   4.461  0.4056 -0.2388  0.1878
 6948W        W23422  16.015  12.324  14.030 -0.2629  0.0092 -0.2524
 6949W        W23423   2.957   8.891  10.925  0.3156 -0.4834 -0.1997
 6950W        W23424  16.527   0.405   0.689 -0.1837 -0.0751 -0.0838
 6951W        W23425  17.040   6.836  10.091  0.0625 -0.2094  0.2160
 6952W        W23426   8.652   9.192  13.372  0.2151 -0.0268 -0.1042
 6953W        W23427  10.073   8.111   9.956 -0.4796  0.1737 -0.1010
 6954W        W23428  16.031  15.667  12.274 -0.0134  0.3448  0.0096
 6955W        W23429  10.680  10.706   0.692 -0.1296  0.2131  0.0468
 6956W        W23430   0.806   2.442   3.762  0.0413  0.2356 -0.2902
 6957W        W23431   6.922  17.049  11.633 -0.2181 -0.0880  0.0616
 6958W        W23432   1.220   8.723   1.124  0.0581 -0.0826 -0.0358
 6959W        W23433  17.256  16.228  13.406 -0.0598 -0.1690  0.0803
 6960W        W23434   7.008  13.829   2.973  0.2031 -0.1870 -0.0534
 6961W        W23435   2.037  12.211  12.087 -0.0441  0.0842  0.3170
 6962W        W23436  10.077   1.752   1.114  0.0028 -0.5019  0.2837
 6963W        W23437   0.059  18.155  10.601  0.0580 -0.0759 -0.0481
 6964W        W23438  13.510  15.773   2.132  0.3164  0.1536  0.3806
 6965W        W23439   1.745   1.679  14.317  0.1870  0.0502 -0.0674
 6966W        W23440  18.465  14.687  13.615 -0.0760  0.0909  0.2198
 6967W        W23441   6.018   9.381   4.039 -0.1805  0.0916  0.3814
 6968W        W23442   7.110   2.861   1.214  0.0166  0.0218 -0.1965
 6969W        W23443   5.702  12.661   2.691 -0.1202  0.1595 -0.0508
 6970W        W23444   3.793  12.810   3.806 -0.1053 -0.0450 -0.2008
 6971W        W23445  19.340   7.005   2.544  0.1285  0.0187 -0.2598
 6972W        W23446   6.304   4.092  10.833 -0.0560 -0.2015 -0.1134
 6973W        W23447   2.032   3.846   1.371  0.0787 -0.1413  0.2909
 6974W        W23448  14.676  13.050   4.884 -0.0816 -0.0622  0.2401
 6975W        W23449  15.628  18.178   5.603 -0.0032 -0.0497  0.6262
 6976W        W23450  12.307  16.804  14.581  0.6005 -0.1727  0.1884
 6977W        W23451   6.390   2.141   0.495 -0.0490 -0.3116 -0.6109
 6978W        W23452   4.186   7.514  14.099  0.2789  0.0597 -0.1034
 6979W        W23453  18.971   3.681  13.989  0.0992 -0.0224 -0.0527
 6980W        W23454  10.525   8.426  13.927  0.2832  0.0245 -0.0823
 6981W        W23455   3.078   6.240  14.336  0.1403 -0.1785 -0.2616
 6982W        W23456   3.969  19.124  11.194  0.1954 -0.2250  0.3864
 6983W        W23457   3.145  18.653   4.970  0.0223  0.1767 -0.0041
 6984W        W23458   5.039   0.092   1.996 -0.0998 -0.0728 -0.0757
 6985W        W23459   6.487  16.531   2.643  0.3788  0.1083  0.1863
 6986W        W23460  17.901  14.040   2.998 -0.2631  0.0444  0.1370
 6987W        W23461   3.817   8.174   0.791  0.2571 -0.0273 -0.2203
 6988W        W23462  12.016   2.550  12.511 -0.1184 -0.0002  0.1630
 6989W        W23463  10.567  11.939   4.869 -0.1018  0.3668 -0.1104
 6990W        W23464   0.393  16.990   1.172 -0.0833  0.0864 -0.0486
 6991W        W23465  15.576   5.679   0.642  0.0568  0.0735  0.1699
 6992W        W23466  17.151  13.064   4.516 -0.3456 -0.1477 -0.0547
 6993W        W23467   6.251   2.757  14.377  0.0971 -0.0895  0.3695
 6994W        W23468   9.819   2.816   3.923  0.0441  0.3738 -0.1152
 6995W        W23469   5.687   1.771  14.185 -0.0282  0.6119 -0.0422
 6996W        W23470   8.672  15.799  12.269  0.2593  0.0441 -0.0190
 6997W        W23471   3.342  17.990  11.719 -0.3096  0.0729 -0.3232
 6998W        W23472   6.322   2.823  10.561  0.0019 -0.1518  0.3809
 6999W        W23473   8.850  10.469   0.159  0.0023 -0.2945  0.1493
 7000W        W23474  19.285  18.480   3.793  0.1013  0.1277 -0.0523
 7001W        W23475   0.377   4.605   2.402  0.3227  0.2724  0.0376
 7002W        W23476  17.848  12.615   0.962 -0.0041  0.0906 -0.1888
 7003W        W23477   0.928  11.982   1.880 -0.0713 -0.1027  0.0602
 7004W        W23478   7.237   1.660   0.416 -0.1642 -0.0108 -0.1485
 7005W        W23479  16.460   0.364   2.867 -0.0027 -0.1549  0.1949
 7006W        W23480   6.098   9.918   0.012  0.0949 -0.0563 -0.2291
 7007W        W23481   6.688   3.239   1.882  0.1533  0.0176 -0.2572
 7008W        W23482   1.271  14.229   1.886 -0.1556  0.4221 -0.0457
 7009W        W23483   0.637  10.904  11.394  0.2872  0.0955  0.0121
 7010W        W23484  10.468  16.005   0.022  0.1632  0.2839 -0.2299
 7011W        W23485   9.279   9.655   4.543 -0.1983 -0.2428  0.1117
 7012W        W23486  17.466   1.794  11.444  0.0663  0.1592 -0.0135
 7013W        W23487   1.423  15.306   5.364  0.0400  0.1572 -0.0740
 7014W        W23488  13.727  12.295   2.923 -0.0756 -0.0204 -0.0290
 7015W        W23489   7.386  18.873   4.049  0.2497  0.1468  0.0288
 7016W        W23490   7.186  11.089   2.330 -0.0024 -0.2233 -0.0371
 7017W        W23491   7.850  14.940   1.346  0.1139 -0.2217 -0.0407
 7018W        W23492  13.360   2.653   5.145  0.0008  0.1898  0.1208
 7019W        W23493  15.433  15.032  11.155  0.0605  0.0916 -0.2068
 7020W        W23494  18.320  16.641  11.574  0.1198 -0.2649  0.1286
 7021W        W23495   9.721   6.272  11.600  0.0519  0.2519 -0.0531
 7022W        W23496   4.884   6.818  14.003 -0.0713 -0.1279  0.0799
 7023W        W23497  11.775   5.787   0.275 -0.1350 -0.1875 -0.3883
 7024W        W23498   3.438  14.465  12.424  0.1972  0.0675  0.2980
 7025W        W23499   1.335  12.043   1.271  0.1064 -0.0647 -0.1208
 7026W        W23500   5.534   1.721  10.359  0.2230  0.1212  0.0402
 7027W        W23501   0.990  15.804   3.041  0.3328  0.0682  0.1776
 7028W        W23502  18.752   5.272  13.320 -0.0189 -0.1624 -0.1309
 7029W        W23503   7.687   8.813  11.262  0.1625  0.0929  0.4988
 7030W        W23504  15.108  15.918   0.392 -0.2041 -0.1655 -0.2442
 7031W        W23505  10.414  14.135   3.831  0.1243  0.0057 -0.1474
 7032W        W23506   7.045   0.732   2.679 -0.1328  0.1953 -0.1368
 7033W        W23507  14.797   4.338   2.415 -0.2399 -0.0617 -0.0056
 7034W        W23508   2.446  12.449  11.918 -0.0812 -0.1027  0.0268
 7035W        W23509   0.946   5.849   2.529  0.0833  0.1562 -0.1289
 7036W        W23510   8.611   9.019  13.946 -0.1970 -0.1060 -0.1727
 7037W        W23511   4.286  17.685  10.879 -0.1514 -0.0652 -0.0256
 7038W        W23512  11.354  19.494  10.789 -0.2595  0.1074 -0.2369
 7039W        W23513  16.099   2.501  13.134  0.1689 -0.1587 -0.1142
 7040W        W23514   5.905   3.086  13.507 -0.1393  0.1186 -0.1968
 7041W        W23515   3.449   0.728   2.091  0.2309 -0.0216  0.3039
 7042W        W23516   9.891  12.329   3.630  0.2930 -0.4572  0.3169
 7043W        W23517  10.779   0.872   1.333  0.3374 -0.0417  0.1843
 7044W        W23518  15.098  14.134   3.791  0.0460 -0.1954 -0.2100
 7045W        W23519   2.190   8.575   4.327 -0.1045  0.0032 -0.2081
 7046W        W23520  16.316  18.672   3.163  0.0212 -0.1107 -0.0190
 7047W        W23521   9.779   7.014  13.519 -0.0271 -0.0060  0.1369
 7048W        W23522  14.854  11.144   2.463 -0.2767  0.0627 -0.2465
 7049W        W23523   5.626   9.440   0.645  0.0879 -0.2233  0.1536
 7050W        W23524  17.582   8.222  11.779  0.1037 -0.2413  0.0194
 7051W        W23525   6.431  11.007  13.750  0.1960 -0.0963 -0.1526
 7052W        W23526  19.525  17.098   2.518  0.0550 -0.0133 -0.2680
 7053W        W23527  18.960  11.945   4.869 -0.0672  0.0120 -0.0872
 7054W        W23528   1.784   1.344   2.951  0.1634 -0.1890  0.0423
 7055W        W23529  18.148  18.978  10.125  0.2886 -0.3528 -0.2666
 7056W        W23530  11.651  18.989  11.608  0.3826  0.3363 -0.2344
 7057W        W23531  19.371   0.540   2.980 -0.1191  0.0798 -0.1220
 7058W        W23532   2.643   6.921   4.376  0.0531 -0.1237  0.1509
 7059W        W23533  11.566  11.840   1.700 -0.0048 -0.0228 -0.3872
 7060W        W23534  13.232   6.497  13.244 -0.1706 -0.0209 -0.1448
 7061W        W23535   9.288  14.223   3.534 -0.2566 -0.0914  0.0984
 7062W        W23536   7.361   3.379   4.475  0.0466 -0.2263  0.1280
 7063W        W23537  11.811  14.217   9.909 -0.0464 -0.3963  0.1359
 7064W        W23538  18.353  10.732   1.505  0.1490  0.1792  0.0203
 7065W        W23539   1.201   5.243  12.599 -0.2424  0.0391  0.0343
 7066W        W23540  11.468   3.872   8.762 -0.0821 -0.0867 -0.1050
 7067W        W23541   5.737  17.803   5.314 -0.2051 -0.0722  0.0311
 7068W        W23542  11.332  18.164  12.114 -0.0526 -0.2744  0.1887
 7069W        W23543  14.330  16.268  10.870 -0.1227  0.2156  0.2903
 7070W        W23544   6.155   0.380  11.347  0.4517  0.0666  0.2956
 7071W        W23545  16.719  13.103   1.006  0.0977  0.2109 -0.4399
 7072W        W23546  18.679  14.419   3.839 -0.2575  0.0642  0.0932
 7073W        W23547  10.125  17.537  14.583 -0.0921  0.1613  0.2474
 7074W        W23548  12.091  10.226   1.382  0.0324  0.1666 -0.0648
 7075W        W23549   4.696   0.299   3.875 -0.0269  0.1310 -0.1756
 7076W        W23550   3.418   8.138  14.191 -0.0550 -0.1682 -0.1117
 7077W        W23551   8.689  12.265   2.305  0.0498  0.2563 -0.0905
 7078W        W23552  18.419  10.561   1.979  0.0367  0.1964  0.3076
 7079W        W23553   0.792   6.072  12.398  0.0862 -0.0486  0.2171
 7080W        W23554   2.933  14.268  13.413  0.0833 -0.2698 -0.1601
 7081W        W23555   8.792  11.819   0.055  0.1838 -0.1638 -0.1806
 7082W        W23556  17.115   8.531  14.601  0.4986 -0.1141 -0.0633
 7083W        W23557  14.588   6.461   2.661 -0.2438 -0.3170  0.1026
 7084W        W23558   6.198   3.139   2.852 -0.1156 -0.2458 -0.3573
 7085W        W23559   6.220   5.102  10.910  0.2396 -0.1889  0.0674
 7086W        W23560  12.171  15.063  11.505  0.2916 -0.0309 -0.2015
 7087W        W23561  10.845   1.308   3.067 -0.3608 -0.4261 -0.1268
 7088W        W23562   0.997  15.091   0.079 -0.2240  0.2870 -0.6145
 7089W        W23563   8.692   3.666   2.213  0.5055  0.2255 -0.3077
 7090W        W23564  10.770  13.869   0.534 -0.2732  0.1523 -0.3145
 7091W        W23565   5.741  12.203  11.651  0.6174 -0.5135  0.0464
 7092W        W23566   4.077  12.448   2.969  0.1779 -0.0250 -0.0021
 7093W        W23567  14.590  14.087   2.640  0.0850 -0.0402  0.2374
 7094W        W23568   4.343   6.083  12.667  0.0700 -0.3279  0.0408
 7095W        W23569   2.975   3.307   4.393  0.0956 -0.2462  0.0692
 7096W        W23570  13.343  18.495  11.902 -0.6048  0.0865 -0.0088
 7097W        W23571  16.178   8.178   4.979 -0.1797  0.3636  0.2872
 7098W        W23572   4.169   9.726  12.167 -0.1044 -0.1798  0.2197
 7099W        W23573   0.892  13.331   2.300 -0.0903 -0.0831 -0.0772
 7100W        W23574   5.003   9.372  13.778  0.3124 -0.2433 -0.1835
 7101W        W23575   5.765  14.262  10.502 -0.2574 -0.2730 -0.0779
 7102W        W23576  14.969  14.488   3.476  0.0376  0.2503  0.1338
 7103W        W23577  11.260   0.234  14.495  0.1432 -0.0874  0.0859
 7104W        W23578  14.067  10.060   3.511  0.1908  0.0163 -0.4221
 7105W        W23579   1.936  10.271   4.932 -0.0696  0.1693 -0.0676
 7106W        W23580  18.505   1.634  12.469 -0.0207 -0.1160  0.1218
 7107W        W23581   0.468   2.484  13.991  0.5167  0.0589 -0.0181
 7108W        W23582  15.468   4.103   4.704  0.2028 -0.2434  0.4030
 7109W        W23583  15.328   6.726   4.852 -0.2751 -0.0779 -0.1069
 7110W        W23584  11.250  15.145   0.806 -0.0787 -0.0801 -0.1877
 7111W        W23585  17.236   0.635  10.727  0.1286 -0.1031 -0.2318
 7112W        W23586  17.362   3.396   4.487 -0.1775  0.4925  0.1262
 7113W        W23587   5.455  17.574   1.973  0.1231  0.0529 -0.1844
 7114W        W23588   4.636  13.314   2.384 -0.0438  0.0208  0.1809
 7115W        W23589   8.231  18.350   4.544  0.2336  0.0071  0.1709
 7116W        W23590   4.665   9.582   3.427  0.1122 -0.0951  0.2158
 7117W        W23591   3.600   7.834  10.625  0.4246  0.1979 -0.2729
 7118W        W23592  19.486   1.627   1.812  0.3445 -0.2062  0.2008
 7119W        W23593  12.927   6.369   4.685  0.0614  0.2905 -0.1027
 7120W        W23594   1.517  16.390  10.483  0.0181  0.1092 -0.2497
 7121W        W23595  15.572  12.301   2.660 -0.1471 -0.2123 -0.1010
 7122W        W23596  14.321  12.457   5.768 -0.1010  0.2743  0.0967
 7123W        W23597  18.053   7.036   2.455 -0.3312  0.0857 -0.0327
 7124W        W23598  15.159  13.256   2.701 -0.1056  0.1075 -0.2479
 7125W        W23599  18.645   4.343  13.894  0.3537  0.0734 -0.0674
 7126W        W23600   2.616  16.452  12.249 -0.1748  0.0155  0.3334
 7127W        W23601  10.070  17.151   2.938  0.1032  0.1139 -0.1646
 7128W        W23602  12.661  15.881  14.153 -0.0607  0.1807  0.0185
 7129W        W23603   1.612   7.424  11.711  0.1661 -0.0070  0.2346
 7130W        W23604  18.209  12.681  10.462 -0.1600  0.0622 -0.0165
 7131W        W23605   0.415   6.481   1.167 -0.0068  0.0306  0.2509
 7132W        W23606  18.577  17.248   1.543  0.4402  0.0361 -0.0292
 7133W        W23607  16.505  18.174   1.627  0.2664 -0.0009 -0.0268
 7134W        W23608   6.874   4.796  13.644 -0.2370  0.1866  0.0287
 7135W        W23609   8.205  15.803  14.361 -0.0234 -0.3562 -0.0330
 7136W        W23610   4.496   1.515   3.882 -0.3648 -0.0649 -0.0475
 7137W        W23611   3.564   5.852  11.078 -0.2707 -0.0086 -0.1375
 7138W        W23612   3.546   9.924  14.485 -0.4787  0.0081 -0.0325
 7139W        W23613  16.996   3.904  13.963  0.1873 -0.1289  0.2447
 7140W        W23614   3.016  17.151  12.464 -0.0768 -0.1140 -0.1288
 7141W        W23615  17.917   9.920   0.431 -0.0495 -0.2319 -0.2805
 7142W        W23616   2.410   2.018   1.944 -0.0412 -0.0091 -0.1845
 7143W        W23617   2.452   4.653   3.041 -0.0974 -0.2861 -0.1054
 7144W        W23618   5.288   0.273  13.031  0.1964 -0.2125 -0.0200
 7145W        W23619   7.134  14.667  13.641  0.1503  0.1966  0.0814
 7146W        W23620  19.151   2.354  14.480  0.2529 -0.1428 -0.2011
 7147W        W23621   7.516   0.873   4.866 -0.3195  0.2047 -0.0083
 7148W        W23622  12.709   2.482   1.937  0.0437 -0.0775  0.0263
 7149W        W23623  14.311  16.521  13.648 -0.3931  0.3651 -0.0621
 7150W        W23624   1.504   0.787   4.251 -0.3287  0.0798 -0.2543
 7151W        W23625  15.853   5.979  11.069 -0.0849  0.0425  0.2427
 7152W        W23626   1.097  15.050   3.610 -0.0833 -0.0564 -0.0311
 7153W        W23627  13.756  11.578  13.903  0.0568 -0.1327 -0.0998
 7154W        W23628  13.299   0.621  13.955  0.0249 -0.0911  0.1116
 7155W        W23629   4.243  15.137   4.816  0.2610 -0.0688  0.1655
 7156W        W23630  18.799   9.719   4.220  0.2198 -0.1367 -0.3110
 7157W        W23631   2.405   4.299  10.656 -0.0581  0.1412  0.0778
 7158W        W23632   4.106   6.349  13.154 -0.2212  0.1409 -0.0583
 7159W        W23633  14.101   3.611   2.435  0.0198 -0.0799  0.1754
 7160W        W23634  19.194  13.705  11.023  0.0022 -0.0004  0.2116
 7161W        W23635   7.378   2.748  13.479 -0.2454  0.0337 -0.2425
 7162W        W23636  12.805  18.970  13.148  0.0460  0.0010 -0.0370
 7163W        W23637  18.705  13.416   2.157 -0.0608  0.0616  0.1024
 7164W        W23638  15.321   3.876   0.593  0.1665  0.3323 -0.0191
 7165W        W23639   6.354  14.179  11.501 -0.1739 -0.0177 -0.1392
 7166W        W23640   6.368   0.279   9.913  0.2258  0.1757 -0.0477
 7167W        W23641  11.675  19.376   1.299  0.4031  0.1476  0.0393
 7168W        W23642   4.187  10.555   3.110  0.4061 -0.3959  0.1424
 7169W        W23643   8.937   2.863  13.831  0.0011  0.1002  0.1555
 7170W        W23644  11.466  13.661  14.273  0.1210  0.2484 -0.0681
 7171W        W23645   2.800  10.313  12.215  0.2041  0.2628 -0.1240
 7172W        W23646   7.020   1.586  14.075  0.1120  0.1123 -0.0783
 7173W        W23647   4.532  18.922  13.339  0.1896 -0.1994  0.0512
 7174W        W23648  17.577  18.172   5.308 -0.0284  0.1714 -0.1408
 7175W        W23649  19.581  10.638   4.783  0.3435 -0.0674 -0.0599
 7176W        W23650   9.401  17.414   4.096  0.1426  0.2392  0.1059
 7177W        W23651  17.731   3.501   4.911  0.1311 -0.0746 -0.1410
 7178W        W23652  10.628   1.620   2.651  0.0531 -0.2675  0.1289
 7179W        W23653  10.660   9.864  11.500  0.0085 -0.0908  0.1982
 7180W        W23654   9.021  14.590   3.766  0.1871  0.0119  0.0479
 7181W        W23655  14.440   5.133  13.567  0.1638  0.0057 -0.2762
 7182W        W23656  17.852  16.302  12.708 -0.2522  0.1655  0.1453
 7183W        W23657  10.541   2.638   9.057  0.0583 -0.0399 -0.1703
 7184W        W23658   3.955  16.354  13.122 -0.6293  0.0861  0.0207
 7185W        W23659   2.870  13.130  12.418 -0.2489 -0.0175  0.1704
 7186W        W23660  14.926  16.593  13.376  0.1756 -0.1996  0.1537
 7187W        W23661  11.532   4.122   3.326  0.1419 -0.3063 -0.1309
 7188W        W23662  19.105  14.760   0.601  0.1990  0.2203 -0.0136
 7189W        W23663   5.518  16.671  13.120 -0.1320  0.3090 -0.1824
 7190W        W23664   5.949   1.718  11.210 -0.1133 -0.0487 -0.1898
 7191W        W23665   9.037   8.554   5.549  0.1281 -0.1935  0.1868
 7192W        W23666  15.217  13.555   2.117  0.0120  0.0600  0.2734
 7193W        W23667   2.894   5.449   2.261 -0.2079  0.2145  0.1454
 7194W        W23668   5.029   4.824  12.679  0.3772  0.0190 -0.1108
 7195W        W23669   1.475  15.348   2.026 -0.2005 -0.0139 -0.2123
 7196W        W23670  18.390   4.786  14.275 -0.0644 -0.0240 -0.0916
 7197W        W23671  16.244  18.960   0.850 -0.2839  0.0273  0.0657
 7198W        W23672  17.281   9.741   2.474  0.1180 -0.1993  0.4769
 7199W        W23673   7.792  17.772  12.399  0.2051  0.3834  0.2302
 7200W        W23674  10.089   6.685   2.690 -0.3199  0.2101 -0.2968
 7201W        W23675  15.176   9.844   1.115  0.0404  0.1684 -0.1652
 7202W        W23676  18.052  14.603  13.220 -0.1281 -0.0695  0.1394
 7203W        W23677   6.906   2.854   3.909 -0.3503 -0.1527 -0.3420
 7204W        W23678  11.231  14.629   0.854  0.0452  0.5187 -0.0608
 7205W        W23679  15.076   0.607   3.115  0.4656  0.3758  0.1961
 7206W        W23680   4.936   6.858   1.802  0.2234  0.1252 -0.1798
 7207W        W23681  14.932   4.444  11.148  0.1694 -0.1763 -0.0485
 7208W        W23682   3.331   6.357   4.584  0.0173 -0.0580 -0.1535
 7209W        W23683   2.004   9.025   0.651  0.2186 -0.2031 -0.2457
 7210W        W23684   6.820  10.320   2.622 -0.0164  0.2841  0.1225
 7211W        W23685  11.509  12.255   2.007 -0.1963  0.1399  0.3109
 7212W        W23686   5.380  11.555  13.198  0.1434 -0.0754  0.2723
 7213W        W23687   9.779   2.717  13.488 -0.2350  0.2925  0.0126
 7214W        W23688  14.544   0.504   0.053  0.1167  0.3281  0.2531
 7215W        W23689  18.140  17.379  10.324 -0.0152 -0.1835  0.1318
 7216W        W23690  16.123  18.506   3.864 -0.3229 -0.0058 -0.0551
 7217W        W23691   9.428  15.623   5.028  0.1160  0.1656 -0.1142
 7218W        W23692   1.204  12.047  14.387  0.1028 -0.3324  0.2324
 7219W        W23693   6.714  10.309   5.312  0.1915 -0.3134 -0.0901
 7220W        W23694  18.654   5.583  10.530  0.2268  0.2655  0.0991
 7221W        W23695   9.268  16.774  14.573 -0.2259  0.1600 -0.0236
 7222W        W23696  18.567  13.166  12.555 -0.0099  0.2209 -0.1759
 7223W        W23697   3.505  18.542   1.842  0.4930 -0.1268  0.0868
 7224W        W23698   4.007  15.559  12.982 -0.2861  0.3037 -0.1622
 7225W        W23699  16.564   3.094  10.811  0.2771 -0.1969 -0.4848
 7226W        W23700  17.370   5.354  10.965 -0.1921  0.1167  0.0690
 7227W        W23701   2.310  18.219   4.073  0.1812 -0.0397 -0.1835
 7228W        W23702   6.837   3.956   4.924  0.2038  0.0606  0.3756
 7229W        W23703   7.665   9.090  14.305 -0.2288  0.3448  0.2547
 7230W        W23704   6.047  12.812   3.938 -0.1221 -0.3463  0.2728
 7231W        W23705   9.729  13.997  12.454  0.2395  0.1612 -0.1989
 7232W        W23706  13.115  11.607   2.712  0.0091 -0.3950 -0.1179
 7233W        W23707  15.922  19.290  14.021  0.0073 -0.2725 -0.1239
 7234W        W23708  18.883   2.777   5.077  0.0050  0.0294  0.0612
 7235W        W23709  11.179   0.747  12.963  0.1058 -0.4047 -0.2061
 7236W        W23710  14.068  18.709   1.778 -0.2046 -0.1717 -0.1443
 7237W        W23711  12.232  15.924   1.122 -0.3661  0.3995  0.1258
 7238W        W23712   5.823  10.863   1.770  0.1032  0.2107 -0.0756
 7239W        W23713  13.674   8.325   0.141 -0.0787 -0.0195  0.1932
 7240W        W23714  17.495  11.581   3.262  0.1284  0.0638 -0.0090
 7241W        W23715   1.070   0.901  10.711 -0.0774  0.0548  0.0157
 7242W        W23716  14.147   1.833   0.015  0.0116  0.0567  0.0565
 7243W        W23717   3.479  11.566  13.125  0.2715  0.0635  0.0757
 7244W        W23718  10.818   9.164   1.995 -0.1203 -0.0855  0.1353
 7245W        W23719   3.148   0.020  12.781 -0.2765  0.4109  0.2983
 7246W        W23720  18.084  16.925  10.560 -0.3931  0.1624 -0.0163
 7247W        W23721   9.329   5.339   2.835 -0.3788  0.0844 -0.1946
 7248W        W23722   6.089   0.032   4.145 -0.0315 -0.1527  0.3104
 7249W        W23723  14.131   4.295  10.127 -0.2526  0.2118 -0.0615
 7250W        W23724   5.010   1.083   2.265 -0.0569  0.2906  0.0229
 7251W        W23725  12.265   9.868   3.819  0.2626  0.1106 -0.1524
 7252W        W23726  16.227  12.213   3.199  0.3113 -0.2514  0.2577
 7253W        W23727  11.641  14.892  13.216  0.0413 -0.1116  0.1426
 7254W        W23728  10.709  10.447  12.257 -0.1663 -0.2871 -0.1949
 7255W        W23729  13.018  12.695  11.930 -0.1369  0.0495  0.0689
 7256W        W23730  11.220   7.103   3.300  0.2322  0.0938  0.2176
 7257W        W23731   8.347   9.599   0.096 -0.1279 -0.0926 -0.0049
 7258W        W23732   8.739   7.161  13.545 -0.0770 -0.1146 -0.4625
 7259W        W23733  16.879   4.493  14.140 -0.1459  0.0231  0.1230
 7260W        W23734  12.825   7.150  13.048  0.4728  0.1805  0.0474
 7261W        W23735  13.173   4.395  13.421 -0.0617 -0.1090  0.3537
 7262W        W23736  16.879   9.484   2.040 -0.0947  0.0748  0.2185
 7263W        W23737   2.419   0.154  13.443 -0.0139 -0.0727  0.0867
 7264W        W23738  14.344  15.557   1.191 -0.3048  0.3172 -0.2142
 7265W        W23739  16.367   1.597   0.047  0.0030  0.1129 -0.3011
 7266W        W23740   1.114  11.843   5.112 -0.3015 -0.1572 -0.0644
 7267W        W23741   8.015  10.084   2.289  0.1763 -0.0808 -0.1670
 7268W        W23742  11.301   5.986   2.269  0.3087  0.2112 -0.1628
 7269W        W23743   4.434   6.748   3.369 -0.0748 -0.0738 -0.4059
 7270W        W23744  15.478   1.667   0.634 -0.2577 -0.2266 -0.1797
 7271W        W23745  13.409   8.878   1.905  0.2424 -0.2866  0.0352
 7272W        W23746  10.336  12.082   5.755  0.0179 -0.1497 -0.0447
 7273W        W23747  11.891  14.473   1.501  0.0699  0.2544  0.0734
 7274W        W23748  11.673   0.923  11.601  0.2128 -0.1010 -0.0472
 7275W        W23749  15.290   7.320   3.878  0.0372  0.2193 -0.3622
 7276W        W23750   5.488  12.005  13.025 -0.1375  0.0977  0.3418
 7277W        W23751   5.311   3.007   5.080 -0.0809 -0.2039 -0.0667
 7278W        W23752  13.318   3.037   2.868 -0.1577 -0.1441  0.3222
 7279W        W23753   8.736   0.356   4.381 -0.0525  0.1464  0.0237
 7280W        W23754  11.866   7.328  10.575 -0.1879 -0.4270  0.0244
 7281W        W23755  16.634  16.822   3.182 -0.2189  0.0620  0.1935
 7282W        W23756   9.792  16.872   2.607  0.1602  0.0745 -0.0973
 7283W        W23757  17.862   8.759   1.499 -0.2286  0.2220 -0.1408
 7284W        W23758   5.534   8.289   0.210  0.0898  0.0531 -0.3320
 7285W        W23759   4.069   8.622   2.645 -0.2707  0.5326  0.0299
 7286W        W23760   8.321  14.761  14.592  0.1026  0.2052  0.0732
 7287W        W23761   9.736   1.804  13.023 -0.2454  0.1197  0.1049
 7288W        W23762  13.567   6.647   4.712 -0.1135 -0.0931  0.2391
 7289W        W23763   3.103   3.864   9.476  0.2048  0.1266  0.1526
 7290W        W23764   2.663   6.666   0.853 -0.2587  0.0123  0.3758
 7291W        W23765  13.855  10.348   3.059  0.0917 -0.2737 -0.4281
 7292W        W23766  16.569  17.254  14.197 -0.1595 -0.2134 -0.1532
 7293W        W23767   6.406   0.601   0.770  0.1435 -0.1248 -0.1245
 7294W        W23768  15.005  19.025  11.949 -0.3549  0.1523  0.1283
 7295W        W23769   5.058  18.178  14.239  0.5115 -0.1650 -0.0379
 7296W        W23770  10.458  16.171   0.565  0.3224 -0.1523 -0.0972
 7297W        W23771   6.628   0.473  11.419 -0.1433  0.0034  0.1638
 7298W        W23772  14.368   1.870   0.529  0.2617 -0.0457  0.1729
 7299W        W23773  12.177  10.661   3.219 -0.2707  0.1203 -0.0831
 7300W        W23774  16.018  12.960   4.213  0.3239 -0.0302  0.1416
 7301W        W23775   6.244  11.400  13.958 -0.1127 -0.1192 -0.1802
 7302W        W23776   2.436   6.640   3.021  0.1048 -0.1316  0.4027
 7303W        W23777  13.334  13.274   5.794  0.1889  0.0869 -0.3065
 7304W        W23778  14.865   3.161   3.945 -0.1550  0.0297 -0.1139
 7305W        W23779  10.114  14.466   0.020 -0.4019 -0.0085  0.1649
 7306W        W23780   4.298   2.075  10.038  0.0808 -0.0887 -0.1418
 7307W        W23781   8.817  15.332  10.566 -0.3387  0.0319  0.1699
 7308W        W23782  18.666   5.086   9.257  0.2854  0.0271  0.0413
 7309W        W23783  19.017  15.350   1.591 -0.1364  0.2264  0.5162
 7310W        W23784  19.495   2.843  13.479  0.0875 -0.1240  0.0779
 7311W        W23785  11.726  13.855  10.898  0.1135 -0.1498  0.2476
 7312W        W23786   0.702  17.785   1.672 -0.1771 -0.1083 -0.2234
 7313W        W23787   5.343  18.208   9.468 -0.3614 -0.0744  0.0048
 7314W        W23788  10.036  19.267  10.637  0.0410  0.1121  0.1353
 7315W        W23789   2.100  12.579   4.526  0.0743  0.0912 -0.1102
 7316W        W23790   9.373   2.199   1.622  0.1275  0.0032  0.3504
 7317W        W23791   4.054  13.852  13.267 -0.1111  0.0288 -0.0009
 7318W        W23792   6.769   6.813  13.047 -0.2941 -0.4048 -0.1150
 7319W        W23793  19.073   2.979  11.917  0.0874  0.1154 -0.1184
 7320W        W23794  10.698  18.198  14.196 -0.1921  0.1457  0.1748
 7321W        W23795  10.972  18.345   2.107  0.0326 -0.2781 -0.2256
 7322W        W23796  17.673   3.527   1.665  0.2128 -0.0939 -0.0727
 7323W        W23797  18.874  15.654   2.479  0.3511 -0.2676 -0.2002
 7324W        W23798  14.850   9.568  11.327 -0.0399 -0.2217  0.0435
 7325W        W23799  15.340   5.265   0.743  0.2979 -0.1045 -0.2036
 7326W        W23800   0.451  16.105  13.337 -0.0062  0.3187 -0.1819
 7327W        W23801  13.899  10.956   3.079 -0.2679 -0.0060 -0.0642
 7328W        W23802  12.590   9.955   4.390  0.1545  0.0536  0.2103
 7329W        W23803  13.297   9.349  11.795 -0.1378 -0.0930  0.0209
 7330W        W23804  15.523  12.104   0.146 -0.1484  0.0449 -0.3811
 7331W        W23805  10.253   8.620  11.945 -0.0708  0.3604  0.0814
 7332W        W23806   8.885  16.821   1.568  0.0454 -0.1005 -0.1295
 7333W        W23807   4.375   0.220  13.590  0.0973  0.2446  0.1184
 7334W        W23808  12.253   3.617   2.843 -0.1567  0.2079  0.2117
 7335W        W23809   6.135   4.761   1.849 -0.1349  0.1236  0.1957
 7336W        W23810  11.147  16.889   5.768 -0.2401  0.1388  0.1974
 7337W        W23811   7.475  17.776  12.784  0.5309 -0.1126 -0.3565
 7338W        W23812   9.136  19.090   2.629 -0.0102  0.1166  0.0388
 7339W        W23813   0.510  19.365  13.917  0.1149  0.1073  0.4536
 7340W        W23814  15.676  11.404  11.147  0.0835  0.0510 -0.0521
 7341W        W23815  17.707  17.896  14.241 -0.0637 -0.0181  0.1550
 7342W        W23816   4.609  10.077   0.250  0.0624 -0.3128  0.1987
 7343W        W23817  10.672  13.102  14.539  0.2292  0.1040  0.1151
 7344W        W23818  13.514   4.215  13.102 -0.0749  0.1882  0.1565
 7345W        W23819   7.585  18.894  11.724  0.0682  0.1714  0.1742
 7346W        W23820  18.853   1.701   2.743 -0.0677 -0.1478 -0.1693
 7347W        W23821  17.728  14.478   1.049  0.2305  0.0396  0.2345
 7348W        W23822   4.418   7.253   4.413 -0.0606  0.0484  0.1048
 7349W        W23823   4.445  13.450  10.249  0.1011 -0.0255 -0.1136
 7350W        W23824  13.162  14.062  13.260 -0.3204 -0.0931 -0.2044
 7351W        W23825   9.631  15.066   0.688  0.0454  0.5466  0.3147
 7352W        W23826   4.292   9.587  12.689  0.4059 -0.0773 -0.0942
 7353W        W23827  14.280   7.427   3.029  0.0681  0.0013 -0.2702
 7354W        W23828  16.903  16.877   9.701  0.1408 -0.1227  0.0967
 7355W        W23829   4.686  12.038  12.951  0.2323  0.3497  0.2014
 7356W        W23830   4.651   8.151   1.532 -0.0591  0.0397  0.2439
 7357W        W23831   2.810  15.193  13.443  0.0802 -0.1046  0.0241
 7358W        W23832  12.406   4.319   4.710 -0.0929  0.1765 -0.1443
 7359W        W23833   3.438  14.563   0.703  0.1219 -0.2905  0.0662
 7360W        W23834  13.142   3.862   0.023  0.1432 -0.2942  0.0323
 7361W        W23835   9.537  15.919  12.941  0.2594  0.1998 -0.0748
 7362W        W23836  14.813  15.583  12.336 -0.2558 -0.3581 -0.0266
 7363W        W23837   9.380   6.410  13.111 -0.1545  0.1569  0.1369
 7364W        W23838  12.372   9.650  13.165 -0.3660 -0.1812  0.1252
 7365W        W23839  10.850  18.668  14.427 -0.0677 -0.4212 -0.2880
 7366W        W23840  19.596   1.950  10.939 -0.0402 -0.1557  0.1390
 7367W        W23841  10.684   7.366   4.385 -0.0610  0.4080  0.0542
 7368W        W23842   9.369   8.070   3.497  0.3256 -0.0372 -0.0235
 7369W        W23843  13.766   7.508  14.329  0.2235 -0.1674 -0.0401
 7370W        W23844   0.930  11.976   3.931  0.1337 -0.1131  0.0378
 7371W        W23845   4.491   3.484   2.382 -0.1215 -0.1482  0.0887
 7372W        W23846   3.843   0.688  13.162 -0.2543 -0.0039  0.1226
 7373W        W23847  12.828   7.233   4.269  0.0874 -0.5212 -0.0617
 7374W        W23848   9.252   3.802   1.236 -0.1230  0.0741 -0.1317
 7375W        W23849   9.060  12.541   5.008  0.0545  0.1257 -0.2885
 7376W        W23850   4.867   1.484  13.476 -0.0396  0.2152 -0.0976
 7377W        W23851   4.607  11.661  11.069  0.0633  0.1240 -0.0861
 7378W        W23852  17.404  10.806   4.827 -0.1127  0.3595 -0.2855
 7379W        W23853   9.642  13.874   0.678 -0.2857  0.0707 -0.1822
 7380W        W23854  17.147   0.377  12.553  0.0725  0.0231 -0.1446
 7381W        W23855   3.185   7.901  10.253 -0.1175 -0.0539  0.0099
 7382W        W23856   9.371   3.109   3.918 -0.0714 -0.0478  0.3243
 7383W        W23857   2.985   0.472  12.635 -0.0905  0.2012 -0.2177
 7384W        W23858  18.707   8.520  13.648  0.1480  0.2168  0.0680
 7385W        W23859  10.623   8.792  11.422  0.0226 -0.1673  0.3961
 7386W        W23860   3.500   2.053   2.357 -0.0650 -0.0456  0.0457
 7387W        W23861  14.314  17.502   5.287  0.4021  0.3117  0.4264
 7388W        W23862  14.254   1.787  13.273 -0.0674  0.4074  0.1831
 7389W        W23863   4.712  10.199   5.138  0.1303  0.0805 -0.0488
 7390W        W23864  13.284   9.759  14.498 -0.2355  0.1250 -0.0947
 7391W        W23865   0.758   3.321   4.717  0.1330 -0.2048  0.0206
 7392W        W23866   1.011  10.903  12.833  0.1110  0.0667 -0.0864
 7393W        W23867   9.690  13.159  10.437  0.0019 -0.2392 -0.2310
 7394W        W23868   4.153  19.335  12.443 -0.0746 -0.2836  0.1804
 7395W        W23869   4.604   3.581   4.874  0.1000  0.3846 -0.0899
 7396W        W23870  16.844   9.441   2.517 -0.0247 -0.0927  0.0639
 7397W        W23871   9.410  11.328  14.074 -0.0206 -0.0126  0.0442
 7398W        W23872   9.866   5.129   0.539  0.2498 -0.2298 -0.0256
 7399W        W23873   1.415   6.254   0.406  0.1706  0.2679  0.1834
 7400W        W23874  10.265   8.727   3.268 -0.0628 -0.2649  0.1274
 7401W        W23875  12.172   4.956   1.640 -0.1640 -0.1711 -0.0962
 7402W        W23876  11.069   4.793  10.939 -0.1050 -0.4989 -0.0726
 7403W        W23877  18.558   1.919   0.980 -0.2944  0.1365 -0.4181
 7404W        W23878  13.024   7.137  14.355 -0.1853  0.0379  0.1632
 7405W        W23879   4.452  13.231   0.903 -0.0146  0.1579  0.0942
 7406W        W23880   7.079   0.854  13.308  0.0464 -0.2520  0.1787
 7407W        W23881   3.698  17.531   2.560 -0.2110  0.0219  0.2952
 7408W        W23882   0.832   3.375  13.272  0.2636 -0.0941 -0.0324
 7409W        W23883   3.216  15.844  10.697  0.0155 -0.0138 -0.0813
 7410W        W23884   3.853  14.428  10.295 -0.0118 -0.0721  0.1748
 7411W        W23885  16.536  19.442  11.473 -0.0188 -0.1171 -0.0909
 7412W        W23886   0.174   6.989  14.637  0.0056 -0.1384  0.0331
 7413W        W23887   2.530  18.572   4.234  0.1339  0.3365  0.1832
 7414W        W23888  18.883   3.557  13.513  0.0225  0.2758  0.2608
 7415W        W23889  16.113  17.278   1.084  0.0027  0.0160 -0.0141
 7416W        W23890  16.142  18.404  13.142 -0.2679 -0.0399 -0.3454
 7417W        W23891   8.368   4.950   0.091  0.1658 -0.0088  0.1818
 7418W        W23892   8.793  15.996  11.535  0.0454 -0.1933 -0.0221
 7419W        W23893   4.676   9.606   4.463  0.2051 -0.2675 -0.2930
 7420W        W23894  11.170   9.889  14.197  0.2270 -0.0468 -0.0945
 7421W        W23895  15.364  13.650   0.559  0.1082  0.1462 -0.1784
 7422W        W23896   0.158  17.049  14.006 -0.0220 -0.0495  0.0371
 7423W        W23897  19.073   1.981  13.146  0.0493 -0.3476 -0.0661
 7424W        W23898  17.236   2.575   0.704 -0.1457 -0.0350  0.1455
 7425W        W23899   7.114   5.999   3.566  0.2372  0.2213  0.0961
 7426W        W23900  19.374  18.698  10.913 -0.3582 -0.2400 -0.0534
 7427W        W23901   4.176   3.644   0.543 -0.2547 -0.0020  0.1865
 7428W        W23902  11.502   8.935   2.967 -0.0461  0.1257  0.2650
 7429W        W23903   1.075   9.325   0.307  0.3143  0.0367 -0.0225
 7430W        W23904  15.575   6.367  11.041 -0.0921 -0.2232 -0.1281
 7431W        W23905  19.336   7.326  11.284 -0.1384 -0.0231 -0.1395
 7432W        W23906   7.085   5.818   1.744  0.1032  0.1513 -0.0830
 7433W        W23907  14.918  15.157   4.711  0.1442  0.3343  0.0291
 7434W        W23908   0.059  10.213  14.052  0.0935  0.1472  0.3189
 7435W        W23909  15.369  11.077   2.621  0.3820  0.0120  0.1149
 7436W        W23910  15.635   5.970   1.279  0.0868  0.1946  0.1951
 7437W        W23911  16.871  18.596  10.576 -0.3595  0.1424  0.0941
 7438W        W23912   0.046  14.181   3.747 -0.2544 -0.1433  0.1006
 7439W        W23913  13.322  12.894  14.144  0.6813 -0.1751  0.1708
 7440W        W23914   3.748  17.096   5.331  0.2007 -0.2305 -0.1822
 7441W        W23915   4.042  19.513   3.972 -0.2929  0.1229 -0.1491
 7442W        W23916  11.949   4.530  10.050  0.0111  0.1387 -0.3771
 7443W        W23917   7.883  15.459   2.154 -0.1809  0.1192 -0.1483
 7444W        W23918  11.126  13.508  12.129 -0.3055 -0.1575  0.1319
 7445W        W23919   7.914   3.904   9.934 -0.3152  0.2265  0.1924
 7446W        W23920  11.039   9.796  13.499 -0.0950  0.2006  0.1856
 7447W        W23921  10.098  17.586   9.567  0.0291 -0.1291 -0.2639
 7448W        W23922   4.117   3.265   2.254  0.2396  0.2707  0.0939
 7449W        W23923   0.904   4.091   0.366 -0.0286  0.0289  0.1982
 7450W        W23924   8.398   5.273  13.275  0.0917  0.0415 -0.0688
 7451W        W23925   1.135  12.823  13.068  0.4267 -0.1687 -0.1338
 7452W        W23926   2.197  17.142   1.559 -0.2398 -0.0672  0.0532
 7453W        W23927  11.153   7.903   5.090  0.0623  0.0345  0.0794
 7454W        W23928   5.959   3.781   9.932 -0.1823  0.2904  0.0708
 7455W        W23929  17.779   9.427   1.758 -0.2646 -0.4984 -0.1152
 7456W        W23930   9.166  16.100  10.899 -0.4118  0.3986 -0.0781
 7457W        W23931  16.632  16.460  10.937 -0.0160  0.1992  0.0916
 7458W        W23932  15.617   7.549  12.515  0.1539 -0.4017 -0.0054
 7459W        W23933  15.508   8.691   5.544 -0.1159 -0.2522 -0.0640
 7460W        W23934   3.884   1.494  11.865  0.1373  0.1331 -0.3161
 7461W        W23935  12.656  16.589   2.816 -0.0198  0.0238  0.0751
 7462W        W23936   4.691   8.078   5.551  0.0988 -0.1539  0.2113
 7463W        W23937  12.442   1.768  13.981  0.1342  0.1879  0.1617
 7464W        W23938   5.250   2.776  11.652 -0.2938  0.2657 -0.1883
 7465W        W23939   4.923  19.174   9.974  0.2270  0.2284  0.0405
 7466W        W23940  17.748  17.302   0.270 -0.3090  0.2266 -0.1301
 7467W        W23941   3.402   9.515   1.903 -0.0345 -0.2912 -0.1060
 7468W        W23942  13.946  13.457   1.786  0.1894 -0.2404 -0.0455
 7469W        W23943   5.451  16.143  13.938  0.2296 -0.0186 -0.2552
 7470W        W23944   1.798   0.145  12.058 -0.0140  0.0836 -0.2194
 7471W        W23945  15.813   9.505   0.178 -0.3101 -0.3386 -0.2359
 7472W        W23946   1.652  18.939  13.633 -0.1071  0.2184 -0.0170
 7473W        W23947  11.683  13.289  10.883  0.0357 -0.0888  0.0671
 7474W        W23948   7.812   5.777  11.826  0.1829  0.0908 -0.1187
 7475W        W23949   1.693   3.361  13.187  0.0360  0.0637 -0.1767
 7476W        W23950   9.789  13.625   4.869  0.2346  0.3486 -0.1519
 7477W        W23951   8.023  18.818   1.299 -0.0926 -0.1257 -0.1114
 7478W        W23952  12.302   0.910  13.082  0.2081  0.1472  0.2007
 7479W        W23953   6.523   9.851  14.285 -0.0061  0.0969  0.1971
 7480W        W23954   9.464   7.839  14.549  0.1574 -0.0922 -0.0367
 7481W        W23955  13.126  11.804   4.189 -0.2353 -0.3396 -0.2636
 7482W        W23956   6.847  10.756  12.670 -0.1821 -0.2268  0.0660
 7483W        W23957   7.056   9.151   3.335  0.2047  0.2869 -0.2230
 7484W        W23958   7.285   9.323  10.905 -0.1323  0.2793  0.0418
 7485W        W23959  17.741   6.001   1.263 -0.1601  0.0122 -0.2438
 7486W        W23960  14.683   7.957  12.706  0.3569  0.0742 -0.1312
 7487W        W23961  14.710  16.622  14.535  0.3946  0.0283 -0.4647
 7488W        W23962   9.288   6.581  12.077 -0.1275  0.0015  0.2954
 7489W        W23963  11.276  18.995  12.889  0.1115 -0.3806  0.0619
 7490W        W23964   8.419  18.253   2.493  0.1783  0.1747 -0.2184
 7491W        W23965   4.596   4.717  11.095  0.3081 -0.0893 -0.5044
 7492W        W23966  11.842   9.394  12.197  0.1028 -0.1243  0.0667
 7493W        W23967   5.930  11.050   4.594  0.0587  0.0033  0.0069
 7494W        W23968  11.567   6.698  14.131 -0.2102  0.2486  0.2538
 7495W        W23969   2.760  11.403   2.477  0.3798  0.0254 -0.1995
 7496W        W23970  12.756  10.042   3.931 -0.0132 -0.2008 -0.1496
 7497W        W23971  18.082   2.396   4.878 -0.2108  0.2335 -0.0747
 7498W        W23972  15.172   4.366   3.277 -0.3506  0.0494 -0.0607
 7499W        W23973  12.388  11.612  12.838  0.2117 -0.1237 -0.3319
 7500W        W23974  14.546   3.006   3.632 -0.5223  0.2469  0.2913
 7501W        W23975  11.656   4.175   1.740 -0.0746  0.0591 -0.2723
 7502W        W23976  10.606  14.010  10.562 -0.0285  0.1236 -0.0384
 7503W        W23977  18.378  16.858   4.318 -0.2731 -0.1393 -0.1563
 7504W        W23978   7.145   3.931  13.583  0.1296 -0.2344  0.0528
 7505W        W23979  17.965   0.340   0.009 -0.0344  0.0776 -0.2083
 7506W        W23980   5.840   1.134   3.182 -0.3284  0.2281 -0.0826
 7507W        W23981  11.053  14.266   1.810  0.1995  0.1033  0.0731
 7508W        W23982  17.722   1.808  10.942  0.2021 -0.1819 -0.2899
 7509W        W23983  12.529   3.011  12.443 -0.1477  0.1360 -0.2344
 7510W        W23984   4.737  19.064   0.977  0.1144 -0.1753 -0.1440
 7511W        W23985  18.688   7.086   1.473 -0.1381 -0.1454  0.1591
 7512W        W23986   1.158   9.022  12.316  0.0102  0.2906 -0.1697
 7513W        W23987  18.997  12.201  13.478  0.1165 -0.0648  0.3583
 7514W        W23988   0.889   5.951  11.824 -0.0900 -0.4266  0.0636
 7515W        W23989  17.634  14.655   1.983  0.0850 -0.0096  0.0450
 7516W        W23990  13.833   9.295  12.801  0.1550 -0.1547  0.0477
 7517W        W23991   9.223   5.301   1.603 -0.2584 -0.3242  0.0291
 7518W        W23992  17.151   2.428   3.439 -0.1952 -0.0463 -0.1869
 7519W        W23993  19.417   2.942  12.940 -0.0921 -0.0158  0.2194
 7520W        W23994   6.723   9.052   3.694 -0.1439  0.1536 -0.0814
 7521W        W23995   4.015   3.814   2.213 -0.0281 -0.1261  0.0882
 7522W        W23996  12.024  16.349   1.351  0.1197  0.1010 -0.0490
 7523W        W23997  19.379  19.526  10.749  0.0472 -0.1329  0.0385
 7524W        W23998   9.144   7.673  10.753 -0.0681 -0.2162  0.2518
 7525W        W23999  15.635  13.345  11.477  0.1310 -0.2399  0.1480
 7526W        W24000  13.060   1.469  13.213 -0.0507 -0.1935  0.2133
 7527W        W24001  18.287   8.530   3.651 -0.0792 -0.2712  0.0599
 7528W        W24002   3.569  15.702   9.790 -0.1825  0.0860  0.1621
 7529W        W24003   7.071  14.098   4.899 -0.0278  0.0284  0.0330
 7530W        W24004   1.601  10.810   3.135  0.1491  0.0720  0.0741
 7531W        W24005   3.696  11.215   1.265 -0.0910 -0.1906 -0.1082
 7532W        W24006   3.225  17.391  13.413 -0.3811 -0.1002  0.2815
 7533W        W24007   5.126   7.425  13.717 -0.0278 -0.0377  0.0382
 7534W        W24008   9.402  18.845  13.652 -0.2043 -0.0636 -0.3036
 7535W        W24009  12.707  17.385  10.822 -0.1262 -0.2099  0.1065
 7536W        W24010   5.255   9.750   9.285 -0.2579 -0.1228  0.1434
 7537W        W24011   1.815   9.786   0.423  0.2188 -0.5953  0.0393
 7538W        W24012   8.897  18.643   3.015 -0.0154  0.0570  0.0212
 7539W        W24013  17.969   3.688   4.382  0.2832  0.2566 -0.0353
 7540W        W24014  13.883  14.601   1.317 -0.0280 -0.0120  0.0342
 7541W        W24015  14.523  15.420   3.451 -0.1387 -0.0666 -0.0980
 7542W        W24016  13.721  18.046   0.218 -0.1160  0.2091 -0.0195
 7543W        W24017   3.503   6.071   4.143 -0.0469  0.0183 -0.3719
 7544W        W24018   3.102  11.564   2.729 -0.0506 -0.1526 -0.2354
 7545W        W24019  15.712   9.658   3.905  0.1541  0.0908 -0.1231
 7546W        W24020  18.464  19.595  11.939  0.1627  0.1680 -0.0677
 7547W        W24021   6.334   2.162   4.253  0.0882  0.1399 -0.2323
 7548W        W24022   4.499   5.476   2.349 -0.2680 -0.1798 -0.1333
 7549W        W24023   8.386   7.697   4.126  0.3448  0.1323 -0.2877
 7550W        W24024   4.215  19.157   1.869 -0.1539 -0.3562  0.6077
 7551W        W24025   5.838   9.572  14.417 -0.0883  0.1240  0.0915
 7552W        W24026   3.607  19.319  12.069 -0.0742 -0.1694  0.2279
 7553W        W24027  15.886   5.298   0.717  0.1585  0.2273 -0.1869
 7554W        W24028   7.126  18.958   3.640 -0.0614  0.0706  0.0854
 7555W        W24029  12.715  14.744   5.620  0.2283 -0.0893 -0.0611
 7556W        W24030   5.264   1.231  11.760  0.0345  0.1428  0.2600
 7557W        W24031  14.466   2.832  12.409  0.1461 -0.2136 -0.1636
 7558W        W24032   3.505   9.245   0.398 -0.1947  0.1916  0.1340
 7559W        W24033   1.630   9.302   5.482  0.0902 -0.1178 -0.1670
 7560W        W24034   7.022  18.493  11.080  0.1123 -0.1575  0.4507
 7561W        W24035  13.606  19.611   0.984  0.3705 -0.1770  0.2112
 7562W        W24036  13.626  18.497   3.235  0.0194  0.3105  0.1433
 7563W        W24037   4.794  11.057   3.842  0.2131 -0.0225  0.2306
 7564W        W24038  12.154   2.163  11.105 -0.1221  0.0524 -0.0336
 7565W        W24039  17.439  17.728  12.134 -0.0167  0.2916 -0.1356
 7566W        W24040  14.891   3.398   4.896  0.0252  0.2141  0.4548
 7567W        W24041  16.503   0.738  13.743 -0.1962 -0.2900  0.0574
 7568W        W24042  12.459   4.343   1.739 -0.1802  0.2329 -0.1366
 7569W        W24043   1.261   5.901  13.061 -0.3883  0.1407 -0.3686
 7570W        W24044  10.433  14.534   4.131 -0.2200 -0.1774 -0.0857
 7571W        W24045  10.387   2.534  10.254  0.0372  0.1588  0.1479
 7572W        W24046  15.656   0.887   0.732 -0.0619 -0.2225 -0.1806
 7573W        W24047  17.925   3.011   3.803 -0.0606  0.1191  0.1293
 7574W        W24048  13.469  17.220   4.649  0.3054  0.1053  0.0964
 7575W        W24049   8.290   8.226  11.054  0.1020 -0.0921  0.0890
 7576W        W24050   4.759   7.793  13.753  0.0162  0.2396 -0.0344
 7577W        W24051   4.392  15.704  14.437 -0.1711  0.2308 -0.0623
 7578W        W24052  18.014  14.794   0.098 -0.1961 -0.1962 -0.1101
 7579W        W24053  10.489   2.534  12.057 -0.3659  0.0707  0.1913
 7580W        W24054   8.185  18.778  11.358 -0.0325  0.2541 -0.0070
 7581W        W24055   0.312   6.651  11.340 -0.1961 -0.2207  0.2590
 7582W        W24056   9.470  12.299   0.260 -0.2991 -0.3894  0.1499
 7583W        W24057   9.629   0.927   0.691  0.1453 -0.0705 -0.3383
 7584W        W24058   4.380  12.749  10.892 -0.0764  0.1731 -0.1247
 7585W        W24059  16.438   6.318   1.853 -0.0672 -0.1374  0.0294
 7586W        W24060  14.757   8.144   0.522  0.0817  0.0173 -0.3432
 7587W        W24061  17.181   3.518   1.182  0.3079  0.2392  0.2102
 7588W        W24062  19.583  12.434  11.688 -0.1070  0.1083 -0.2325
 7589W        W24063   1.573   2.990   1.326  0.0747  0.0126  0.1672
 7590W        W24064  11.428  18.615  14.623  0.0431 -0.1821 -0.1538
 7591W        W24065   7.873   7.048  10.789 -0.0619 -0.1882  0.1142
 7592W        W24066   3.028  16.303   9.786  0.0835 -0.0585 -0.1774
 7593W        W24067   4.810   0.563  13.485 -0.1463 -0.3737 -0.2218
 7594W        W24068  12.975  13.875   1.019  0.0829  0.0304  0.0939
 7595W        W24069  16.049   4.355  11.413 -0.5510  0.2519  0.1911
 7596W        W24070   0.938  18.866  14.614 -0.0072 -0.5780 -0.1287
 7597W        W24071  12.207  16.909   2.439 -0.0170 -0.0471  0.2862
 7598W        W24072  10.439   9.373  13.722 -0.2911  0.1488  0.2028
 7599W        W24073  11.043  16.323  13.500 -0.2296  0.2206 -0.3072
 7600W        W24074   4.328   4.849   3.657  0.0381 -0.2163 -0.1300
 7601W        W24075   5.410   9.627  11.824 -0.2773 -0.0983 -0.2656
 7602W        W24076   0.948  10.456   2.590  0.2333 -0.2149  0.0363
 7603W        W24077   2.298  19.563  13.028  0.0755  0.1472 -0.4157
 7604W        W24078  13.694  13.719   3.981  0.0783 -0.3446 -0.3202
 7605W        W24079  17.631  17.184  13.505  0.1101 -0.1625  0.3432
 7606W        W24080   0.514  15.972  14.611  0.0930  0.3816  0.0271
 7607W        W24081  12.342  10.681  14.475 -0.3610 -0.0015 -0.1351
 7608W        W24082  12.531   6.212  14.524 -0.2801  0.0709 -0.1708
 7609W        W24083  12.278   0.921   1.998  0.0740 -0.0039 -0.2703
 7610W        W24084  14.453  15.260   4.053  0.0761 -0.1899  0.2881
 7611W        W24085  14.651   5.103   3.948  0.2282  0.1849 -0.2611
 7612W        W24086   0.401   5.406   1.797  0.7043  0.0583  0.0562
 7613W        W24087   2.801  15.808   2.410 -0.1935 -0.3024  0.0965
 7614W        W24088   2.767  12.131  13.343 -0.1071 -0.1891 -0.3273
 7615W        W24089   1.248  18.341   3.645  0.1992 -0.1732 -0.0902
 7616W        W24090  12.416  15.271  12.616  0.0068 -0.0938 -0.4037
 7617W        W24091   0.606   1.655  12.288 -0.1311  0.0686  0.3639
 7618W        W24092   8.630  15.918   4.074  0.2028  0.3426 -0.2342
 7619W        W24093  17.640  11.492  10.430  0.1341  0.1795  0.0849
 7620W        W24094  18.354   8.346  14.152 -0.2872 -0.0350  0.0607
 7621W        W24095   0.125   4.704  11.620  0.0266  0.1781  0.1917
 7622W        W24096   1.858  14.002   0.933 -0.0849 -0.0329 -0.2917
 7623W        W24097   8.261   0.494  13.574 -0.0275 -0.3107  0.3920
 7624W        W24098   6.966  18.364   9.725 -0.1434 -0.1834  0.0873
 7625W        W24099  16.738  18.870  10.129  0.0887 -0.0945  0.4110
 7626W        W24100  18.038  16.807  14.427 -0.3104 -0.0640  0.0376
 7627W        W24101   1.186   1.795  11.058  0.0510  0.1029 -0.0657
 7628W        W24102   7.822  15.437  11.731 -0.0631 -0.5035 -0.1028
 7629W        W24103  15.517  10.405  11.430  0.1541  0.0640  0.3944
 7630W        W24104  18.612  17.942  10.400 -0.1161 -0.2357  0.3255
 7631W        W24105  13.655   3.826   3.525 -0.1553 -0.2018 -0.0934
 7632W        W24106   0.526  17.618  12.804  0.1050  0.2383  0.2218
 7633W        W24107   2.425   5.808   2.331  0.2657  0.1852 -0.1786
 7634W        W24108   6.223   7.406   1.734 -0.0384  0.1441  0.1949
 7635W        W24109  10.635   2.862  10.614 -0.2552 -0.2498  0.0932
 7636W        W24110  11.917  11.651   1.372  0.0201 -0.2225  0.1774
 7637W        W24111   2.769  16.045  11.801  0.0440  0.0071 -0.3023
 7638W        W24112  19.569  10.641  10.227 -0.1281  0.0800 -0.0778
 7639W        W24113  10.584   4.777  11.563 -0.1908 -0.0003  0.3587
 7640W        W24114   6.173   7.561  13.577  0.0317 -0.0069  0.1447
 7641W        W24115   0.926   5.708  13.419  0.0764  0.2088  0.2854
 7642W        W24116   8.974   4.498   2.166 -0.2198  0.0886  0.0744
 7643W        W24117  15.950   8.510   5.324  0.0860  0.0448  0.1323
 7644W        W24118  13.573   4.570  12.713  0.1277  0.0951 -0.2968
 7645W        W24119   7.597   0.567   1.583 -0.2237  0.2136  0.1305
 7646W        W24120  15.984  17.761   4.818  0.1348 -0.4924  0.1175
 7647W        W24121   4.002   7.037  10.902 -0.0433  0.0986 -0.1565
 7648W        W24122  12.559   8.780   0.993  0.1348 -0.2837 -0.1316
 7649W        W24123  11.510  18.050  13.720  0.4012  0.0852  0.0347
 7650W        W24124   7.566  14.155   4.782  0.2623  0.1418  0.0930
 7651W        W24125  12.749   9.252  14.097 -0.1508 -0.2426  0.1412
 7652W        W24126   9.320   2.600  13.693  0.1466 -0.1304  0.0887
 7653W        W24127   2.830   6.137   0.100 -0.1884 -0.3326 -0.0675
 7654W        W24128   5.863   8.174  10.134 -0.1388 -0.2367 -0.0586
 7655W        W24129  10.168   7.838  10.375 -0.2170 -0.1632  0.0382
 7656W        W24130  11.579   0.855   0.970  0.0268 -0.2726  0.0919
 7657W        W24131   2.341   3.648  14.518 -0.1895  0.1096 -0.2385
 7658W        W24132   1.221  18.955   1.201  0.0081  0.0320 -0.1113
 7659W        W24133  15.666  18.464   0.568  0.4506 -0.1397  0.0843
 7660W        W24134  13.096  14.666   1.413 -0.0800  0.0731  0.0689
 7661W        W24135  12.793   7.278  13.587 -0.3354 -0.0462  0.0390
 7662W        W24136   3.147  10.093   0.537  0.2127 -0.1749  0.0118
 7663W        W24137  16.774  10.161  12.955  0.2286 -0.0718  0.0103
 7664W        W24138  13.625   1.901  10.294 -0.0171 -0.3892  0.1878
 7665W        W24139   0.108   6.196  11.551  0.0407 -0.3660 -0.2564
 7666W        W24140   7.238  16.735   0.393 -0.4400  0.0700  0.2151
 7667W        W24141   6.451   0.449   3.567  0.2106  0.1684 -0.0665
 7668W        W24142   4.229   4.535   5.270  0.0886  0.1847  0.3161
 7669W        W24143  17.072   6.444  12.174 -0.4145  0.1157 -0.0410
 7670W        W24144   4.050  14.203   3.074  0.0270  0.2553  0.0818
 7671W        W24145   6.490  16.629  10.503 -0.4475 -0.0214 -0.1199
 7672W        W24146   5.466  14.113   4.954 -0.4623 -0.5620  0.1116
 7673W        W24147   7.052  17.965  13.690 -0.3394  0.4095  0.0435
 7674W        W24148   7.636  16.318   3.346 -0.2120  0.1003 -0.0569
 7675W        W24149   8.645  18.979  11.797 -0.0812  0.1609  0.1793
 7676W        W24150  12.510  14.498   3.973  0.2543  0.0457  0.2185
 7677W        W24151  14.260  18.679  11.297  0.0447  0.1247 -0.2128
 7678W        W24152  16.226   1.589   4.119 -0.2316 -0.2658  0.1036
 7679W        W24153   0.922  19.510  11.360 -0.1257  0.0778  0.0161
 7680W        W24154   5.534  13.465  13.759 -0.1543 -0.2207 -0.2285
 7681W        W24155  14.378   3.291  14.024 -0.1584 -0.1192 -0.1527
 7682W        W24156   9.381  13.906   2.505 -0.2723  0.2265 -0.0612
 7683W        W24157   6.116  16.682   0.156 -0.0508 -0.1032 -0.0685
 7684W        W24158  12.067  12.475  11.324 -0.1166 -0.5287  0.2241
 7685W        W24159  11.728   2.629   9.859 -0.1077  0.4561 -0.1050
 7686W        W24160   6.346   6.486   2.810  0.0759  0.0186 -0.1300
 7687W        W24161  14.845  14.135  13.524 -0.0819  0.0941  0.1973
 7688W        W24162  16.573   4.794  11.936 -0.1088  0.0389 -0.0805
 7689W        W24163  17.881   5.891   3.157 -0.0503  0.2613  0.2519
 7690W        W24164  10.366  14.071  13.249  0.0953  0.0382  0.0255
 7691W        W24165  15.605  10.519   3.651  0.3975  0.0407 -0.1293
 7692W        W24166  16.214   7.858   0.067  0.2026 -0.1878  0.1622
 7693W        W24167  11.022  16.623  14.176  0.1742 -0.1242 -0.2103
 7694W        W24168  18.244  12.059   5.021  0.2560  0.4932  0.2640
 7695W        W24169   1.230   7.179  13.132 -0.1827 -0.1099  0.2189
 7696W        W24170   5.461  12.512   0.445  0.2103 -0.0166 -0.2350
 7697W        W24171   7.129   8.406  13.292 -0.1504 -0.1154  0.3264
 7698W        W24172  11.162   0.884  10.689 -0.1021  0.0084  0.0590
 7699W        W24173  15.498  18.860   4.968 -0.1664 -0.2609  0.1703
 7700W        W24174   4.333   6.782  10.011 -0.1309  0.3508 -0.1045
 7701W        W24175  12.898  17.226   5.235 -0.1540 -0.2038  0.0309
 7702W        W24176  15.210  12.618   0.103  0.0795 -0.1417  0.1856
 7703W        W24177   9.628  11.562   2.133 -0.0768  0.4073 -0.0204
 7704W        W24178  14.493  14.166  13.853 -0.1490 -0.2046  0.0227
 7705W        W24179  13.799   7.463   3.917  0.1969 -0.1336  0.0963
 7706W        W24180   4.649   7.764   1.232 -0.0044 -0.3995  0.0815
 7707W        W24181  17.325  15.675   4.458 -0.2482  0.0946 -0.4013
 7708W        W24182   9.739  19.078   9.949 -0.1132  0.3261 -0.0299
 7709W        W24183   3.336   8.257   3.579 -0.0495 -0.0631 -0.5058
 7710W        W24184   1.413  11.310   1.706 -0.3207  0.1674 -0.2679
 7711W        W24185   6.072   0.505   3.943 -0.0974  0.0179 -0.2252
 7712W        W24186   0.593   8.651  10.829 -0.0367 -0.0428  0.0804
 7713W        W24187   8.935   1.210  10.890 -0.0575  0.3808  0.4777
 7714W        W24188  15.846  14.890  10.740 -0.1982 -0.0518 -0.0727
 7715W        W24189  18.756   7.077   2.483  0.0002 -0.0200 -0.0646
 7716W        W24190   6.568  15.789   4.767  0.2019  0.0251  0.1305
 7717W        W24191  11.083  11.259  12.847 -0.1022  0.0256 -0.3030
 7718W        W24192  19.227  17.656   2.383 -0.4937  0.0341 -0.4606
 7719W        W24193   9.099   6.250  13.474 -0.3008  0.1571  0.0654
 7720W        W24194  16.865   0.828  11.185 -0.0843  0.1028  0.2002
 7721W        W24195  13.775  10.197  11.231  0.3845  0.2041 -0.1040
 7722W        W24196   5.004  12.073   3.752  0.0995  0.3228 -0.3042
 7723W        W24197  12.411   6.382  11.593 -0.1411 -0.0543  0.2397
 7724W        W24198  11.657  18.848   2.652 -0.0272  0.1160  0.0039
 7725W        W24199   7.287  15.702   3.379  0.0765 -0.0099  0.4355
 7726W        W24200   8.562   6.599   0.174 -0.1219 -0.2817 -0.5506
 7727W        W24201   4.931   2.561  12.348  0.1338  0.1829  0.0146
 7728W        W24202   1.797  12.211   4.316  0.1181 -0.1683  0.2523
 7729W        W24203  10.179  10.156   4.665  0.0926  0.0891  0.1089
 7730W        W24204  11.580  15.287  11.559  0.1162  0.0852  0.0552
 7731W        W24205  13.417   1.153   1.642 -0.0442 -0.1415 -0.0091
 7732W        W24206  13.381  15.937  12.127  0.2144  0.1265 -0.2016
 7733W        W24207  12.325   4.874   3.730 -0.0008 -0.1069  0.0713
 7734W        W24208  18.138  11.598  10.806 -0.0295 -0.0314  0.1626
 7735W        W24209  13.334  16.864  12.142  0.1889 -0.0313 -0.1435
 7736W        W24210   6.252   8.775   3.502 -0.0551 -0.0771  0.1635
 7737W        W24211  17.112  15.580   0.327  0.2148 -0.2736 -0.4320
 7738W        W24212  12.850   2.763  12.806 -0.1665 -0.2010  0.1108
 7739W        W24213   4.358   1.705   0.778 -0.1282  0.0312  0.3437
 7740W        W24214  18.523  14.253   0.827  0.1529 -0.1066 -0.2596
 7741W        W24215   5.853  14.864  10.552 -0.0008 -0.0640 -0.4335
 7742W        W24216  19.095  14.438  12.501  0.1835 -0.0648 -0.0351
 7743W        W24217   0.196   0.786   0.249 -0.0718  0.1564  0.2064
 7744W        W24218   0.276  11.539  12.225  0.0395  0.0028  0.2169
 7745W        W24219  15.316  18.556  13.096  0.0727  0.1640 -0.0519
 7746W        W24220   7.452   4.463   1.262 -0.1966 -0.1433 -0.0329
 7747W        W24221   5.540   6.184  10.005  0.1085  0.2107  0.0208
 7748W        W24222  18.931  14.708   1.936  0.0058  0.0075 -0.4538
 7749W        W24223  15.939   0.454   3.349 -0.0173 -0.2066  0.0035
 7750W        W24224  18.539  11.710   0.103 -0.0807  0.0252 -0.1442
 7751W        W24225   7.181   7.314  12.946  0.1329  0.0622  0.0949
 7752W        W24226  15.915   2.934  12.252 -0.1344 -0.2337  0.0833
 7753W        W24227  10.891   5.922  11.211  0.0034 -0.2279  0.4096
 7754W        W24228  10.666  18.454   4.342  0.0033  0.1960 -0.2938
 7755W        W24229   2.828   0.266   9.909  0.3766  0.0965  0.0969
 7756W        W24230   8.266   5.635  13.572 -0.0633  0.0912 -0.0591
 7757W        W24231   8.700  10.208  13.719  0.3209 -0.2839 -0.0114
 7758W        W24232   5.544  17.573  12.892 -0.0101 -0.0163  0.2479
 7759W        W24233   0.844   2.928  13.680  0.1230 -0.0230 -0.0145
 7760W        W24234   2.589  13.293   0.877 -0.3287 -0.1816  0.3401
 7761W        W24235  17.249   7.858  12.871  0.1301 -0.1591  0.2396
 7762W        W24236  19.117   1.861  10.645 -0.0812 -0.0498 -0.1142
 7763W        W24237   3.626   5.670  10.565 -0.0681  0.1334  0.0239
 7764W        W24238   6.382   6.314   9.663  0.2848 -0.4110 -0.0904
 7765W        W24239  10.060  17.134  13.831  0.3521 -0.1251 -0.2773
 7766W        W24240   2.834   8.104  14.613 -0.1346 -0.1107  0.0238
 7767W        W24241  11.313   5.273  12.190  0.0134 -0.1063 -0.1069
 7768W        W24242   4.413  10.679   8.959  0.0191  0.1127 -0.0160
 7769W        W24243  15.046  18.962  11.500  0.1826  0.0130  0.0548
 7770W        W24244  15.731  13.102   3.682  0.2051  0.4620  0.2282
 7771W        W24245   5.695  11.642  12.704  0.0241 -0.1233  0.0435
 7772W        W24246  15.839  17.995   2.039  0.0790  0.1742 -0.2130
 7773W        W24247   6.380  14.688   2.230  0.0824  0.5791  0.0423
 7774W        W24248  11.609  15.786  11.250 -0.1116  0.0249 -0.0894
 7775W        W24249   4.652   7.993   2.054  0.0246  0.1544 -0.4440
 7776W        W24250  12.569   1.198   2.329 -0.1308 -0.0741  0.2192
 7777W        W24251   5.869  18.803  10.183 -0.2775 -0.2643 -0.4762
 7778W        W24252   6.945  12.660  10.991  0.2178  0.1585 -0.0328
 7779W        W24253  14.754  19.509  11.007 -0.0873 -0.0414 -0.2955
 7780W        W24254   6.048   1.516  11.634 -0.3503  0.0139 -0.2238
 7781W        W24255  10.146  16.239   4.367 -0.0355 -0.0203  0.1699
 7782W        W24256  16.250  17.379  13.685 -0.1449 -0.0619 -0.3795
 7783W        W24257   5.364   8.748  14.127  0.1959 -0.4537 -0.1342
 7784W        W24258  15.356   1.431   4.456 -0.0218 -0.1458 -0.0278
 7785W        W24259  11.675   6.627   4.462 -0.1825  0.0271 -0.2883
 7786W        W24260   6.995   6.005  12.051  0.1697  0.2192 -0.0053
 7787W        W24261   3.293  18.735   9.582  0.2510 -0.0275  0.1300
 7788W        W24262  19.045   8.485   2.162  0.0198  0.1647 -0.1963
 7789W        W24263  15.234   9.886  11.292  0.2846  0.6437  0.0629
 7790W        W24264   6.147   7.803   0.830  0.0951  0.2966  0.2834
 7791W        W24265   9.055  14.324   2.627  0.3950  0.0362 -0.1204
 7792W        W24266   5.501   0.947  10.836  0.2712 -0.2069 -0.0783
 7793W        W24267  11.165   8.324   0.808  0.3289  0.0916 -0.1321
 7794W        W24268   4.735   5.017   1.218  0.1051 -0.1641  0.3083
 7795W        W24269   0.636   9.449   5.009  0.1023  0.3055  0.1523
 7796W        W24270   6.035  13.334   1.086  0.0769 -0.3202  0.3374
 7797W        W24271  11.446   2.688   4.390  0.4349  0.0292  0.1792
 7798W        W24272   1.028   1.175  11.645  0.2709 -0.0294 -0.2927
 7799W        W24273  13.064  11.667   1.123 -0.1444  0.1794  0.2480
 7800W        W24274   3.880  19.226   1.111  0.1303 -0.2221  0.0318
 7801W        W24275  17.584  11.066   2.412 -0.0370  0.1078  0.1233
 7802W        W24276   6.831  17.491  13.246  0.1444  0.0314 -0.1809
 7803W        W24277   5.296   8.954   2.960  0.2697  0.1528  0.2234
 7804W        W24278  19.348  16.785   1.111 -0.3490 -0.3072  0.0951
 7805W        W24279  17.489   6.492   3.125 -0.1909 -0.4331  0.1799
 7806W        W24280  10.536  11.581   3.390  0.0041  0.0515  0.0008
 7807W        W24281  12.696   0.448  12.913 -0.1874  0.3764 -0.0199
 7808W        W24282   1.194   2.805   4.101  0.0321  0.0271  0.0100
 7809W        W24283  13.775   5.798  10.594 -0.1798  0.1143  0.0734
 7810W        W24284   0.179   5.471   3.500  0.5297  0.0885  0.1951
 7811W        W24285  10.743   7.804  13.190 -0.2496 -0.3538 -0.1460
 7812W        W24286   4.764   1.294  12.651  0.1015 -0.1592 -0.0017
 7813W        W24287   3.313  15.316  13.573  0.0326  0.0198  0.0538
 7814W        W24288   3.887   9.203  10.887  0.1287 -0.3208 -0.0926
 7815W        W24289  14.105  16.260   3.810 -0.0256  0.3428  0.0439
 7816W        W24290  19.545  18.520   0.771 -0.1110 -0.0205  0.1181
 7817W        W24291  13.500   7.357   3.253 -0.0775  0.0684  0.0202
 7818W        W24292   2.279   4.765  14.499  0.2066  0.1572 -0.0738
 7819W        W24293   0.542   9.160  14.213 -0.2307  0.3238  0.3112
 7820W        W24294   4.691   5.879   2.099  0.3619 -0.0573  0.0536
 7821W        W24295   2.642  16.563   1.467  0.0385  0.0683  0.1267
 7822W        W24296   4.376  14.133   1.380  0.1087 -0.2691 -0.1515
 7823W        W24297   9.768  11.943   5.071  0.0489 -0.2186 -0.0033
 7824W        W24298  12.449  11.775   4.927  0.0884  0.0156 -0.0906
 7825W        W24299  19.512  13.737  10.641  0.1310  0.0340 -0.0586
 7826W        W24300  15.626   6.253   2.562  0.0512  0.0960 -0.3251
 7827W        W24301   4.659  14.928   3.101  0.0635  0.2217 -0.1110
 7828W        W24302   1.264   8.391   3.659 -0.1617 -0.1723 -0.1617
 7829W        W24303  11.860  11.230   4.461 -0.0125 -0.1013  0.3771
 7830W        W24304  18.281  17.244   0.457  0.0769  0.1919  0.0228
 7831W        W24305   3.592   5.153   0.388  0.2400 -0.0963  0.0611
 7832W        W24306   3.490  16.043   0.636 -0.2135  0.0071 -0.1123
 7833W        W24307  12.134   9.961   2.680  0.3436 -0.0638  0.0666
 7834W        W24308  14.817   9.402  12.703 -0.0670  0.0789 -0.1949
 7835W        W24309   9.382  11.345  10.921  0.0862  0.2851 -0.1344
 7836W        W24310   2.591  19.600  11.081  0.0675 -0.0043 -0.1423
 7837W        W24311   7.856   8.430  11.005  0.3422  0.4187  0.3565
 7838W        W24312  10.134  10.782   3.963 -0.1096 -0.2751 -0.0671
 7839W        W24313   5.551   8.491  12.735  0.0243  0.0292 -0.2607
 7840W        W24314   0.233   4.701   4.297 -0.2564 -0.2269  0.1797
 7841W        W24315   6.581  11.219   1.968  0.1401  0.0537  0.1699
 7842W        W24316  16.045  10.497   1.444  0.0650  0.0966  0.1392
 7843W        W24317   6.760   5.684   3.305 -0.0774  0.1140  0.0341
 7844W        W24318  18.379   6.272   1.794  0.1313 -0.1255  0.1698
 7845W        W24319  11.079  15.078  11.328 -0.2734 -0.1943  0.0636
 7846W        W24320  19.532  16.273   9.991 -0.0734  0.0199 -0.1709
 7847W        W24321  19.515   4.384   1.894 -0.2279 -0.1955 -0.0009
 7848W        W24322   6.652  10.892   2.375  0.0080  0.3215 -0.0338
 7849W        W24323   2.759  19.607   2.000  0.3489  0.0402  0.0490
 7850W        W24324   8.556   1.723   2.005 -0.3011 -0.0734 -0.0359
 7851W        W24325  12.764  15.334   5.567 -0.0763  0.1617  0.1554
 7852W        W24326   4.113   9.872   4.147 -0.1781 -0.0936 -0.0238
 7853W        W24327  10.777  18.011  12.149 -0.0527 -0.4790  0.0380
 7854W        W24328  14.270  13.168   1.532 -0.0052  0.0670 -0.0215
 7855W        W24329   4.506  16.993   3.872 -0.2773 -0.0855  0.1549
 7856W        W24330  15.320   0.982  13.742 -0.0751 -0.0108 -0.1362
 7857W        W24331   6.650  16.227   2.305  0.3024  0.0631  0.0451
 7858W        W24332   4.876   0.106   5.236 -0.1363  0.2389  0.0762
 7859W        W24333   0.222   4.215  14.223 -0.1187  0.1735 -0.1625
 7860W        W24334  13.594  15.478  11.789  0.2924 -0.0915  0.0184
 7861W        W24335   8.426  18.784   3.866 -0.1269  0.1123  0.2220
 7862W        W24336  17.779  15.381   3.084 -0.0553  0.1855  0.1942
 7863W        W24337   7.315  13.297   3.051  0.0958  0.0296  0.0405
 7864W        W24338   5.668   1.617   3.362 -0.3239  0.1650  0.1469
 7865W        W24339   6.517   6.895  10.921  0.1510  0.1864 -0.3124
 7866W        W24340   4.494   5.187  10.783  0.1957  0.2852  0.0168
 7867W        W24341  19.402   7.287  14.057  0.0620  0.2715  0.0749
 7868W        W24342   3.097   9.878  12.003  0.0570  0.0636  0.2754
 7869W        W24343   4.827  10.984   2.850  0.0465  0.4232 -0.1619
 7870W        W24344   2.219  10.006  13.480 -0.1967  0.0232  0.1515
 7871W        W24345   9.058   0.729   1.514  0.3130 -0.0905  0.0542
 7872W        W24346  18.876   9.015  13.496 -0.1980  0.2120 -0.4883
 7873W        W24347   9.830   5.997   0.606 -0.1166  0.0380  0.0361
 7874W        W24348  17.583  12.496  13.287 -0.2498 -0.1034  0.1003
 7875W        W24349  11.488   9.300   3.376 -0.6200 -0.1500 -0.3538
 7876W        W24350  13.622   9.585   0.906  0.0870  0.0388  0.1206
 7877W        W24351   1.381   7.634   1.721  0.2459 -0.2670  0.2386
 7878W        W24352   4.648  15.878   2.109 -0.3346  0.1094  0.5665
 7879W        W24353  16.479   0.158  11.900 -0.0978 -0.0047 -0.1463
 7880W        W24354   1.022   7.159   0.250 -0.1980  0.3073  0.0884
 7881W        W24355  12.237   1.133  13.780  0.4154  0.1458  0.3276
 7882W        W24356  11.416  10.224   4.788  0.0825  0.0272  0.0211
 7883W        W24357  17.761   3.768   0.292 -0.0652  0.0990 -0.1101
 7884W        W24358   4.930   9.989  13.650  0.0454 -0.2189  0.2491
 7885W        W24359   7.535  12.245   2.519 -0.1719  0.1669  0.1558
 7886W        W24360  19.202  12.278   1.924 -0.2068 -0.1891 -0.0097
 7887W        W24361  14.143  10.321  13.478  0.1260  0.1162  0.0659
 7888W        W24362  17.604  14.791   2.540  0.0284 -0.1784 -0.0730
 7889W        W24363   5.698  14.737  13.733 -0.2215 -0.0072  0.1148
 7890W        W24364   4.553   0.052   1.905  0.0582  0.0025  0.1077
 7891W        W24365   7.265   9.885  10.026  0.0340 -0.4119 -0.3843
 7892W        W24366   2.926  12.651  13.339 -0.1092 -0.3455 -0.1122
 7893W        W24367   4.468  12.633   0.608  0.3796 -0.2442 -0.1817
 7894W        W24368   3.761   3.683   0.256  0.0381 -0.3961 -0.1076
 7895W        W24369   3.578   0.034   8.690 -0.6114 -0.0874  0.0813
 7896W        W24370  13.652  14.445  12.721 -0.0188  0.0704 -0.1587
 7897W        W24371  16.050  17.746  12.440 -0.3718  0.1197  0.3824
 7898W        W24372   7.106  11.637  13.610  0.2713 -0.1630  0.0828
 7899W        W24373  17.546  15.565  12.561  0.1521  0.1629  0.0109
 7900W        W24374   3.057   9.737  10.660 -0.2057  0.1117  0.1099
 7901W        W24375   9.098   9.569  14.163 -0.0543 -0.4319  0.3056
 7902W        W24376  15.590  11.878   5.937  0.2437 -0.0231  0.0095
 7903W        W24377   8.739  19.029   0.188 -0.0288 -0.1735  0.0261
 7904W        W24378   9.934   9.672   0.792  0.1435  0.1059  0.0263
 7905W        W24379  18.245  10.062  10.567  0.1377 -0.3022  0.2720
 7906W        W24380   7.726  11.795   4.381 -0.2932  0.1379  0.0935
 7907W        W24381  13.516  14.435   1.641 -0.0013  0.2570 -0.2031
 7908W        W24382   1.973  11.909  10.188 -0.0019  0.1394  0.1601
 7909W        W24383  17.801  11.960  10.706  0.3674  0.2343 -0.2998
 7910W        W24384  13.739   6.281  13.092 -0.0732  0.0187 -0.2058
 7911W        W24385   6.471   9.215   1.279  0.2357 -0.0326  0.0943
 7912W        W24386  14.427   8.660   0.113 -0.0572  0.2429  0.0588
 7913W        W24387   0.286   6.502   2.525 -0.0881  0.2515 -0.1946
 7914W        W24388  17.558   5.121   3.267 -0.0208  0.2969  0.0181
 7915W        W24389   0.916   1.550   2.550 -0.2768  0.2315 -0.0502
 7916W        W24390  18.099   9.654   0.013 -0.1169  0.0516 -0.0002
 7917W        W24391   0.505   5.183  13.445  0.1893  0.3075  0.3582
 7918W        W24392   4.139   9.250  14.041 -0.3140 -0.2089  0.1972
 7919W        W24393   9.569  19.354  12.742 -0.0413  0.0591 -0.2276
 7920W        W24394   9.070  10.798  11.344  0.1251 -0.1805 -0.4461
 7921W        W24395  13.981   8.243  13.095  0.1427 -0.3026  0.1248
 7922W        W24396   2.741  10.097  11.275 -0.0294  0.2665  0.0961
 7923W        W24397  14.498  17.139   3.699  0.2839 -0.0132 -0.0119
 7924W        W24398   1.004   6.910   9.458  0.0897  0.1075  0.0320
 7925W        W24399  11.886  19.020   3.999  0.1753  0.5084  0.5017
 7926W        W24400   8.632  19.587   0.213 -0.0766 -0.0783 -0.1221
 7927W        W24401   1.182   0.712  11.631 -0.2236  0.1333 -0.2456
 7928W        W24402  12.635  15.225   3.452  0.2415  0.2692 -0.0242
 7929W        W24403   7.772   0.292   0.949 -0.2309 -0.2023 -0.1038
 7930W        W24404  11.706  12.694  14.109  0.3629 -0.3340  0.2198
 7931W        W24405   5.140   7.935   0.329 -0.0928 -0.3047  0.1685
 7932W        W24406   2.198  18.490   1.806  0.3172 -0.0071 -0.2502
 7933W        W24407   9.713  15.443  10.634 -0.0655 -0.1372 -0.1848
 7934W        W24408   0.628  18.585  13.791 -0.0061  0.0999  0.1443
 7935W        W24409   0.853   0.974   9.903 -0.2372  0.1097 -0.1727
 7936W        W24410  13.251   8.908  14.139  0.0758 -0.1174  0.1724
 7937W        W24411   8.613  17.313   2.871 -0.0901  0.0052  0.0465
 7938W        W24412   0.994  18.314   1.958  0.2417 -0.1040  0.0423
 7939W        W24413  14.797   2.257   1.726  0.1028 -0.0938  0.0561
 7940W        W24414  19.261   1.587  12.984  0.0925  0.0965  0.1643
 7941W        W24415  14.266   8.564   1.773 -0.1667  0.1521 -0.0867
 7942W        W24416  14.024  16.966   2.457 -0.3044  0.0964  0.1293
 7943W        W24417   6.614  10.976  13.094  0.1948 -0.0376 -0.1940
 7944W        W24418   2.078   9.023   4.681  0.0871  0.1192 -0.0204
 7945W        W24419  15.216   8.524   1.726 -0.1439  0.0579  0.3402
 7946W        W24420  11.603  17.707   3.877 -0.0077 -0.2705 -0.1170
 7947W        W24421  17.266  18.901  10.662 -0.3822  0.0576  0.1746
 7948W        W24422  15.895  13.290   5.174  0.1147 -0.2577 -0.1619
 7949W        W24423  13.887   8.930   1.762  0.0007 -0.2411 -0.0488
 7950W        W24424  10.591   7.492  14.195  0.1152  0.2101 -0.1191
 7951W        W24425  10.757  13.085  14.001  0.4132 -0.1068  0.0130
 7952W        W24426  10.658   7.752  12.480  0.3075 -0.0359 -0.0711
 7953W        W24427  16.941  12.119   0.219 -0.2438  0.0603  0.3143
 7954W        W24428  13.961   0.449   4.728 -0.1572 -0.0248 -0.0841
 7955W        W24429   4.276   4.284  14.507  0.2435 -0.0591  0.1093
 7956W        W24430  12.836  18.180   5.387  0.0946 -0.2244  0.0278
 7957W        W24431  17.505   2.725   3.226  0.2431  0.0388  0.0125
 7958W        W24432  11.645   1.928  10.832 -0.0665 -0.3718  0.0184
 7959W        W24433   6.559   3.960  11.561  0.0099  0.0116  0.2889
 7960W        W24434  17.049  10.285   2.701  0.1069 -0.1112 -0.0738
 7961W        W24435   9.470   9.721  12.245  0.0095  0.1465 -0.0209
 7962W        W24436  13.202   6.779  13.765  0.5097 -0.0769  0.0641
 7963W        W24437  14.714   0.572  12.244 -0.0970 -0.0274  0.0811
 7964W        W24438   2.239   8.782  13.662 -0.0785 -0.0492  0.1604
 7965W        W24439  15.044  18.419   2.389  0.0657 -0.1332 -0.1795
 7966W        W24440   9.294  17.355   3.482  0.1059 -0.2332  0.3000
 7967W        W24441   5.785  18.093  12.856 -0.0883  0.1084 -0.2344
 7968W        W24442  19.074  12.818  11.078  0.1154 -0.1838  0.2237
 7969W        W24443  11.634   3.248  13.682 -0.1985  0.2411 -0.0626
 7970W        W24444  15.900  15.842   1.689  0.0513 -0.1385 -0.0358
 7971W        W24445  15.559   2.993   0.563  0.1331  0.2566 -0.0909
 7972W        W24446   5.610   5.891   1.979 -0.3875  0.1861  0.0658
 7973W        W24447  17.692   5.579   9.816 -0.3038 -0.0897  0.0746
 7974W        W24448  11.035   9.143   2.811 -0.1053  0.2165 -0.5153
 7975W        W24449   1.062   9.818   4.933  0.0750  0.0552 -0.2724
 7976W        W24450   5.413  17.635   4.404  0.1235  0.1084  0.1727
 7977W        W24451   2.315  14.953  12.623  0.2847 -0.0213  0.1618
 7978W        W24452   6.371  16.990   4.239 -0.1669  0.0219  0.2275
 7979W        W24453  16.495  18.375  10.214  0.0355 -0.0141  0.3113
 7980W        W24454   6.063   8.749  10.677 -0.0996 -0.0704  0.0534
 7981W        W24455   0.595   3.304  12.126  0.0887 -0.2173  0.0614
 7982W        W24456  13.388   6.910   3.137  0.0359 -0.1283  0.1009
 7983W        W24457  11.437   6.496  11.621 -0.1741  0.1756 -0.2957
 7984W        W24458   2.441   6.178   0.747 -0.0615  0.2120  0.1215
 7985W        W24459  10.612   0.373  12.439 -0.3150  0.1132  0.2612
 7986W        W24460   9.398  18.128   2.242 -0.0269 -0.1439  0.1787
 7987W        W24461   8.909  12.525  10.717  0.2673 -0.0578 -0.3217
 7988W        W24462   1.948   8.535   2.538  0.2037  0.0611  0.1182
 7989W        W24463  14.311   4.474   4.734  0.1626  0.0975  0.2622
 7990W        W24464   7.547   6.550   1.808  0.2895  0.2274 -0.0804
 7991W        W24465  14.368  16.781   1.590  0.3605 -0.2095  0.3694
 7992W        W24466   2.262  12.442  13.327 -0.1487 -0.0472 -0.4104
 7993W        W24467  10.134   8.349   3.940  0.0733  0.0234 -0.1202
 7994W        W24468   5.637   5.214   0.689  0.0331 -0.0058 -0.0984
 7995W        W24469  16.445  12.414   2.358 -0.0167 -0.0497  0.1401
 7996W        W24470  11.662   9.905   1.355  0.0428 -0.0302  0.3785
 7997W        W24471  15.001  13.952  14.658  0.0912  0.2405  0.2139
 7998W        W24472  16.374   0.583  10.363  0.0704  0.1109  0.2164
 7999W        W24473   7.542   6.449  12.595  0.2732  0.1140  0.3445
 8000W        W24474   5.413  14.321   4.238 -0.0180  0.0875  0.2385
 8001W        W24475  10.552  18.711   3.056 -0.1073  0.1308  0.0561
 8002W        W24476  12.799  13.455  12.958 -0.0626  0.1334 -0.0013
 8003W        W24477  11.899  11.663   4.131 -0.0598  0.1615  0.0842
 8004W        W24478  18.668  11.363  11.550 -0.3088 -0.1369  0.1440
 8005W        W24479  13.657   5.303   0.389  0.0603  0.2688  0.1298
 8006W        W24480  19.352   7.247   0.707  0.1061  0.0257  0.4183
 8007W        W24481   7.362   9.171   1.630 -0.4583 -0.1003 -0.2069
 8008W        W24482   7.962   6.577   9.110  0.5678 -0.0452  0.1779
 8009W        W24483  14.554   2.483   2.424 -0.0905  0.2626 -0.3300
 8010W        W24484  11.576  13.369   1.414 -0.1855 -0.0595 -0.1477
 8011W        W24485   5.293   7.780   2.144 -0.1249  0.0506  0.3644
 8012W        W24486   9.230   2.824   1.907  0.0323 -0.4166  0.2550
 8013W        W24487   7.882   6.452  13.071  0.5748  0.1485 -0.0082
 8014W        W24488  19.388  18.916   3.545 -0.0441 -0.0152  0.0799
 8015W        W24489  13.083  17.509   4.792  0.0356  0.0009  0.0762
 8016W        W24490   9.901  16.920  12.039 -0.1392  0.2799  0.3828
 8017W        W24491  15.068   4.165  11.585 -0.0788  0.0488  0.0481
 8018W        W24492  17.442  14.394  14.006  0.3785  0.2064 -0.3211
 8019W        W24493  19.123   9.318   3.986  0.0432  0.3030 -0.0906
 8020W        W24494   5.002   3.601   2.048 -0.1944 -0.0950  0.1924
 8021W        W24495   3.987  13.934   1.655  0.3544  0.2976 -0.0446
 8022W        W24496  17.747  10.605  11.205  0.1108  0.0668 -0.1961
 8023W        W24497  18.628   9.466   2.262  0.0435  0.0239  0.0986
 8024W        W24498   1.545   2.909  11.451 -0.0861  0.0832 -0.0213
 8025W        W24499   0.097   9.219   2.399 -0.0060 -0.2288  0.0444
 8026W        W24500  15.811   5.977  10.066  0.0533 -0.2714  0.0571
 8027W        W24501  17.972   0.551   2.852 -0.0412 -0.1008  0.1248
 8028W        W24502  16.053  11.017   1.672 -0.0660 -0.0151  0.2584
 8029W        W24503   2.289   7.712  10.666 -0.5235  0.2113 -0.1526
 8030W        W24504  17.936   0.769   4.295 -0.2680  0.0201 -0.2534
 8031W        W24505   6.572  15.246  13.907 -0.2177  0.1330 -0.1935
 8032W        W24506  17.567   1.931   2.805  0.0134  0.0929  0.2397
 8033W        W24507   0.124  18.209  12.707 -0.0454 -0.0056 -0.2999
 8034W        W24508  10.506   1.600   0.551  0.0646  0.2089  0.1582
 8035W        W24509   5.909  10.035   2.244 -0.1030 -0.0715 -0.4785
 8036W        W24510   2.434   3.553   1.569 -0.1349  0.0779 -0.0240
 8037W        W24511   8.840   2.965  10.975  0.0064  0.3210 -0.2767
 8038W        W24512  13.386   8.719  10.183  0.0647  0.1639 -0.1229
 8039W        W24513  10.981  11.486  13.255  0.0187 -0.1545 -0.1125
 8040W        W24514   8.164  12.629   5.324  0.1959  0.3113  0.0081
 8041W        W24515  16.678  14.438   2.251 -0.2319 -0.0547  0.0177
 8042W        W24516   0.240   6.029  10.449  0.4206  0.1495 -0.1916
 8043W        W24517   9.373   6.127   2.377  0.0984 -0.2853 -0.0391
 8044W        W24518  15.117   7.526  13.499 -0.0746 -0.0933 -0.1680
 8045W        W24519  11.753  11.878   3.589 -0.0047 -0.0998  0.0631
 8046W        W24520  14.202   7.533   1.470  0.1468  0.0555  0.1189
 8047W        W24521  14.520  17.720   2.559 -0.0653 -0.2683 -0.0159
 8048W        W24522  17.208   4.391   3.889  0.0751  0.3765 -0.1805
 8049W        W24523   3.328   8.126  13.206 -0.4505 -0.0339 -0.1242
 8050W        W24524   2.551   7.607   9.235  0.2404 -0.1019  0.1096
 8051W        W24525   0.222   2.036  13.718 -0.2262 -0.1408  0.4175
 8052W        W24526  13.369  11.335  12.648 -0.3442 -0.0882 -0.0989
 8053W        W24527  14.292   5.086  13.050  0.2653  0.0742 -0.0197
 8054W        W24528   1.662   1.974  11.354 -0.0858 -0.1035  0.0887
 8055W        W24529   5.179  17.709   9.718  0.0426  0.2155 -0.3198
 8056W        W24530  15.674  11.283  12.685  0.1679  0.0949  0.1346
 8057W        W24531  15.652   7.802  13.946 -0.0426 -0.0414 -0.0925
 8058W        W24532  16.172  14.353   2.404  0.1106 -0.1143 -0.0325
 8059W        W24533  13.767  18.742   4.741 -0.4020 -0.0906 -0.2062
 8060W        W24534   5.789   7.371   3.018  0.0870  0.1629 -0.1037
 8061W        W24535  10.667  10.737   2.021 -0.1100  0.0324  0.1435
 8062W        W24536   6.040  16.231   3.395  0.4451 -0.1174 -0.3289
 8063W        W24537  12.425   4.825   3.058  0.0550  0.0939 -0.2379
 8064W        W24538  12.638  14.399   3.454 -0.0491  0.2805  0.1672
 8065W        W24539  14.574   4.351  10.826 -0.2446 -0.1966 -0.4796
 8066W        W24540   6.378  14.814   4.794  0.0640 -0.1116 -0.3481
 8067W        W24541  16.726   0.930   2.193 -0.1171  0.0571  0.1810
 8068W        W24542  10.831  15.490  13.586 -0.1010 -0.3139 -0.1920
 8069W        W24543   7.856   6.712   5.548  0.0454 -0.0751 -0.0496
 8070W        W24544   5.875   2.988   4.378 -0.0422 -0.4118 -0.1303
 8071W        W24545  17.704  15.490  11.560  0.3177  0.1693 -0.2417
 8072W        W24546  16.661   6.818   4.071 -0.0695  0.0829 -0.1174
 8073W        W24547  14.893   2.985   5.249  0.0952 -0.0725 -0.3415
 8074W        W24548   7.552  13.040   3.477 -0.1352 -0.2387 -0.0428
 8075W        W24549  14.426   3.335   4.786  0.2248 -0.2087 -0.0161
 8076W        W24550  12.251  13.026   2.655 -0.1752 -0.0802  0.0789
 8077W        W24551   9.920   5.962  11.962 -0.1312 -0.4790 -0.0151
 8078W        W24552  13.177  15.545  12.940 -0.1481  0.2519  0.0975
 8079W        W24553   9.893   6.688  12.730  0.1228  0.1489  0.3748
 8080W        W24554  12.572  15.208   4.593  0.1269  0.3410  0.0229
 8081W        W24555   3.780   0.229   4.375  0.1182 -0.1316 -0.0826
 8082W        W24556   2.144   5.784  14.039  0.1962 -0.1579 -0.1096
 8083W        W24557   8.336   8.902   1.368  0.0435  0.0132  0.2387
 8084W        W24558   3.915   0.802   9.832  0.1058 -0.0943 -0.2655
 8085W        W24559  15.907   8.461  14.498 -0.0337 -0.1442 -0.2577
 8086W        W24560   4.905  16.577  14.134 -0.0205  0.0368  0.1495
 8087W        W24561   7.188  11.862   2.457 -0.0330 -0.3081 -0.0426
 8088W        W24562  16.071   0.965   5.060 -0.1233  0.2997  0.2740
 8089W        W24563   4.910   5.549   1.803  0.1464  0.2876  0.0029
 8090W        W24564   0.136   2.802   4.265  0.1827  0.2243  0.2910
 8091W        W24565  10.144  19.618   2.419  0.1617 -0.0611  0.1972
 8092W        W24566   2.523  14.704   0.619 -0.0244  0.0053  0.0416
 8093W        W24567   8.639  18.155  12.582  0.0865  0.1511  0.0025
 8094W        W24568   6.573  15.029  11.392  0.1409  0.1234 -0.0752
 8095W        W24569  16.629   1.159   4.992  0.0549 -0.0479  0.2914
 8096W        W24570  15.126   9.239   2.929 -0.2710  0.0651 -0.3432
 8097W        W24571   4.338  13.627   1.325 -0.0095 -0.1774 -0.0782
 8098W        W24572   1.014  14.210   2.542 -0.3694 -0.0670 -0.3156
 8099W        W24573  12.153   1.565  12.002  0.1328 -0.2478 -0.2376
 8100W        W24574  19.149   9.794   2.522 -0.0033 -0.4357 -0.3503
 8101W        W24575   7.580  10.952  14.543  0.0507 -0.2631 -0.2550
 8102W        W24576   6.885   1.205  14.492 -0.4470 -0.0583  0.0512
 8103W        W24577  15.798   1.954  14.212 -0.1113 -0.1596 -0.1050
 8104W        W24578   6.790   9.957   0.599  0.4173 -0.1259 -0.1132
 8105W        W24579  16.768   3.714   0.954 -0.1413 -0.0168  0.1586
 8106W        W24580   0.832  19.586   2.605  0.2287  0.2859  0.0009
 8107W        W24581  10.883  12.103   2.024 -0.3424  0.1708 -0.0991
 8108W        W24582  10.000   3.030  11.753  0.2474  0.1037 -0.0013
 8109W        W24583  10.325   9.494  10.827  0.1147 -0.0476  0.5077
 8110W        W24584   7.944   3.977   2.558  0.1568 -0.0163 -0.2860
 8111W        W24585   6.084   7.341   1.026 -0.1135 -0.0143  0.0642
 8112W        W24586  14.368  13.665   2.806 -0.1797  0.1162 -0.1523
 8113W        W24587  17.851  13.300  14.263  0.1075  0.2769 -0.0246
 8114W        W24588  11.043   3.582  12.414  0.1023 -0.4049 -0.1627
 8115W        W24589   7.008  16.043   1.830  0.1962  0.2122  0.3323
 8116W        W24590  18.722  18.962  11.398 -0.0360  0.0007 -0.1434
 8117W        W24591   9.526  16.427   2.481  0.0738 -0.2850  0.2016
 8118W        W24592  17.664  18.705   0.617 -0.0439 -0.0171  0.1202
 8119W        W24593   3.711   4.659   1.771  0.0052  0.0146 -0.2190
 8120W        W24594   3.851   5.469  12.812  0.1935  0.0475  0.1046
 8121W        W24595  14.644  17.667   0.590  0.0046 -0.2319  0.3090
 8122W        W24596   3.642  12.602   3.106 -0.0426 -0.1807  0.0502
 8123W        W24597   6.017   8.165   4.993  0.0837  0.0551  0.3155
 8124W        W24598   6.876   9.166   0.251 -0.0347 -0.0408 -0.0501
 8125W        W24599  14.555  12.780   1.342  0.1918  0.0278  0.0435
 8126W        W24600   2.015  15.873  13.111  0.0660 -0.0186 -0.0517
 8127W        W24601   8.254   4.791  13.478  0.5405 -0.1110  0.1290
 8128W        W24602   5.875  10.019   1.735  0.1409 -0.1455 -0.1549
 8129W        W24603  18.062   9.106  13.961  0.3126  0.2678  0.0730
 8130W        W24604   5.304   3.103  12.179  0.4062  0.0414  0.3218
 8131W        W24605  14.755   9.955   4.622 -0.1362 -0.3468 -0.0572
 8132W        W24606   4.809   5.695  13.074 -0.0528  0.2656  0.0343
 8133W        W24607   7.061   1.388  13.576 -0.1747 -0.0809  0.3775
 8134W        W24608   3.030   2.164   2.558  0.2174  0.1952  0.1915
 8135W        W24609  13.317  11.352   4.058  0.0797  0.1973  0.0914
 8136W        W24610  17.787   7.853   3.949 -0.1822 -0.2253  0.1573
 8137W        W24611   4.054   7.877  10.419  0.0180 -0.1270  0.1671
 8138W        W24612   0.097  10.186  11.467 -0.2511 -0.0930 -0.2004
 8139W        W24613   3.844   7.583  12.799 -0.1798 -0.1540  0.0998
 8140W        W24614  15.614  12.565   0.460 -0.1013  0.1630  0.3423
 8141W        W24615  13.274  13.241  11.842  0.1955 -0.0613 -0.1289
 8142W        W24616  10.523   0.546   1.717 -0.0215  0.0628 -0.0365
 8143W        W24617  17.305  10.636  13.817  0.0423  0.0339  0.0769
 8144W        W24618  17.611   6.331   3.848 -0.0166 -0.0302 -0.0764
 8145W        W24619   5.154   6.907  11.799  0.0111  0.0872  0.3056
 8146W        W24620   7.216   6.909   4.700  0.0002  0.3474 -0.2889
 8147W        W24621   3.295   1.404   2.769 -0.0132  0.0096  0.0612
 8148W        W24622   4.154  10.592  11.147  0.0037  0.0119  0.2759
 8149W        W24623   8.078   9.059   3.724 -0.0714  0.1335  0.2328
 8150W        W24624  12.479   7.888  12.626 -0.0014 -0.2421  0.0830
 8151W        W24625   0.519  14.568   2.534  0.1034 -0.0197  0.0823
 8152W        W24626  10.272  16.471   0.014 -0.4383  0.0122 -0.0278
 8153W        W24627   7.905  19.101   0.255  0.0500 -0.3861 -0.0159
 8154W        W24628   9.832  18.713  11.105  0.0285  0.0452 -0.1594
 8155W        W24629  16.893   9.038  14.567  0.2011  0.2481  0.0011
 8156W        W24630   8.282   1.920   1.096 -0.2725 -0.2604  0.2277
 8157W        W24631  13.851  10.349  13.887  0.0688  0.1125  0.3484
 8158W        W24632  17.487   5.397  13.887  0.0227  0.3352  0.0841
 8159W        W24633  15.747  16.636  12.685  0.1770 -0.0734 -0.1231
 8160W        W24634  11.332  15.824  11.747 -0.0682  0.0267 -0.0250
 8161W        W24635  12.143   4.112   2.140 -0.2726  0.1143  0.0405
 8162W        W24636   7.135  18.320   4.317 -0.0406 -0.0760  0.1292
 8163W        W24637  17.434  16.594  11.570  0.2635  0.3711 -0.0640
 8164W        W24638  18.732   8.361   3.521 -0.0885  0.1143 -0.1675
 8165W        W24639  10.374  11.170   2.017  0.0595 -0.3850  0.1741
 8166W        W24640   1.023   4.048  14.491  0.3177 -0.0634 -0.1333
 8167W        W24641   0.624   3.868  12.679  0.1096  0.3811  0.2009
 8168W        W24642   4.283   8.360  13.103  0.0235 -0.0586  0.1131
 8169W        W24643   4.788   2.756  11.863  0.2017  0.0841 -0.0744
 8170W        W24644  15.601   6.166  14.556  0.1009  0.2548 -0.1526
 8171W        W24645   7.431  14.052  11.257 -0.2075  0.3267 -0.0837
 8172W        W24646  17.272  17.378   4.915 -0.0042 -0.0275  0.2067
 8173W        W24647   0.292   2.360   0.222 -0.2798  0.0619  0.1175
 8174W        W24648   3.887   5.148  11.419  0.3290 -0.2775  0.2448
 8175W        W24649  14.266   4.669  13.771  0.0687  0.0502 -0.0618
 8176W        W24650  17.166  17.564  10.366 -0.1385  0.0370  0.0639
 8177W        W24651  13.817   2.340  11.278 -0.0582  0.2753 -0.0062
 8178W        W24652  10.824   0.147   3.004 -0.2034 -0.2882  0.1191
 8179W        W24653   0.707   4.614   1.197 -0.1247  0.1029  0.3285
 8180W        W24654  15.604   1.970  13.135 -0.2290  0.1849 -0.0703
 8181W        W24655  13.905   0.202  12.599 -0.1092  0.0357 -0.0881
 8182W        W24656   8.443  12.129  13.782 -0.0232  0.2162  0.0669
 8183W        W24657  16.431  10.617   5.569 -0.3595  0.1711 -0.0150
 8184W        W24658   4.150  19.223  14.267  0.1605  0.2777 -0.2689
 8185W        W24659   7.004  18.194   0.638  0.0780 -0.2489  0.2814
 8186W        W24660  16.976   3.428   0.563 -0.0221  0.0416 -0.0901
 8187W        W24661   1.300   7.840  13.766 -0.0490 -0.1768  0.1348
 8188W        W24662  17.697  11.675  13.090  0.0867 -0.0655 -0.2196
 8189W        W24663   1.335  10.468  13.380 -0.0139 -0.2589 -0.0950
 8190W        W24664   5.582   2.868  13.111  0.0145  0.2201 -0.0647
 8191W        W24665   1.369  10.188  11.223 -0.0627  0.1452  0.0578
 8192W        W24666  14.107   5.626   0.760  0.2785  0.0683 -0.1139
 8193W        W24667  10.284   9.027   4.659  0.2001 -0.0271  0.0034
 8194W        W24668   7.827   6.845   2.090 -0.0928  0.0500 -0.3674
 8195W        W24669  10.281  18.957  12.141  0.1988  0.1733  0.1132
 8196W        W24670   9.790  14.071  13.279  0.2088 -0.0970  0.1052
 8197W        W24671   6.655  17.582  11.585  0.2909  0.1204  0.1529
 8198W        W24672  17.483   5.297   0.955 -0.2350  0.3916 -0.0472
 8199W        W24673   7.791  17.411  14.205 -0.1798  0.2098  0.2200
 8200W        W24674  16.661   5.860   2.700  0.3318  0.3487  0.1461
 8201W        W24675  12.108  16.150  13.067 -0.2170  0.1331 -0.2488
 8202W        W24676   3.178  10.227  10.693  0.0356  0.1995 -0.3173
 8203W        W24677  14.584   4.401  14.219 -0.1304  0.2739 -0.0216
 8204W        W24678   7.595  17.314  12.000 -0.0378 -0.0410  0.4074
 8205W        W24679  12.483   0.299  10.472 -0.1417 -0.0220  0.1431
 8206W        W24680   8.143  18.279  14.416 -0.2086  0.0305 -0.0311
 8207W        W24681   1.234  13.856   2.995  0.0302 -0.0635  0.1963
 8208W        W24682  13.420  10.895   1.441  0.1924 -0.0835 -0.2082
 8209W        W24683   7.544  11.433  14.227  0.1068 -0.2031  0.3080
 8210W        W24684   3.981  18.872   1.422 -0.0934  0.0710  0.1762
 8211W        W24685   6.905   5.295  10.165  0.3707 -0.3373 -0.0822
 8212W        W24686  17.048   9.248   5.482 -0.0607 -0.2184  0.0902
 8213W        W24687  10.850  10.701  10.856 -0.2220 -0.0228  0.0921
 8214W        W24688  14.614   1.242  11.422 -0.0495  0.0634  0.0338
 8215W        W24689   7.532  15.814  13.062  0.1972  0.3445 -0.1088
 8216W        W24690  17.067   8.950  13.646 -0.3034  0.2519  0.3646
 8217W        W24691  15.610  16.386  10.662  0.2413  0.1546  0.0398
 8218W        W24692   6.513  12.259   4.848  0.0316 -0.3697 -0.0576
 8219W        W24693  10.793   0.124   3.921  0.0058 -0.0774  0.0655
 8220W        W24694   0.203  15.258   9.629 -0.3282  0.0539  0.2319
 8221W        W24695   0.237  16.965  11.583 -0.3331 -0.2812  0.3573
 8222W        W24696   3.550  18.440   4.689  0.2893  0.0652 -0.2559
 8223W        W24697   7.603  15.829   2.538  0.2456 -0.3077 -0.1016
 8224W        W24698   7.120  14.409  14.058 -0.2028 -0.2362 -0.1583
 8225W        W24699   7.021  12.180  14.306 -0.1784 -0.0993 -0.1478
 8226W        W24700  15.751  11.586   3.875 -0.2902  0.0153  0.1570
 8227W        W24701  15.162  10.933   3.939  0.0161 -0.2623 -0.0567
 8228W        W24702   6.206   4.355  13.123 -0.1655 -0.0203  0.0206
 8229W        W24703   6.274  10.671   3.751 -0.0052  0.1340 -0.1074
 8230W        W24704  17.973  17.747   0.494  0.2338  0.3424  0.0552
 8231W        W24705   4.647   4.734   5.028 -0.1911  0.0081 -0.1507
 8232W        W24706   4.092  17.175   3.555  0.3280  0.0774 -0.1494
 8233W        W24707   7.325   7.550  11.042  0.1804 -0.0548  0.1428
 8234W        W24708   8.035   2.646   0.476  0.0144  0.1451 -0.3915
 8235W        W24709   9.923  14.635   4.217 -0.0231  0.2246 -0.1009
 8236W        W24710   1.095  12.810  11.671 -0.0908  0.3974 -0.2061
 8237W        W24711   7.115   4.376  10.339  0.1117  0.0301  0.1901
 8238W        W24712   3.118  10.850  13.567 -0.3666  0.0885  0.0771
 8239W        W24713   0.111  16.645   2.833 -0.0004 -0.0186  0.0019
 8240W        W24714   0.965   8.581   2.372 -0.1763 -0.0216 -0.1808
 8241W        W24715   0.998  11.249   5.034  0.1073  0.0439  0.1839
 8242W        W24716   9.575  16.863  10.745  0.1530  0.0259 -0.1432
 8243W        W24717  13.311   2.090  10.600 -0.1776 -0.2869  0.4158
 8244W        W24718  16.108   0.936  13.198 -0.0251 -0.0010  0.1562
 8245W        W24719  19.035  10.979  13.852  0.1811 -0.2132 -0.1534
 8246W        W24720  15.708  17.033   0.115  0.4156 -0.1227  0.0402
 8247W        W24721  12.712  15.716   3.669  0.1395  0.0498 -0.2608
 8248W        W24722  14.597  18.976   2.906  0.0563  0.0371  0.1389
 8249W        W24723   7.057   9.426   2.292 -0.1933 -0.1904  0.1180
 8250W        W24724  14.804  10.644   1.491 -0.1596  0.1289  0.2024
 8251W        W24725   0.578  14.098  11.764  0.0117 -0.0448 -0.0230
 8252W        W24726   0.205   3.440   2.922  0.3160  0.0134 -0.2640
 8253W        W24727  17.124   4.620  11.353 -0.2034  0.1544  0.2300
 8254W        W24728  17.255  17.884  14.049 -0.1016 -0.1749 -0.0188
 8255W        W24729  14.126  16.709   2.949  0.0266 -0.0093  0.0446
 8256W        W24730  10.166   7.495   2.573  0.1709 -0.1179 -0.4689
 8257W        W24731  12.711  18.713  13.553  0.1265 -0.3117  0.1242
 8258W        W24732  14.533  11.508  14.647  0.0988 -0.3134  0.4197
 8259W        W24733  11.340   1.362   2.047  0.1783 -0.4192 -0.0415
 8260W        W24734  14.533  15.994  11.242 -0.0891 -0.2472 -0.1399
 8261W        W24735  13.562   1.294   9.601 -0.0673 -0.2532  0.0335
 8262W        W24736   1.773   9.232  11.398 -0.2812 -0.2659 -0.1534
 8263W        W24737  15.470  16.292  12.216  0.1858 -0.3149  0.0813
 8264W        W24738  12.711   2.722   2.356 -0.0816 -0.2177  0.0868
 8265W        W24739   6.394  18.188   3.321  0.1677  0.1827 -0.1391
 8266W        W24740   7.872   4.004   3.335 -0.0166  0.5455 -0.1874
 8267W        W24741  14.931  17.341   2.620 -0.1644  0.1854  0.1662
 8268W        W24742  15.055   5.822   3.558 -0.0150  0.2249 -0.0440
 8269W        W24743  16.331   5.403  12.204 -0.2673  0.2582 -0.0103
 8270W        W24744   2.829  17.605  14.265  0.1272  0.1495  0.0013
 8271W        W24745  16.578  13.430   3.048 -0.0873 -0.2064  0.1631
 8272W        W24746  16.104   2.855   4.509  0.1903 -0.0688  0.0651
 8273W        W24747  13.598  10.438   0.024 -0.0904  0.2180 -0.0062
 8274W        W24748   9.719  11.340  13.616  0.3138 -0.1651  0.3281
 8275W        W24749   2.952   2.063  10.869  0.0470  0.0345 -0.1386
 8276W        W24750  19.218  18.891   0.701  0.1496 -0.1796  0.2111
 8277W        W24751   4.255  11.412  14.280 -0.1297 -0.0569 -0.3031
 8278W        W24752   7.509  18.406   0.550  0.2246 -0.3055  0.3057
 8279W        W24753   0.198  19.149   2.121 -0.1028 -0.0473 -0.1072
 8280W        W24754  12.289   3.519   3.650  0.5593  0.1925  0.0466
 8281W        W24755   5.758  12.456   4.128 -0.0019 -0.0663 -0.1953
 8282W        W24756  18.469  12.193  13.518 -0.2481  0.2088  0.1049
 8283W        W24757  13.282   3.188  11.373  0.0344  0.3529 -0.0941
 8284W        W24758   3.286   9.565   4.502 -0.1016  0.0873 -0.1118
 8285W        W24759  17.702  16.236   0.237  0.2528 -0.0659 -0.0739
 8286W        W24760   5.453  15.471  11.186 -0.0954 -0.0376  0.1604
 8287W        W24761   1.814  13.789   2.345 -0.4616 -0.4019 -0.0436
 8288W        W24762   1.343   1.888   2.350  0.2803  0.0383 -0.0449
 8289W        W24763   2.906   9.710   2.216 -0.0368  0.1173  0.0220
 8290W        W24764  13.868  10.187   5.689 -0.1465 -0.0478  0.1419
 8291W        W24765   7.140   5.411  14.270 -0.4002 -0.1340  0.3192
 8292W        W24766  11.073  13.258   1.439 -0.0006  0.1654 -0.1504
 8293W        W24767  14.695   5.898   4.960 -0.0757 -0.1310  0.0494
 8294W        W24768   8.653  14.439   1.728  0.1679 -0.3000  0.3891
 8295W        W24769  14.025   1.227   3.736  0.0757 -0.2357  0.3029
 8296W        W24770  10.094   0.453   2.236  0.2005  0.0734 -0.3020
 8297W        W24771   3.754  17.395  12.636 -0.0141 -0.1912  0.1559
 8298W        W24772   4.873  17.249   5.176 -0.0534 -0.2220  0.2421
 8299W        W24773  10.696   6.309   4.738  0.1468 -0.0737 -0.0981
 8300W        W24774  18.985  10.088   2.963 -0.0214  0.0923 -0.0925
 8301W        W24775   6.210  15.975   2.306 -0.1633 -0.0169  0.1314
 8302W        W24776   7.131   3.872  12.078  0.0001 -0.5587  0.1818
 8303W        W24777   2.589  18.749   0.580 -0.1508  0.4100 -0.1868
 8304W        W24778   3.780   1.257  12.250 -0.0655  0.0699 -0.0937
 8305W        W24779   7.575   2.709   2.604  0.1761 -0.2244 -0.2235
 8306W        W24780  15.785   7.069  14.308 -0.3952  0.0148 -0.2912
 8307W        W24781   1.837   6.477   0.643 -0.0196  0.0237  0.0421
 8308W        W24782  15.068  16.206  11.943  0.0956  0.2858  0.0548
 8309W        W24783   8.075   1.507  10.491  0.0306 -0.0513  0.0375
 8310W        W24784   8.493   2.778   2.890 -0.2433  0.1202  0.1706
 8311W        W24785   0.474   5.197  11.401  0.0053 -0.3501 -0.0141
 8312W        W24786   3.732   8.401   1.783  0.1388 -0.0616 -0.2828
 8313W        W24787  18.849   7.134  13.642 -0.1800 -0.0181  0.0016
 8314W        W24788   0.840   2.802  11.476 -0.0619  0.2409 -0.2620
 8315W        W24789   3.627  12.731   2.081  0.0682  0.2803 -0.0427
 8316W        W24790  11.602   5.877   2.678  0.1719  0.1719  0.3502
 8317W        W24791  18.639  14.146  12.798 -0.0510 -0.1048 -0.0856
 8318W        W24792  15.349   6.442  11.632 -0.2728 -0.1659 -0.0200
 8319W        W24793   8.763   3.159  12.667  0.0535 -0.1642 -0.0421
 8320W        W24794  12.414  11.668  10.539 -0.0369  0.0911  0.2596
 8321W        W24795  10.375  18.759  14.613  0.1909  0.0885  0.0441
 8322W        W24796  17.705   7.167  11.380  0.2459 -0.2469 -0.1864
 8323W        W24797  16.031   5.103   2.786 -0.0696 -0.1302  0.1090
 8324W        W24798  18.018  18.320  11.670 -0.2058 -0.2333  0.0697
 8325W        W24799   9.003  13.755  13.756  0.2912 -0.1803 -0.2516
 8326W        W24800  18.858  18.700   1.191  0.2826  0.4160  0.3902
 8327W        W24801  19.373  14.468   1.891 -0.0339  0.0745  0.2016
 8328W        W24802  11.448  18.555   2.153  0.2490 -0.2039 -0.0983
 8329W        W24803   1.275   3.447  12.011  0.1311 -0.1199 -0.1685
 8330W        W24804  19.235  10.618   5.202 -0.1186 -0.0493  0.2785
 8331W        W24805  15.298  13.311  12.019  0.0692 -0.2580  0.1730
 8332W        W24806  13.552   7.822  11.932  0.0387  0.3577  0.0682
 8333W        W24807   6.800  13.086   1.535  0.0906  0.3650 -0.2331
 8334W        W24808   0.614  17.147  11.866 -0.5020 -0.0050  0.2438
 8335W        W24809  16.745  10.530  12.051 -0.0840 -0.0701 -0.0441
 8336W        W24810   8.345  10.899   2.109 -0.2967  0.0360  0.1984
 8337W        W24811  13.856  15.936   1.244 -0.0341  0.3515 -0.0497
 8338W        W24812   0.001   1.904  11.440 -0.1052  0.1965  0.2014
 8339W        W24813  12.203  19.546  10.294  0.2909  0.1637 -0.0987
 8340W        W24814   5.333  13.481   9.936  0.0702 -0.3126 -0.1301
 8341W        W24815   6.242  13.341   2.176 -0.0822  0.3747  0.1847
 8342W        W24816   0.489  19.622   0.615  0.0603 -0.0358 -0.0847
 8343W        W24817   5.864   1.462  14.598 -0.0369  0.2044  0.2051
 8344W        W24818  17.911  19.326  12.605  0.0871  0.1179  0.0289
 8345W        W24819   4.902  16.932  11.305  0.2596  0.0928  0.0963
 8346W        W24820   6.181   3.438  13.236  0.1046  0.1366 -0.0178
 8347W        W24821  15.352  18.984   2.388 -0.2618  0.4831  0.3549
 8348W        W24822  17.075   2.427   4.783  0.0064  0.0230  0.3791
 8349W        W24823   4.544   3.548  14.115 -0.0232  0.2585  0.3036
 8350W        W24824  18.990  15.187   2.078  0.1311  0.1754 -0.2545
 8351W        W24825  11.600  15.381  12.036 -0.2854 -0.1079 -0.2592
 8352W        W24826   8.189   6.091   5.062 -0.2504 -0.1022  0.0339
 8353W        W24827  13.442  18.525  11.335 -0.2061 -0.3351  0.0281
 8354W        W24828   9.158  18.062  12.312  0.1287  0.1387  0.0386
 8355W        W24829   7.888  11.027   1.685  0.3406  0.1167 -0.0092
 8356W        W24830  16.103  10.369  13.986  0.0843  0.2447 -0.0801
 8357W        W24831   7.542   1.569   2.430 -0.0637 -0.0172 -0.3187
 8358W        W24832  11.556   1.137   2.400 -0.1904  0.1367 -0.0303
 8359W        W24833  18.589  18.093   1.791  0.1805 -0.1252  0.1385
 8360W        W24834  18.197  14.610   0.971 -0.2352 -0.1100  0.2437
 8361W        W24835  16.069  12.657   9.318 -0.1209  0.0624 -0.3262
 8362W        W24836   2.231   1.410   9.736 -0.3739 -0.0928 -0.2429
 8363W        W24837  18.091   2.031   2.477 -0.2982 -0.0260 -0.4534
 8364W        W24838  13.752   7.590  11.267 -0.1417  0.0431 -0.1143
 8365W        W24839   3.160  17.347   1.775  0.0433  0.1836 -0.0685
 8366W        W24840   3.934   0.146  10.385 -0.2320  0.3793 -0.2876
 8367W        W24841   5.731   8.876   4.423  0.0219  0.1126 -0.2318
 8368W        W24842  16.063   2.500   3.410 -0.1119  0.0557  0.3507
 8369W        W24843  10.541  18.999   0.334 -0.2660 -0.3408 -0.1457
 8370W        W24844   0.627  10.516   4.423 -0.0094 -0.2803  0.1978
 8371W        W24845   7.210  10.065   4.060  0.4586 -0.2212  0.1191
 8372W        W24846  17.119   4.059   4.352 -0.1255  0.2374 -0.0759
 8373W        W24847  17.544  10.011  12.444  0.0539 -0.1921  0.1744
 8374W        W24848   2.417  14.945   1.821  0.2210 -0.1952  0.2085
 8375W        W24849   1.277   8.864  13.475 -0.0844 -0.3104  0.1793
 8376W        W24850  10.751  14.390   1.310 -0.4592 -0.3038 -0.1303
 8377W        W24851   8.118  12.492  13.743 -0.2452  0.3689  0.0544
 8378W        W24852  15.751   0.713   4.758  0.1151  0.3646  0.3978
 8379W        W24853   8.713  16.538   3.302 -0.0790 -0.0264 -0.2396
 8380W        W24854  18.777   4.148  11.425 -0.0325  0.2852 -0.0678
 8381W        W24855   9.470   1.562   3.982 -0.0881 -0.3365  0.0911
 8382W        W24856  19.400   9.039  10.614 -0.3205 -0.2217  0.0994
 8383W        W24857  14.328   5.564   3.199 -0.1652  0.1807  0.2141
 8384W        W24858   8.178  19.128   4.122  0.2071  0.1064 -0.1100
 8385W        W24859  18.972  16.589  11.603  0.1313 -0.0946  0.0849
 8386W        W24860   8.508  13.526  12.093 -0.0135  0.2920 -0.0624
 8387W        W24861   5.640   0.295   3.798 -0.1112  0.0332  0.0608
 8388W        W24862   7.429   3.604  10.630 -0.0074  0.3058 -0.1034
 8389W        W24863   8.825   0.484  10.471 -0.2156 -0.1826  0.0151
 8390W        W24864   8.982  16.770   4.638 -0.0378  0.0775 -0.4676
 8391W        W24865   9.031   3.031   1.005  0.2104  0.0610  0.0989
 8392W        W24866   6.037  11.891  12.933 -0.3038 -0.2522  0.0277
 8393W        W24867  14.230  12.236   1.720 -0.1154 -0.2105  0.2821
 8394W        W24868  12.642  12.101  14.475 -0.2976 -0.1385  0.1337
 8395W        W24869  17.819  16.850   3.615  0.1308 -0.1714 -0.1139
 8396W        W24870  11.416   2.568   4.892  0.2265  0.1193  0.1587
 8397W        W24871  15.485  12.627   1.512 -0.2806 -0.0956  0.1264
 8398W        W24872  19.406  14.807  12.090  0.0716  0.1094 -0.0690
 8399W        W24873   1.928  10.544   2.856 -0.1411 -0.1255  0.0557
 8400W        W24874   4.643   2.290  11.826 -0.2368  0.2450  0.1842
 8401W        W24875  12.688  12.320   0.525 -0.0363 -0.2477  0.1220
 8402W        W24876  11.196  12.081  11.503  0.4892  0.2572  0.2335
 8403W        W24877   8.257   2.278   0.066 -0.0640 -0.1605 -0.1056
 8404W        W24878   5.402  12.004   4.839 -0.5253 -0.0716  0.0154
 8405W        W24879   7.591   3.909  12.220 -0.1607 -0.2685 -0.1149
 8406W        W24880   5.062   5.191  12.290  0.1922 -0.0028  0.0475
 8407W        W24881   4.891   3.156   9.470 -0.5569  0.1421 -0.3691
 8408W        W24882   0.048  10.221   5.091  0.0072  0.2169 -0.1992
 8409W        W24883   5.351  14.536   0.439  0.1531 -0.2013 -0.1643
 8410W        W24884   2.631  15.850   3.465  0.0866  0.1381  0.1895
 8411W        W24885   2.666   2.914   4.053  0.2275 -0.1662  0.0570
 8412W        W24886  12.213  14.287   3.205 -0.0335 -0.1666 -0.2218
 8413W        W24887  15.273   2.698   1.609 -0.2604 -0.0775  0.0644
 8414W        W24888   2.507  15.928  14.187  0.2171  0.3288 -0.3102
 8415W        W24889  16.198   1.022  10.569 -0.0994  0.2042 -0.0739
 8416W        W24890   7.990   7.942  13.221  0.1114 -0.0668 -0.0130
 8417W        W24891   2.970   4.391   4.433  0.0295  0.1950 -0.3426
 8418W        W24892   7.310  12.814   5.402  0.1488  0.2466 -0.1149
 8419W        W24893   1.882  12.357  11.570 -0.0545 -0.2993 -0.0344
 8420W        W24894  12.583   8.784  11.514 -0.2304 -0.1543 -0.1506
 8421W        W24895  15.480   4.825  13.153  0.0930  0.2469  0.0131
 8422W        W24896  18.487  14.336  13.231 -0.2700 -0.2193  0.1564
 8423W        W24897  13.765   8.509   9.559  0.0664 -0.1444  0.3054
 8424W        W24898  15.770   2.585   0.753 -0.3230  0.0079  0.1662
 8425W        W24899  11.576  19.467   3.224  0.1173 -0.0461 -0.1788
 8426W        W24900  18.574   6.624  11.925 -0.0817  0.1338 -0.0025
 8427W        W24901   9.386  16.523  11.147 -0.1114  0.0833 -0.1980
 8428W        W24902  12.748  11.850  13.148  0.0124 -0.0923 -0.3511
 8429W        W24903  19.055  14.369  10.087 -0.0368  0.1897 -0.2283
 8430W        W24904  17.464   0.262  10.373 -0.0710 -0.1034 -0.3949
 8431W        W24905  16.457   2.545  12.799 -0.2670  0.0406  0.2544
 8432W        W24906   4.277  11.297   0.055  0.1781  0.2981 -0.0069
 8433W        W24907   6.859   2.029   3.367 -0.1060  0.2864 -0.0016
 8434W        W24908  18.042   3.512   2.913  0.1865  0.0043 -0.0768
 8435W        W24909  10.183   0.465  12.100  0.1442 -0.2076  0.0143
 8436W        W24910   3.704   1.624   2.441  0.1257 -0.2204 -0.1087
 8437W        W24911   6.590   8.412  13.500  0.1487  0.3316  0.0526
 8438W        W24912   4.781   3.639   3.142  0.7994 -0.0625 -0.1627
 8439W        W24913  18.731   4.421   3.539 -0.1864  0.2776 -0.0507
 8440W        W24914   8.086   3.846   3.891 -0.1096 -0.2777  0.0630
 8441W        W24915  14.366  10.310   4.380  0.0846  0.3082 -0.1192
 8442W        W24916  15.339  19.174   3.352 -0.1141  0.0979  0.0267
 8443W        W24917  13.558  19.238   4.540 -0.2487 -0.2017  0.0443
 8444W        W24918   7.435   4.533  11.824  0.1130 -0.0554 -0.1608
 8445W        W24919  11.282  11.394   1.784 -0.4548 -0.0494 -0.2421
 8446W        W24920   3.873   0.894   3.795  0.1343  0.2894  0.2866
 8447W        W24921   5.270  11.101   0.584 -0.0222 -0.3176  0.1556
 8448W        W24922  19.286   6.082  12.870  0.2277  0.1328 -0.2180
 8449W        W24923  11.660   7.769  10.236  0.1374 -0.4707 -0.0936
 8450W        W24924  12.151  17.740   3.931  0.1212  0.1453  0.2409
 8451W        W24925   6.240   6.587  14.015 -0.0092  0.0789 -0.2572
 8452W        W24926  13.342   7.941  13.775  0.1034 -0.1229 -0.0861
 8453W        W24927  10.329  12.449  12.848  0.1139  0.0197 -0.2995
 8454W        W24928   4.347   9.605   1.821 -0.1078  0.1704 -0.0364
 8455W        W24929   1.715   9.392  12.283  0.1703 -0.0210  0.1745
 8456W        W24930   2.350   8.805  10.500  0.0223 -0.0261  0.2120
 8457W        W24931   7.039  12.998  12.553 -0.0513  0.0412  0.1299
 8458W        W24932  14.510  15.223  14.053 -0.2057 -0.3148  0.4545
 8459W        W24933  14.684  12.421   4.178  0.0533 -0.0392 -0.1385
 8460W        W24934   2.928  16.849  13.704 -0.1128  0.0838  0.0529
 8461W        W24935  12.026   5.505  14.104 -0.3247  0.4492  0.0750
 8462W        W24936   6.643   6.419  12.757  0.1530 -0.0521  0.4189
 8463W        W24937  10.187   5.082  11.462 -0.1700 -0.0380 -0.0399
 8464W        W24938  10.816   8.652  13.225  0.0656  0.1869  0.0892
 8465W        W24939  11.105   8.369   1.285 -0.0251  0.2502 -0.0066
 8466W        W24940  13.113   8.034  11.924  0.1211  0.2654  0.0354
 8467W        W24941  13.945  17.261   4.977 -0.0999  0.2640 -0.0327
 8468W        W24942  14.292   2.820   0.544  0.0520 -0.1216  0.0529
 8469W        W24943   1.098  12.590   0.597  0.0018  0.0456  0.0346
 8470W        W24944  19.343  15.594  13.627 -0.1817 -0.0501 -0.3243
 8471W        W24945  17.077  16.446   1.734 -0.0263 -0.0603  0.1911
 8472W        W24946  18.666  16.411  12.113 -0.0279 -0.4038 -0.3114
 8473W        W24947   2.301  14.199   2.319  0.3405 -0.1575  0.1509
 8474W        W24948   2.737   2.464  13.756 -0.1076  0.2318  0.0011
 8475W        W24949   7.545   5.282   1.347  0.0550 -0.0586 -0.0013
 8476W        W24950   5.701  16.191  13.232 -0.1775  0.0765 -0.1761
 8477W        W24951  16.548   7.691   1.385 -0.2657 -0.1956  0.0658
 8478W        W24952  15.605  10.626   1.596 -0.1686  0.1030  0.3525
 8479W        W24953   2.195   7.501  14.331 -0.2030 -0.0724  0.3215
 8480W        W24954   8.301  16.301  14.108 -0.1355  0.3810  0.0525
 8481W        W24955  13.421   5.259  14.027 -0.1004  0.0467  0.0709
 8482W        W24956  12.092   6.217  10.053  0.0209 -0.2359  0.3550
 8483W        W24957  16.749   1.010  10.654  0.1870  0.3536 -0.0464
 8484W        W24958  12.837   6.060  12.412  0.0424  0.1080  0.0975
 8485W        W24959   3.299   7.199   1.983  0.1305 -0.0460  0.1099
 8486W        W24960   8.529  16.541  11.526  0.0340 -0.2019 -0.3075
 8487W        W24961   3.932   8.896   1.447 -0.0283 -0.1529  0.1678
 8488W        W24962  13.623  16.025   1.727 -0.0466 -0.2125  0.0572
 8489W        W24963  13.108  10.211   0.057 -0.0305 -0.1755  0.0345
 8490W        W24964   8.902   3.665   3.487 -0.2861  0.5880  0.0788
 8491W        W24965   3.264  17.418   2.831 -0.1312 -0.2692 -0.5966
 8492W        W24966   6.667  13.665   0.416 -0.0734  0.1535  0.2599
 8493W        W24967  13.829  11.027   4.129 -0.1057 -0.0746 -0.3387
 8494W        W24968  11.929  14.373  14.349  0.1959  0.0917 -0.2340
 8495W        W24969  18.884  10.326   1.988  0.0882 -0.0241  0.0086
 8496W        W24970   4.310   3.235  11.960  0.1457 -0.0179 -0.1054
 8497W        W24971  10.585  16.333  14.292 -0.0929  0.1553 -0.2252
 8498W        W24972   5.608  10.369   2.041 -0.1122  0.2111 -0.2993
 8499W        W24973  16.304  19.432   3.975 -0.0750 -0.0959 -0.4907
 8500W        W24974  13.266  12.028  13.381  0.0971 -0.0491  0.2400
 8501W        W24975   7.132   3.829   2.355  0.0431 -0.0811  0.2019
 8502W        W24976   1.422  11.939   5.576  0.1310 -0.3597  0.0609
 8503W        W24977  14.053   1.806   3.715  0.1090  0.0870 -0.1112
 8504W        W24978  18.722   3.600   4.650  0.0785  0.1586 -0.0457
 8505W        W24979   9.427   9.006  13.520 -0.1446  0.2523 -0.2089
 8506W        W24980   0.239  19.077   5.375 -0.0817  0.2080 -0.0944
 8507W        W24981   0.869   8.296  11.514  0.2877 -0.1568  0.2837
 8508W        W24982  11.859   5.509   1.528 -0.2396 -0.2644  0.2408
 8509W        W24983  12.471   9.240   3.074  0.0444  0.3032 -0.0286
 8510W        W24984  13.680   3.761  13.031 -0.0657  0.1123  0.0935
 8511W        W24985   4.572  15.138  11.889  0.0540  0.2325 -0.1498
 8512W        W24986   3.289  18.810   3.256 -0.4030 -0.0114  0.1148
 8513W        W24987   8.778  10.502   2.774  0.1039 -0.0336 -0.2038
 8514W        W24988  17.998  12.529   3.702  0.1463  0.2557  0.3093
 8515W        W24989   3.877   8.540   4.199 -0.0309 -0.2327  0.0210
 8516W        W24990  13.628  12.533   2.393  0.0777 -0.0218  0.1232
 8517W        W24991   9.837   2.975  10.103  0.0759 -0.2313  0.0355
 8518W        W24992  14.713   0.055   3.915  0.3159  0.1369  0.3553
 8519W        W24993   7.655  11.942  10.762  0.3694 -0.1858 -0.0914
 8520W        W24994  11.081   9.193  14.290 -0.2029  0.0561 -0.3121
 8521W        W24995  14.057  17.202  10.893  0.1530 -0.0404 -0.1524
 8522W        W24996   3.221   8.535  11.075 -0.0640  0.3705 -0.2003
 8523W        W24997   0.519  13.305  12.237  0.0902  0.2791  0.0585
 8524W        W24998  17.647  18.756   2.183 -0.5087  0.0503 -0.0185
 8525W        W24999   3.498  13.129   1.643 -0.0466  0.0497 -0.1346
 8526W        W25000  15.804   5.634   4.547 -0.2344 -0.1946 -0.0710
 8527W        W25001   0.449   0.341   0.171 -0.1704 -0.0590  0.1073
 8528W        W25002   4.190  15.470   0.193 -0.0146 -0.3063 -0.0322
 8529W        W25003  11.535  17.180   9.920  0.0434 -0.1774 -0.0026
 8530W        W25004  17.904  16.498   3.225  0.3079 -0.2864  0.2696
 8531W        W25005  15.802   0.076  12.863  0.2047 -0.1170  0.0028
 8532W        W25006   2.979   7.415   3.371  0.1643  0.0125 -0.2719
 8533W        W25007  17.136   2.604   5.410  0.1727  0.0431  0.1585
 8534W        W25008  10.520   2.013  11.941  0.0570  0.0068  0.1153
 8535W        W25009  16.245   4.517   2.109  0.1835  0.1811  0.1522
 8536W        W25010  15.228   2.192   2.697  0.1715  0.0410  0.0855
 8537W        W25011   6.637   8.594   1.588  0.0615  0.0154 -0.2272
 8538W        W25012   4.721  14.065  13.677 -0.0567 -0.1402  0.0660
 8539W        W25013   9.639   3.700  11.085 -0.2453 -0.1692  0.2774
 8540W        W25014   4.705   4.451   4.531  0.3116 -0.0539  0.3732
 8541W        W25015   9.962   1.496  10.638 -0.3557 -0.0537 -0.1492
 8542W        W25016   5.096   4.588   4.231  0.3320  0.2028  0.0473
 8543W        W25017   8.643  16.367   2.396  0.0193  0.0173  0.0509
 8544W        W25018  10.587   9.340  11.288  0.2167  0.0664  0.1628
 8545W        W25019  14.272  13.992   4.181  0.0033  0.1508 -0.3666
 8546W        W25020   7.314   2.731  10.823  0.0059 -0.2420 -0.0850
 8547W        W25021  18.636   8.698  12.850  0.1718 -0.2088  0.0055
 8548W        W25022  15.834  11.165   2.445  0.4243  0.1262  0.0765
 8549W        W25023  12.707  16.011  14.641  0.0560 -0.0024  0.0749
 8550W        W25024   2.407   5.768  11.512  0.0459  0.3197 -0.0188
 8551W        W25025   8.054  15.103   0.182  0.0671  0.0874  0.2014
 8552W        W25026   0.218   2.541   4.705 -0.0968 -0.1837  0.0155
 8553W        W25027   9.216   0.769  11.701  0.4241 -0.0386  0.2169
 8554W        W25028   1.006  15.074  11.343  0.0922 -0.1759  0.3118
 8555W        W25029   8.356   8.626  10.098 -0.1427 -0.2628 -0.1531
 8556W        W25030  17.087  14.845   2.059  0.1754 -0.1940 -0.3049
 8557W        W25031  16.415  11.765   1.439  0.0915  0.0715  0.2947
 8558W        W25032  18.495  14.172  11.917  0.0324  0.0185  0.0338
 8559W        W25033  19.262  11.148   3.479 -0.2146  0.4037 -0.2980
 8560W        W25034  14.597  11.115   3.992  0.0154 -0.2596  0.0753
 8561W        W25035   2.914   7.946   3.151 -0.0125  0.2645  0.0931
 8562W        W25036  16.599   6.482  12.025 -0.0393  0.1387  0.1762
 8563W        W25037   9.674   4.475   1.445 -0.2079 -0.2437  0.2124
 8564W        W25038   7.490  10.232  12.766  0.0408 -0.1260  0.1178
 8565W        W25039   6.816   9.654  12.796  0.0442  0.0695  0.1952
 8566W        W25040   2.806   1.407   9.713 -0.2330 -0.0394  0.1097
 8567W        W25041  15.205   9.253  10.108  0.1651 -0.1293  0.1241
 8568W        W25042  15.979   3.120  11.047 -0.2428  0.0013 -0.1547
 8569W        W25043  13.992   8.549  14.553 -0.3178 -0.1997 -0.0211
 8570W        W25044   5.459  12.201  12.543  0.1687 -0.2463  0.1112
 8571W        W25045  17.242  14.316  14.547 -0.0330 -0.1773 -0.0242
 8572W        W25046   9.999  16.306   3.360  0.0350  0.2354  0.1329
 8573W        W25047   8.501  17.022   0.121  0.2268 -0.1271 -0.3554
 8574W        W25048  10.632  10.711   3.283 -0.1408 -0.1679 -0.1745
 8575W        W25049  10.254   9.693   0.431 -0.1265 -0.3056 -0.0051
 8576W        W25050   0.438   9.574   2.636  0.0423  0.1382  0.1854
 8577W        W25051   3.060   8.491   1.743 -0.0274 -0.3599 -0.0303
 8578W        W25052   1.318   4.442   1.993 -0.1279  0.1510  0.1826
 8579W        W25053  10.646   8.323   4.402 -0.1371  0.0152  0.0440
 8580W        W25054   8.504   8.601  12.354  0.0145 -0.0302 -0.2515
 8581W        W25055  18.382  17.204   3.053 -0.1462 -0.1117  0.1798
 8582W        W25056  19.528  17.377  11.589 -0.5304 -0.2502 -0.1763
 8583W        W25057   0.100   8.845   1.703 -0.2169  0.0073 -0.0805
 8584W        W25058  12.758  14.856  13.992  0.1013  0.0771  0.0812
 8585W        W25059   9.243   6.647  11.153  0.0588  0.1910 -0.0969
 8586W        W25060  11.816  15.966  11.888 -0.3083 -0.3757  0.0316
 8587W        W25061  10.337   4.322  11.591  0.0939  0.0250  0.1650
 8588W        W25062   2.252   2.489  12.949 -0.0085  0.0808 -0.0046
 8589W        W25063   2.529  10.130  12.593  0.0371 -0.2224 -0.0905
 8590W        W25064   7.684  14.904   5.352 -0.1591  0.0116  0.6001
 8591W        W25065  11.181   6.543  12.541  0.0396 -0.0831  0.1931
 8592W        W25066   6.638   3.257   2.384 -0.1536  0.1150  0.1323
 8593W        W25067   8.820  19.199  14.425  0.3080  0.0285  0.1093
 8594W        W25068   2.941   3.441   2.436 -0.1793 -0.4324  0.2021
 8595W        W25069  19.219  14.918  11.360  0.0898 -0.2287  0.2787
 8596W        W25070  10.963  13.110  11.962  0.1184 -0.0196  0.0761
 8597W        W25071  15.703  12.893   2.558 -0.3133  0.1878  0.1726
 8598W        W25072   1.636  15.587  14.224  0.1823  0.1537  0.0790
 8599W        W25073   5.650   4.432   9.175  0.2442  0.2271  0.4805
 8600W        W25074   3.787  17.771  10.975  0.0353  0.2483 -0.0548
 8601W        W25075  14.314   0.807   4.971 -0.1139  0.5859 -0.0498
 8602W        W25076  19.169   3.187  13.341 -0.0516 -0.0622 -0.3088
 8603W        W25077   2.589  11.431  10.104  0.3634  0.0559  0.1149
 8604W        W25078  16.535   4.259   9.182  0.1584 -0.0440 -0.1323
 8605W        W25079  12.353   2.442   3.902  0.1658 -0.1503  0.1680
 8606W        W25080   1.367   4.394  14.407  0.0158  0.1498  0.3945
 8607W        W25081   0.790  10.399   0.392  0.0033 -0.2709  0.4305
 8608W        W25082  17.888  16.935   4.422  0.2035  0.0353 -0.0951
 8609W        W25083   2.394  12.192   3.530  0.2516  0.0672 -0.3078
 8610W        W25084   5.798  15.641  10.865 -0.0732  0.0352  0.0512
 8611W        W25085   7.090   5.523   3.709 -0.3926 -0.1879 -0.1393
 8612W        W25086   4.101   9.145   3.875 -0.2656  0.0308 -0.2959
 8613W        W25087   3.293   2.191   0.852  0.0154 -0.1597  0.0831
 8614W        W25088   8.313  17.916   3.810  0.1647  0.2498 -0.3411
 8615W        W25089  13.725   3.212   1.403  0.1027  0.1836 -0.2752
 8616W        W25090   5.519  19.117  13.283 -0.1364 -0.1590  0.0505
 8617W        W25091   4.531   4.925   1.690  0.1888  0.0552  0.2075
 8618W        W25092  17.386  16.284  11.922 -0.2156 -0.0687 -0.1735
 8619W        W25093  14.636   3.553   2.659 -0.2680  0.0183 -0.3496
 8620W        W25094  10.462  13.436  14.243 -0.2322  0.0516 -0.1102
 8621W        W25095  19.134   1.642  13.623  0.1594 -0.1214  0.2250
 8622W        W25096  12.898   9.660  11.756 -0.3020  0.2622 -0.0144
 8623W        W25097   0.411   9.244  12.512  0.2083  0.4008  0.0097
 8624W        W25098  12.845  17.790   0.271 -0.3874  0.3549 -0.0250
 8625W        W25099   3.908  10.728   1.266  0.0766  0.3096 -0.1227
 8626W        W25100  13.494   6.976   9.981  0.1605 -0.1424 -0.3813
 8627W        W25101  16.773  15.981  13.991 -0.1586  0.1589 -0.3394
 8628W        W25102   7.777   5.812   1.094  0.1035  0.1817 -0.2833
 8629W        W25103   7.650  11.878   1.621 -0.3470 -0.1591  0.0586
 8630W        W25104   8.651  12.067   3.358 -0.0118 -0.0161 -0.0927
 8631W        W25105  10.638  15.121   1.679  0.3187  0.1972  0.0098
 8632W        W25106   6.167  16.744   1.321  0.2493  0.0408  0.0640
 8633W        W25107   9.574   5.683  12.690  0.0768  0.0730 -0.0972
 8634W        W25108   3.242  13.894   3.306  0.3775 -0.1434 -0.3444
 8635W        W25109   4.606  13.768  14.188 -0.1032  0.3827  0.2501
 8636W        W25110   7.690   3.324   3.985 -0.4790  0.1377 -0.1592
 8637W        W25111   7.119  11.337   0.791  0.2041  0.0266  0.4490
 8638W        W25112  10.553  11.043   2.878  0.1028  0.1761 -0.4128
 8639W        W25113  11.379   2.349   3.784  0.1588  0.4090 -0.1522
 8640W        W25114  10.291   5.946   0.234  0.2372 -0.0110 -0.1068
 8641W        W25115   0.407  17.434  13.833  0.0996 -0.1059 -0.1041
 8642W        W25116   3.480  10.803  12.795  0.0241  0.2165 -0.0079
 8643W        W25117  10.305  17.033   0.017 -0.0043  0.2449 -0.2488
 8644W        W25118  19.052   0.391   2.584  0.2864 -0.1173  0.0081
 8645W        W25119  15.705  18.848  12.357 -0.3421 -0.1944 -0.0758
 8646W        W25120   0.210   0.116  10.761 -0.3371  0.1652 -0.1050
 8647W        W25121   3.375   6.794   3.050  0.4003 -0.1258 -0.0207
 8648W        W25122  13.340   5.677   0.251  0.2280 -0.0854 -0.1695
 8649W        W25123   8.898  10.873   3.080 -0.0905 -0.3238  0.0512
 8650W        W25124   7.314   6.958   0.900 -0.0289  0.1057 -0.0516
 8651W        W25125   8.667   6.672  11.187  0.0170  0.3029 -0.0767
 8652W        W25126   7.279  16.705   3.403  0.0344  0.0186  0.1670
 8653W        W25127  15.702   3.443   1.420  0.0607  0.0170 -0.0425
 8654W        W25128   2.451  17.447  13.176  0.6264 -0.5303  0.2386
 8655W        W25129  11.661   5.106   3.414 -0.2679  0.1733  0.1750
 8656W        W25130   9.320  14.929   0.158 -0.1321  0.0072  0.1805
 8657W        W25131   2.005   1.220  11.651 -0.2453 -0.1133  0.5034
 8658W        W25132  10.733  16.403   0.145  0.0636  0.0398 -0.0091
 8659W        W25133  16.171   7.134   2.473  0.0274 -0.2866  0.2909
 8660W        W25134   1.759  13.393  14.384 -0.0423 -0.1686 -0.1813
 8661W        W25135   6.558   6.001   0.422  0.0144  0.2098  0.3063
 8662W        W25136   2.521   5.934   1.392 -0.0632  0.0354  0.1130
 8663W        W25137  14.330   9.252  14.497  0.2453  0.1495 -0.1028
 8664W        W25138   3.824   1.524   2.984 -0.1005  0.2032 -0.0729
 8665W        W25139  18.932  13.489   0.964 -0.0617  0.2258 -0.2766
 8666W        W25140   8.085   3.768   0.293  0.0913 -0.0875 -0.2166
 8667W        W25141  14.026   8.611  12.268 -0.4043 -0.0231 -0.0107
 8668W        W25142  18.817  10.576  13.597 -0.1154 -0.2038 -0.3539
 8669W        W25143  13.112  15.795  10.739 -0.1097  0.1927  0.1229
 8670W        W25144   4.744   2.497   1.597 -0.0516 -0.2212 -0.1234
 8671W        W25145  12.196  10.429   4.588  0.2592 -0.0733  0.0685
 8672W        W25146   6.660   4.744  10.318  0.4806 -0.1061  0.1404
 8673W        W25147  12.039  19.040  14.588 -0.2199  0.3510  0.0593
 8674W        W25148  13.551  16.051   2.513 -0.1974  0.0966  0.1030
 8675W        W25149   9.233   5.683   1.313 -0.0621  0.2221 -0.4012
 8676W        W25150   6.754   1.406   0.283  0.1724  0.2179  0.0648
 8677W        W25151  10.412  10.966  12.986  0.2328 -0.0932 -0.0724
 8678W        W25152  10.972   9.288  13.356  0.0194  0.1427 -0.1165
 8679W        W25153  19.063  12.165  12.961 -0.0514  0.0813  0.0167
 8680W        W25154   2.531  18.872  11.005  0.0439 -0.1442 -0.1903
 8681W        W25155   0.659   1.100  10.908 -0.2525 -0.2845  0.0108
 8682W        W25156  15.934   5.496   1.689 -0.1727  0.0402  0.4370
 8683W        W25157  17.052   5.860   3.039 -0.1340 -0.3589  0.2384
 8684W        W25158   2.906  18.937  13.763 -0.1431  0.4071  0.0582
 8685W        W25159   0.611  18.155  13.008  0.1877  0.0263 -0.0519
 8686W        W25160  15.728   4.993   1.174 -0.4469  0.1132  0.0734
 8687W        W25161   5.596  15.205   0.172 -0.3503 -0.3759 -0.0636
 8688W        W25162   0.279   3.135  10.874 -0.2340 -0.1428 -0.0000
 8689W        W25163  19.598   5.588   1.360 -0.2589  0.1191 -0.3053
 8690W        W25164  18.565  13.923   3.836  0.1194 -0.3950 -0.0426
 8691W        W25165  15.005   7.452  14.428 -0.0942  0.1210 -0.0586
 8692W        W25166  13.320  11.152   0.988  0.2605 -0.2036 -0.1624
 8693W        W25167  14.616  18.136   9.582 -0.2730  0.0762  0.2583
 8694W        W25168   0.476  16.015   4.565 -0.0818 -0.0930  0.0075
 8695W        W25169  18.848   8.863   9.502 -0.2655 -0.1866  0.3368
 8696W        W25170   8.779   7.717   1.051  0.2723 -0.2141 -0.0467
 8697W        W25171   7.544   8.162   2.883  0.1649  0.1515  0.1771
 8698W        W25172  18.513   1.433   3.118  0.0128 -0.2878 -0.1142
 8699W        W25173   9.244   7.217  11.379 -0.0841  0.0544  0.1150
 8700W        W25174  12.726   4.581   2.151 -0.1457  0.0401  0.0722
 8701W        W25175  11.458   7.756  12.559 -0.1105 -0.0631 -0.0076
 8702W        W25176  10.832   3.457  12.942 -0.1868  0.0504 -0.4116
 8703W        W25177   8.361   2.226   0.661 -0.1770 -0.1796  0.0472
 8704W        W25178  18.292   2.496  12.297  0.1924 -0.1527 -0.0095
 8705W        W25179   0.928  10.359  12.900  0.1394 -0.1597  0.1207
 8706W        W25180   1.218  18.024  11.945  0.1689 -0.1833  0.0364
 8707W        W25181   6.681  19.146   3.424  0.0106 -0.1572 -0.0171
 8708W        W25182   8.232  13.655   5.106 -0.1741  0.0905 -0.0488
 8709W        W25183  12.805  19.320  11.201 -0.2723  0.0595 -0.0447
 8710W        W25184  10.421  18.114  10.815  0.1717 -0.0508 -0.0811
 8711W        W25185  18.904  11.777   9.238  0.2502  0.2574  0.0027
 8712W        W25186   1.406   0.988   0.766 -0.0967  0.2500 -0.0504
 8713W        W25187   5.510   1.115   1.850 -0.5027 -0.0400  0.2418
 8714W        W25188  18.697   2.417   9.983  0.0830 -0.2219 -0.1751
 8715W        W25189   3.753   4.440  10.704  0.1917 -0.3341 -0.1781
 8716W        W25190  15.528   0.594  10.076  0.0416 -0.1258 -0.2863
 8717W        W25191   9.512   0.063   9.349  0.4832  0.0353  0.2560
 8718W        W25192   3.952   2.577  14.056  0.1976 -0.0184 -0.3472
 8719W        W25193   5.802  17.048  10.744 -0.0643  0.0367  0.1667
 8720W        W25194  16.368   8.982  11.683  0.3079  0.0049 -0.2157
 8721W        W25195  18.429  15.199   5.723 -0.1903  0.0508 -0.3036
 8722W        W25196  15.652   5.118   3.167  0.1239 -0.1827 -0.0752
 8723W        W25197   7.260  11.066   1.315  0.3011  0.0073 -0.2478
 8724W        W25198   4.012   0.601  14.203 -0.0510 -0.3065 -0.1030
 8725W        W25199  13.935   1.520  11.744 -0.0847 -0.0097 -0.2333
 8726W        W25200  16.092   0.682   2.925 -0.0333 -0.3741  0.0592
 8727W        W25201   1.715   5.483   3.669 -0.1053 -0.1684 -0.2038
 8728W        W25202   3.516   1.141   0.894 -0.1512  0.2726 -0.2942
 8729W        W25203   8.411  12.957   0.635 -0.0430 -0.2072 -0.1387
 8730W        W25204  11.290  12.643   3.618 -0.1869  0.5983  0.0558
 8731W        W25205   1.238  14.701  13.722  0.0758 -0.0608  0.3342
 8732W        W25206  10.334   3.090  14.046  0.1200 -0.0134 -0.1355
 8733W        W25207   1.338   1.785   1.264  0.1888 -0.0804  0.0383
 8734W        W25208  18.202   9.551   3.588 -0.0978  0.0046  0.1076
 8735W        W25209  10.623   0.822   2.163 -0.0425  0.1167  0.0288
 8736W        W25210   3.618   4.989  14.546 -0.0321 -0.1807 -0.0732
 8737W        W25211  12.138  18.962  12.653  0.3230  0.0613 -0.0168
 8738W        W25212  15.914   5.311  11.274  0.2365  0.1922  0.0461
 8739W        W25213  17.826   5.042  10.990 -0.2047 -0.1937 -0.2583
 8740W        W25214   0.323   1.543   3.686 -0.0323 -0.0113 -0.0622
 8741W        W25215   0.509  11.393   0.853 -0.1149  0.0375  0.1900
 8742W        W25216   5.719   7.034   5.760  0.1317  0.5168 -0.2659
 8743W        W25217   3.083   6.441  11.567  0.2827  0.2652  0.0901
 8744W        W25218   6.537   4.189  13.454  0.3333  0.2078 -0.1604
 8745W        W25219  17.286   8.649  11.820 -0.1550 -0.3275  0.0554
 8746W        W25220  10.764   5.246  14.556  0.1889  0.1829  0.5784
 8747W        W25221   2.741  14.028  14.454  0.0897  0.0694 -0.0665
 8748W        W25222  13.604   3.192   0.868  0.3068  0.1601  0.3134
 8749W        W25223   6.664  18.757  13.778  0.0299 -0.3702  0.2666
 8750W        W25224  14.260   8.043   1.680 -0.0746 -0.1041  0.0660
 8751W        W25225  12.072   1.793   4.758  0.3585 -0.2135 -0.1711
 8752W        W25226   2.309  19.096  13.044 -0.0226 -0.2460 -0.1550
 8753W        W25227  18.437   6.737   5.159  0.2602  0.0595  0.0971
 8754W        W25228  11.219   2.353   0.984 -0.0945 -0.1379 -0.0555
 8755W        W25229   6.208   4.103  12.604 -0.0334 -0.1124 -0.0050
 8756W        W25230   5.803  11.542   1.448  0.3073  0.0828  0.2495
 8757W        W25231   0.263   1.244  10.270  0.0261  0.1592 -0.1643
 8758W        W25232   9.929  17.981  11.692  0.1412  0.0428  0.0810
 8759W        W25233  15.999  11.443  14.290 -0.0131 -0.1725 -0.2051
 8760W        W25234   8.417  13.996  11.119  0.0535  0.2771  0.3238
 8761W        W25235  17.051   0.326   4.479 -0.1280 -0.0058 -0.1265
 8762W        W25236   6.526  14.292   3.166  0.2665  0.1914  0.0087
 8763W        W25237   7.044  10.038   2.207  0.0560 -0.2662 -0.1877
 8764W        W25238  16.750  11.861  12.364  0.4033  0.3826 -0.0159
 8765W        W25239  11.534  16.445   4.533  0.1034 -0.2863  0.2410
 8766W        W25240   9.766   4.233   4.335 -0.0384 -0.0271 -0.0048
 8767W        W25241   2.355  13.149  12.515  0.0980  0.1011 -0.2534
 8768W        W25242  10.597   3.667   0.805 -0.2484 -0.1429 -0.1000
 8769W        W25243   6.359  15.102  12.463  0.2863 -0.1695 -0.3768
 8770W        W25244  10.985  13.278   0.230  0.4870  0.3399  0.1881
 8771W        W25245  16.251  11.900  11.193 -0.1416 -0.4442 -0.2013
 8772W        W25246  18.562  14.994   2.313 -0.0049  0.3068  0.2631
 8773W        W25247   7.034  19.505   3.659 -0.1507  0.1085 -0.0390
 8774W        W25248   9.683   0.373  12.164  0.2667 -0.0091 -0.0379
 8775W        W25249  10.657   9.180   0.794 -0.2204 -0.0007  0.1948
 8776W        W25250  10.936   6.434  11.355  0.2491 -0.0596 -0.1811
 8777W        W25251  11.441  16.144   2.349 -0.2139  0.0689  0.2039
 8778W        W25252  11.718  17.699  12.943 -0.0534  0.0744 -0.3902
 8779W        W25253   2.401   5.201  13.194 -0.2851 -0.0252  0.0282
 8780W        W25254  10.570   9.669  13.315  0.2726 -0.0229 -0.1209
 8781W        W25255  18.807   5.522  11.034 -0.0766 -0.0325  0.1538
 8782W        W25256  19.555   7.260   4.984 -0.3429  0.4444 -0.1598
 8783W        W25257  18.040  15.629   3.964 -0.3236 -0.1198  0.1271
 8784W        W25258   5.172   8.448  10.910 -0.0632 -0.3982  0.0462
 8785W        W25259  16.655   8.244   3.049 -0.1694 -0.0828 -0.0334
 8786W        W25260   1.727   4.271   4.407  0.1960 -0.2373  0.0366
 8787W        W25261  13.580  15.391   0.276 -0.1158  0.2373  0.1602
 8788W        W25262   7.391   9.461   2.665 -0.0845 -0.4498  0.1930
 8789W        W25263   1.172  17.605  12.347  0.2098 -0.0370 -0.2705
 8790W        W25264  12.271   5.945  14.201  0.3168 -0.0001  0.2446
 8791W        W25265   2.176   0.927   2.083  0.1875  0.0090 -0.1236
 8792W        W25266  12.620  14.270  13.771 -0.2034 -0.2436 -0.0038
 8793W        W25267  15.722  18.140  13.356  0.2035 -0.1095  0.0715
 8794W        W25268  10.460  14.554  14.349  0.1359 -0.1472 -0.0747
 8795W        W25269  11.066  17.888  14.046  0.1900 -0.2208 -0.0620
 8796W        W25270  13.306  12.147  14.460  0.0238 -0.0639  0.0128
 8797W        W25271  13.724   8.812  14.210  0.1387  0.3353 -0.1173
 8798W        W25272   7.747   5.217  10.693  0.1267 -0.2481 -0.1702
 8799W        W25273  10.924   6.055  13.245 -0.0941 -0.2050  0.1976
 8800W        W25274  10.814  11.519  10.734 -0.1552  0.1632 -0.2124
 8801W        W25275   1.442   2.785   9.370  0.0631 -0.1363 -0.1194
 8802W        W25276   3.924  16.751   3.221 -0.2579 -0.3036 -0.0223
 8803W        W25277  16.363   9.821   1.791 -0.2252  0.2277  0.0847
 8804W        W25278   9.082  18.871   0.661  0.0946  0.0456  0.1074
 8805W        W25279  12.050  15.916   2.574  0.2794 -0.2605  0.1581
 8806W        W25280  12.782  13.922  12.797  0.2416 -0.0364 -0.1075
 8807W        W25281   2.377  13.119   1.684  0.2233 -0.0749 -0.0281
 8808W        W25282   9.776  13.004  12.446 -0.2043 -0.0272 -0.0602
 8809W        W25283   9.172  12.533  14.371  0.1261 -0.1372 -0.3152
 8810W        W25284  15.579   0.645   2.918  0.2271 -0.0243 -0.2441
 8811W        W25285  10.903  11.247   3.210 -0.2308  0.3535 -0.0766
 8812W        W25286  10.917  19.549   0.088  0.0358 -0.0225  0.1539
 8813W        W25287   3.792   4.218   4.008  0.2338  0.0398 -0.1946
 8814W        W25288  17.560   3.353  13.483  0.0427  0.3139  0.1426
 8815W        W25289   8.687   7.338  12.602 -0.0597 -0.1758 -0.0007
 8816W        W25290   4.739  18.232   4.029  0.1535  0.0650  0.1062
 8817W        W25291  14.794   4.932   3.155 -0.4663  0.0158 -0.0202
 8818W        W25292  13.115   7.212   1.080 -0.0904  0.1822  0.0650
 8819W        W25293  17.328   8.944  14.342 -0.0656 -0.0688 -0.0679
 8820W        W25294  12.737   1.448  10.689 -0.0313  0.0558  0.0374
 8821W        W25295  11.603  15.618   0.267 -0.0823  0.0126 -0.3862
 8822W        W25296   9.927  15.490   2.334  0.1195 -0.2557 -0.1006
 8823W        W25297  11.146   4.600  10.467  0.1694 -0.0729 -0.2153
 8824W        W25298   5.258   6.047   4.739  0.1333 -0.0994  0.4312
 8825W        W25299   2.348   8.497  11.397 -0.1057  0.0753  0.0833
 8826W        W25300  12.931   9.156   0.970 -0.1628 -0.2208  0.2186
 8827W        W25301  13.748  11.391   3.259  0.0961 -0.0274 -0.0622
 8828W        W25302   2.701  14.421  11.985 -0.3208 -0.0083 -0.0659
 8829W        W25303  10.064  11.055   4.941 -0.4440  0.0791  0.0853
 8830W        W25304   4.192  13.321  13.461 -0.1871 -0.0162 -0.1348
 8831W        W25305  16.803   6.979  10.815 -0.2518 -0.0324  0.6071
 8832W        W25306  12.425   1.110   1.432  0.0765  0.0315 -0.2383
 8833W        W25307  17.276  17.090   1.050  0.0491  0.2046  0.2250
 8834W        W25308   6.305   9.172  13.056 -0.2081 -0.0748 -0.0332
 8835W        W25309   3.323  18.525  11.488 -0.3358  0.0646 -0.3567
 8836W        W25310  19.553   5.809  13.737 -0.4297  0.1569  0.0912
 8837W        W25311   4.799  11.268   2.146  0.0381 -0.3132 -0.0584
 8838W        W25312  14.242   3.904  10.457  0.0239 -0.0641 -0.1938
 8839W        W25313  13.958   4.390   3.940 -0.2664 -0.2266  0.0354
 8840W        W25314   8.265  14.868   3.919  0.3529  0.0090  0.1272
 8841W        W25315  14.428   7.330   5.215 -0.2218 -0.2376 -0.3294
 8842W        W25316   3.540  19.530   3.923 -0.0203 -0.3652  0.3062
 8843W        W25317   6.332   8.770  13.868  0.1515 -0.0944  0.3748
 8844W        W25318   1.511  14.815   3.400 -0.1252 -0.1114 -0.1373
 8845W        W25319   8.805   0.425   3.364  0.1107  0.0718 -0.3390
 8846W        W25320   2.542  17.380  12.409  0.1092  0.0884  0.3397
 8847W        W25321   7.520  16.320   0.431  0.2091 -0.0782 -0.0782
 8848W        W25322   4.631   2.935  10.392 -0.1201  0.3229  0.1083
 8849W        W25323  18.688   2.074   1.760  0.1674 -0.0055  0.0473
 8850W        W25324   4.379   4.005  14.118  0.1303 -0.0087 -0.0204
 8851W        W25325  16.011  12.016   0.381  0.0344 -0.2032  0.1031
 8852W        W25326   2.020   8.668  11.734  0.1364  0.0438  0.0663
 8853W        W25327  19.489  12.781  10.724 -0.1329 -0.1228  0.1974
 8854W        W25328  19.439  12.927  11.866 -0.0665  0.0588  0.0246
 8855W        W25329  17.874   6.023   4.164 -0.1267  0.1497 -0.1312
 8856W        W25330   2.710  13.681   4.549 -0.1203  0.1708  0.1110
 8857W        W25331  16.171   3.638   0.901 -0.1486  0.0027  0.0409
 8858W        W25332  16.282   7.797   3.808 -0.0481 -0.0309  0.1678
 8859W        W25333   0.936   2.381  12.669  0.1539  0.2132 -0.2522
 8860W        W25334   5.030  16.407   4.402  0.1117  0.3032 -0.3157
 8861W        W25335  11.662  15.480   4.883 -0.0592 -0.3680 -0.0989
 8862W        W25336   3.983  10.846  11.954 -0.2288 -0.0854 -0.0348
 8863W        W25337  14.975  17.525   1.723  0.2810 -0.0561 -0.4353
 8864W        W25338  19.192   8.769  13.852  0.2664 -0.0272  0.2350
 8865W        W25339   8.013   5.931  12.250  0.3521  0.0564 -0.0462
 8866W        W25340  14.429   8.428  12.978  0.1144  0.1911 -0.0526
 8867W        W25341   7.671  16.716  13.276  0.0996  0.1769  0.0234
 8868W        W25342   2.927  10.495  14.074 -0.1628  0.3757 -0.1512
 8869W        W25343  16.332  15.460   3.326  0.0410  0.0814 -0.1310
 8870W        W25344  10.002   1.187  13.782  0.2711 -0.1826 -0.0649
 8871W        W25345  14.275  15.173   0.798  0.0193 -0.1891  0.0080
 8872W        W25346   4.528  19.455  14.432  0.0974  0.0656  0.0743
 8873W        W25347   5.112   9.646  12.289  0.0330  0.0173 -0.0512
 8874W        W25348   7.679   7.588   3.367 -0.1006  0.1289 -0.1565
 8875W        W25349  12.420   1.978  13.287 -0.0606 -0.0824 -0.0740
 8876W        W25350  18.283  18.629  13.889 -0.1103 -0.2068 -0.2038
 8877W        W25351  13.802  11.457   0.137  0.0155 -0.0672  0.2199
 8878W        W25352   2.082   8.616   5.112 -0.0692 -0.1526  0.0563
 8879W        W25353   0.762  18.163   0.358  0.2200  0.1267 -0.2409
 8880W        W25354  16.762   2.745   0.978  0.2130  0.0230  0.1539
 8881W        W25355   9.016   6.907  13.030 -0.0504  0.1618 -0.1967
 8882W        W25356  15.881   5.631   1.076  0.3235 -0.2205 -0.0279
 8883W        W25357  15.665  14.851   3.646 -0.0281  0.3442  0.2004
 8884W        W25358   1.845  13.206   1.800 -0.2056  0.5876 -0.1026
 8885W        W25359  11.716  17.768  11.866  0.0392 -0.1356  0.0273
 8886W        W25360   3.130  14.409   4.576  0.0115 -0.0421 -0.1766
 8887W        W25361  13.830   5.397   4.816 -0.2438 -0.1318 -0.1579
 8888W        W25362   9.571  12.224  13.998  0.4307  0.1583 -0.1635
 8889W        W25363   9.804  11.382  12.849 -0.0098 -0.2056 -0.0165
 8890W        W25364   5.926  16.919  12.588 -0.0297  0.0431  0.0410
 8891W        W25365   5.127  14.438  12.446 -0.1515 -0.0095 -0.2652
 8892W        W25366   5.373  16.963   0.603  0.0954 -0.1127 -0.0217
 8893W        W25367   7.131  11.224  14.636 -0.0038 -0.1483 -0.1593
 8894W        W25368   9.208   7.345  12.774 -0.1187 -0.3776 -0.2388
 8895W        W25369  18.695  18.046   0.060  0.1903  0.0162  0.1716
 8896W        W25370   0.924   1.178   0.790  0.0484  0.0871  0.0871
 8897W        W25371  10.465  12.755  11.468 -0.0699  0.2955 -0.3167
 8898W        W25372   5.257  13.272  13.332  0.2781 -0.1238 -0.1189
 8899W        W25373  17.242  12.594  10.334  0.3139 -0.0742 -0.1618
 8900W        W25374  10.897   2.456  10.594 -0.0166  0.0103  0.1114
 8901W        W25375   1.712   0.053   0.829  0.1770  0.0253 -0.1664
 8902W        W25376   1.405   5.379   4.510  0.0159 -0.3469 -0.0029
 8903W        W25377  18.934  14.288   2.819 -0.0268  0.1534 -0.3436
 8904W        W25378  10.267  10.647  12.309  0.0947  0.1381 -0.0953
 8905W        W25379   2.050   2.789  10.680  0.1427  0.0004  0.0447
 8906W        W25380   1.713   2.869   1.849  0.0838  0.0683 -0.1954
 8907W        W25381  10.299  10.234   3.874  0.0718  0.2167 -0.0971
 8908W        W25382   4.292   5.049  10.312 -0.1604  0.0390 -0.0539
 8909W        W25383  18.517  12.356   3.265  0.0244 -0.0547 -0.0848
 8910W        W25384  18.054  15.919   1.300 -0.0901  0.0287 -0.2767
 8911W        W25385   2.235   5.604   2.767 -0.4126  0.1744 -0.2299
 8912W        W25386   0.348   7.574   1.310  0.0254 -0.0386  0.1509
 8913W        W25387  17.209   0.513  13.945  0.1862 -0.1351 -0.0556
 8914W        W25388   3.884  13.739   5.424  0.0702  0.1177  0.0183
 8915W        W25389   1.591   2.664  10.522  0.1394  0.0598  0.1796
 8916W        W25390  14.240  13.805   3.735 -0.2044 -0.0125  0.0381
 8917W        W25391  12.255  16.394   2.715  0.2039 -0.3467 -0.0977
 8918W        W25392  11.342   0.677   1.393 -0.1238 -0.2550 -0.0461
 8919W        W25393   4.245  11.833  12.818 -0.0708 -0.2426 -0.2541
 8920W        W25394   3.840   8.857  14.167 -0.1265 -0.2585 -0.3268
 8921W        W25395   3.132  11.285   3.110  0.1776 -0.1764  0.1255
 8922W        W25396   1.629  13.990  13.397  0.0494  0.0868  0.2164
 8923W        W25397   7.123  17.586   2.957  0.1015  0.0663 -0.1584
 8924W        W25398   2.897  12.593  12.360 -0.0302 -0.0371 -0.0618
 8925W        W25399  18.974   7.568   3.519  0.2482  0.1175 -0.3327
 8926W        W25400   1.509   6.577  10.550  0.3037 -0.2589 -0.0067
 8927W        W25401  13.252   5.879  11.911  0.2646 -0.0490  0.0633
 8928W        W25402  16.520   1.419   2.955  0.0300  0.2322 -0.1175
 8929W        W25403  19.442  13.442  14.160 -0.0989 -0.0447 -0.2803
 8930W        W25404   0.367  17.805   2.067  0.1792 -0.2910  0.0566
 8931W        W25405  17.951   1.039   2.581  0.3400 -0.1132  0.0393
 8932W        W25406   0.133  17.308  10.619  0.1121  0.1661  0.0297
 8933W        W25407   3.094   9.081   4.620 -0.3174 -0.0107  0.2419
 8934W        W25408   1.823  11.897  11.803  0.2429  0.0025 -0.0663
 8935W        W25409  15.098   2.364   3.134  0.0619 -0.1297  0.0198
 8936W        W25410  12.430  11.860   0.223  0.1108  0.1441 -0.0004
 8937W        W25411   2.559  16.910   4.510 -0.0405 -0.0843 -0.2647
 8938W        W25412  19.205   3.844   4.661 -0.1091  0.2346  0.3452
 8939W        W25413  10.434  12.896  13.284  0.0362  0.0422  0.0943
 8940W        W25414   2.555   0.856  10.604  0.0851 -0.4951 -0.0623
 8941W        W25415   1.981   2.411   1.740  0.0705  0.0317  0.2867
 8942W        W25416   6.530  13.112  12.470  0.0131 -0.3023  0.2172
 8943W        W25417   8.616   7.034  11.530  0.3745 -0.5038  0.1554
 8944W        W25418  10.982  11.020   1.744  0.1001  0.3403 -0.1917
 8945W        W25419   2.980   4.451  12.111  0.2360 -0.1732  0.1789
 8946W        W25420   5.448   2.558   4.250 -0.0053  0.3886  0.1731
 8947W        W25421   1.882  19.185   3.208  0.4735  0.1010 -0.0628
 8948W        W25422  16.656  12.755   3.849 -0.0728  0.3330  0.1165
 8949W        W25423  12.863  10.715   0.001  0.1859  0.0643 -0.0431
 8950W        W25424   9.097   0.975   2.647  0.0076  0.0067 -0.0999
 8951W        W25425   0.038   3.190  14.559 -0.0662  0.1085 -0.2630
 8952W        W25426   5.789  10.379  12.001 -0.0764  0.1892  0.0433
 8953W        W25427  15.180   9.930   2.421 -0.1299  0.1703 -0.0890
 8954W        W25428   8.297   4.404   0.237  0.0051 -0.0667 -0.0630
 8955W        W25429  18.307   4.702   3.201 -0.0327  0.0266  0.2222
 8956W        W25430  14.647   7.437   1.168  0.0897 -0.3016 -0.0227
 8957W        W25431  12.602   3.051   3.511 -0.0094  0.2055  0.2567
 8958W        W25432   6.132   5.087   0.461 -0.0847 -0.3612  0.0320
 8959W        W25433   0.597  15.777  11.877  0.1170 -0.0366  0.1618
 8960W        W25434  10.885   2.059   1.447  0.0159  0.0048 -0.0771
 8961W        W25435   2.535   6.612   3.569  0.0822  0.1088 -0.0944
 8962W        W25436  15.645  15.955   9.629  0.0996  0.0107 -0.1043
 8963W        W25437   5.016  11.487   2.642 -0.5461  0.1974 -0.2188
 8964W        W25438   1.903   3.868   0.114  0.1141  0.0741 -0.1706
 8965W        W25439  12.885  14.492   0.041 -0.0785  0.0544 -0.0978
 8966W        W25440  15.759   3.339   0.910  0.0988  0.1741  0.1328
 8967W        W25441   0.000   3.102  11.421 -0.4111  0.1398  0.1479
 8968W        W25442   2.721   5.537  11.210 -0.3290  0.2181 -0.2118
 8969W        W25443   4.510  17.474  14.070  0.1336 -0.1439  0.0288
 8970W        W25444   7.848  13.972   5.130 -0.1160 -0.2397  0.0333
 8971W        W25445   2.467   8.040  11.590 -0.0043  0.2336 -0.2064
 8972W        W25446   6.077   5.196   1.648 -0.0428 -0.0063 -0.0178
 8973W        W25447  11.942   6.969  12.920 -0.0009 -0.1235 -0.1586
 8974W        W25448   5.152   8.380   0.630 -0.0533 -0.0817  0.2851
 8975W        W25449  19.189  13.845  14.237 -0.0152 -0.2519 -0.1283
 8976W        W25450  13.535   9.395   0.171  0.0049  0.2075  0.1577
 8977W        W25451   6.654   9.427   4.560  0.2333  0.1299  0.1638
 8978W        W25452   1.240   8.571   1.736  0.3006 -0.1102  0.0462
 8979W        W25453   6.892  12.267   2.137 -0.3425  0.0312  0.0885
 8980W        W25454   4.249   6.386   2.027 -0.0415 -0.2319 -0.1626
 8981W        W25455  14.373  13.410  11.955 -0.1378  0.3717  0.0061
 8982W        W25456   2.792   7.209   1.652  0.2322  0.1631  0.2151
 8983W        W25457   4.585   7.256   3.109 -0.1599 -0.1978 -0.0188
 8984W        W25458  16.997   1.106   5.333 -0.0376 -0.4133  0.1833
 8985W        W25459   0.147  17.294   0.388  0.1575  0.2357 -0.0299
 8986W        W25460  15.129   7.185   1.380 -0.3250 -0.1273  0.1026
 8987W        W25461   1.866  19.099  12.188  0.0484 -0.1371 -0.2016
 8988W        W25462   8.168  10.971  13.570  0.3764  0.1984  0.0671
 8989W        W25463  15.260  12.425   4.371  0.1106 -0.0512  0.1425
 8990W        W25464  14.388  14.864   2.163  0.0185 -0.4495 -0.1615
 8991W        W25465   1.720  18.017   5.254 -0.0300 -0.2946 -0.1589
 8992W        W25466  12.828  18.558   3.033  0.0030  0.2352  0.1676
 8993W        W25467   7.800  13.388   3.197 -0.0660  0.3629  0.0432
 8994W        W25468  14.259   3.787  13.293  0.2112 -0.0127  0.1323
 8995W        W25469  13.343   8.239   3.716  0.1345 -0.2331 -0.0874
 8996W        W25470  12.389  17.294   3.350 -0.0409  0.0326  0.5372
 8997W        W25471   1.474   0.304  12.644  0.0613 -0.7352 -0.1958
 8998W        W25472   6.053  18.226   0.250 -0.0140 -0.1270  0.1561
 8999W        W25473   5.255   4.432  13.061 -0.0826  0.2448 -0.1419
 9000W        W25474   4.887  16.920  10.791  0.0266  0.0062  0.1564
 9001W        W25475  10.888   0.606  13.770  0.1434 -0.0287 -0.0930
 9002W        W25476  16.975   8.326  11.518 -0.3023  0.3466  0.2435
 9003W        W25477  17.351  16.519   0.521  0.1422 -0.3260 -0.0208
 9004W        W25478   6.100   6.999   3.410 -0.2064 -0.3002 -0.1667
 9005W        W25479  11.939   1.194  11.204  0.1322 -0.0433 -0.1758
 9006W        W25480   9.928  12.025  13.066  0.4772  0.2105 -0.0617
 9007W        W25481   9.222  19.501   2.344 -0.1905  0.0739 -0.1925
 9008W        W25482   9.962  18.151  13.488 -0.1162 -0.0818  0.1213
 9009W        W25483   0.567   5.674  10.447 -0.2012 -0.1100  0.1069
 9010W        W25484  10.095   2.498  14.431 -0.3548 -0.2051  0.0301
 9011W        W25485   1.786  13.154   0.533  0.1761 -0.2557 -0.1506
 9012W        W25486   2.978   2.275  14.182 -0.0974  0.1493 -0.0649
 9013W        W25487   4.143  17.893   2.332  0.0283  0.0418 -0.1022
 9014W        W25488   6.811   0.287  10.832  0.1033  0.1479  0.0491
 9015W        W25489   5.382   6.155  14.245 -0.2267  0.2195  0.0559
 9016W        W25490  14.275   4.244   5.228  0.0263  0.0403 -0.2442
 9017W        W25491  10.950   1.004  13.413  0.0056  0.1181  0.2020
 9018W        W25492   3.631   7.319   2.975  0.3050 -0.0912 -0.0558
 9019W        W25493   0.978   8.871  13.943  0.2146 -0.0941 -0.1370
 9020W        W25494   4.217   8.244   1.962  0.0950  0.0077 -0.1289
 9021W        W25495  15.642   9.166   0.572  0.1216  0.2827 -0.2667
 9022W        W25496  10.248   2.964  13.518 -0.0665 -0.3168  0.1150
 9023W        W25497   5.507   6.494   0.201 -0.1660 -0.0933 -0.0891
 9024W        W25498  17.326  13.277  10.030 -0.1101 -0.0929 -0.4376
 9025W        W25499   4.412  10.643   1.471 -0.0534  0.1764  0.1504
 9026W        W25500   7.929  10.483  12.515  0.1534  0.3393 -0.1262
 9027W        W25501   0.717  13.846   1.422 -0.1023 -0.0512  0.4498
 9028W        W25502  11.231   7.334  11.260 -0.0629  0.1467  0.1717
 9029W        W25503   8.866  10.723  13.933 -0.0855  0.3662  0.0393
 9030W        W25504  10.342   0.421  10.306  0.0949  0.2771 -0.2346
 9031W        W25505  17.688  17.769   2.050  0.1994 -0.0412 -0.0033
 9032W        W25506   2.463  12.091   0.691 -0.2355  0.0371  0.2005
 9033W        W25507  16.334  17.482   5.166 -0.0166 -0.0718  0.1036
 9034W        W25508  18.311  14.636   4.178 -0.0835  0.1354 -0.1703
 9035W        W25509   9.077  17.946  11.321 -0.2301  0.0382 -0.2202
 9036W        W25510   6.479  18.945   0.900  0.2196 -0.0552 -0.1460
 9037W        W25511  16.924  15.861  13.499 -0.2046 -0.2289 -0.2299
 9038W        W25512  12.564  10.174   1.691 -0.0936  0.2295  0.1684
 9039W        W25513  10.765  14.862   1.148 -0.1511  0.1788 -0.0518
 9040W        W25514  17.833   2.543   1.957 -0.0788  0.0750 -0.2131
 9041W        W25515   7.417   0.961   2.417 -0.1435  0.2084 -0.0897
 9042W        W25516   4.573   3.503   0.851  0.0029 -0.0420 -0.2152
 9043W        W25517   6.933   0.425   3.736 -0.1648 -0.0862 -0.0372
 9044W        W25518  18.691  19.008   3.985 -0.0543  0.1893  0.0622
 9045W        W25519  15.138  14.942   0.599  0.0919  0.1349  0.2491
 9046W        W25520   3.398   8.345   4.141 -0.0114 -0.1095  0.1993
 9047W        W25521  14.338  10.785   1.660 -0.1533 -0.2702 -0.2293
 9048W        W25522   3.924   1.939   4.687  0.1617  0.2455 -0.2791
 9049W        W25523   3.051  11.572  10.020  0.0347 -0.0451  0.0580
 9050W        W25524  15.866   5.649  12.746 -0.1293 -0.0441 -0.2528
 9051W        W25525  18.372   2.881   4.959 -0.0726 -0.3199  0.2768
 9052W        W25526  11.883  19.592   3.654 -0.2129 -0.0589  0.3792
 9053W        W25527   8.386   9.506   3.570 -0.1780  0.0175 -0.0649
 9054W        W25528   6.983   9.088   1.948 -0.1287 -0.0427 -0.1076
 9055W        W25529  11.667  16.686   3.686  0.1458  0.3630  0.2736
 9056W        W25530   3.719   0.620  11.611 -0.0372  0.1160  0.1111
 9057W        W25531  16.480   4.033  14.105 -0.0301  0.0037  0.2616
 9058W        W25532   1.328   8.224  11.284 -0.0216 -0.2818 -0.4070
 9059W        W25533   1.006  14.706   2.664 -0.2188 -0.0764  0.2732
 9060W        W25534  13.389   1.466  10.002  0.0233 -0.4711 -0.2016
 9061W        W25535  15.421  18.258  13.715 -0.3549 -0.2066 -0.0176
 9062W        W25536  16.052  14.599   3.239 -0.0284 -0.2261 -0.1247
 9063W        W25537  18.793   2.785  10.483 -0.0329  0.0297  0.3548
 9064W        W25538   7.176  17.973  14.243  0.1765 -0.1340  0.1424
 9065W        W25539   2.006  14.293  12.024  0.0669 -0.2355  0.1384
 9066W        W25540   5.254  15.167   3.816 -0.2326 -0.1634 -0.0808
 9067W        W25541  16.920   9.543  14.424  0.0824 -0.0456 -0.1791
 9068W        W25542  16.163   6.082  12.947 -0.1489 -0.3483 -0.1061
 9069W        W25543  16.075   6.873   4.078  0.3964 -0.0241  0.3880
 9070W        W25544  13.633  17.166   4.100  0.0196  0.3478  0.3499
 9071W        W25545   0.714  16.272   0.548  0.2562 -0.1872  0.0188
 9072W        W25546  19.071   9.670   0.055 -0.0516 -0.1387  0.3458
 9073W        W25547   3.797   5.080   3.584  0.0408  0.0250 -0.1427
 9074W        W25548  13.019  10.169  10.511 -0.1977  0.3046 -0.0219
 9075W        W25549   3.636  17.845  10.455  0.2788 -0.3487 -0.1680
 9076W        W25550  14.015  17.728  14.418 -0.0275 -0.2308  0.2592
 9077W        W25551   5.643  14.858   1.219  0.0127  0.1126  0.0636
 9078W        W25552   0.682   8.612   3.997 -0.1690 -0.2653 -0.3102
 9079W        W25553   7.235   9.380  10.419  0.2417 -0.1107 -0.1999
 9080W        W25554  16.403   1.751  10.414 -0.4181 -0.1098  0.1645
 9081W        W25555   6.203   5.964  12.426  0.2003 -0.4017 -0.0665
 9082W        W25556  12.811  11.104   3.989 -0.1220 -0.1917 -0.0160
 9083W        W25557  17.755   3.730   5.379  0.0247 -0.3024 -0.1723
 9084W        W25558  16.347   1.925  12.433  0.0553 -0.0753 -0.0533
 9085W        W25559   1.933   7.419   0.762 -0.3933  0.1254  0.4011
 9086W        W25560   2.682  15.627   0.663  0.0174  0.0585 -0.3328
 9087W        W25561   7.086   2.514   2.589  0.1112 -0.1017  0.1510
 9088W        W25562   1.193   9.360  13.847 -0.2293 -0.0151 -0.0345
 9089W        W25563  12.188   6.346  12.005 -0.0303 -0.1776  0.0536
 9090W        W25564  13.440   7.700   1.084  0.0239  0.0426 -0.2920
 9091W        W25565  16.947   8.590   3.900  0.3487 -0.1098 -0.0924
 9092W        W25566  17.299  15.147   1.764  0.0310 -0.2049 -0.2089
 9093W        W25567  17.345  13.708   1.672  0.1928  0.1370  0.1820
 9094W        W25568   7.430  17.703   3.472  0.1295 -0.0286  0.3207
 9095W        W25569   8.685  13.715   0.112 -0.2270 -0.0107 -0.0576
 9096W        W25570   9.305  14.736   4.930  0.2680  0.1064  0.1318
 9097W        W25571  16.954   1.531  10.586  0.2329 -0.1043  0.1640
 9098W        W25572  16.378  13.255  13.033  0.1418  0.1603  0.2165
 9099W        W25573  19.498  11.246  13.807 -0.0888 -0.0781 -0.2111
 9100W        W25574   8.374  14.320   1.035  0.1337 -0.2137 -0.1719
 9101W        W25575   2.977   3.333   1.803  0.1837  0.0876 -0.0504
 9102W        W25576   9.556  12.667   5.206  0.3325 -0.0746 -0.0038
 9103W        W25577   6.205   7.896   0.310 -0.0042 -0.1344 -0.0805
 9104W        W25578   3.918   7.522   4.254  0.3393  0.1876 -0.1312
 9105W        W25579   0.454   0.159  14.219  0.0357 -0.0372  0.0018
 9106W        W25580  16.339   7.045  14.350  0.0971 -0.1467 -0.4385
 9107W        W25581   9.533   4.463   0.876  0.1393  0.0305 -0.2551
 9108W        W25582   5.060  17.189   0.175 -0.1804  0.3422  0.0881
 9109W        W25583   1.761   8.574  12.247 -0.0806  0.0742 -0.1874
 9110W        W25584  13.253   4.888   9.122 -0.1347 -0.0100 -0.0180
 9111W        W25585   8.928   1.365  14.352 -0.4314  0.3433  0.1770
 9112W        W25586   1.375   2.539   2.777  0.1265 -0.0649 -0.0904
 9113W        W25587   4.879   2.045   1.873 -0.1834  0.2431  0.1639
 9114W        W25588  10.074  18.451  11.876 -0.1396 -0.2200 -0.1384
 9115W        W25589  15.768   0.067   1.186 -0.0539  0.0014 -0.0923
 9116W        W25590  12.403  14.756   0.060 -0.1191  0.0490  0.1174
 9117W        W25591  15.991  15.236  11.255 -0.0096 -0.0490  0.1499
 9118W        W25592   7.878  12.328   1.451  0.0272  0.1438 -0.0245
 9119W        W25593  15.005   5.080   4.386 -0.1497 -0.0316  0.1522
 9120W        W25594  12.611   7.473   1.374 -0.0168  0.2002 -0.0159
 9121W        W25595   5.087   6.709  12.324 -0.3676  0.0814 -0.2308
 9122W        W25596  19.382   0.608   4.309  0.1243  0.1192 -0.1161
 9123W        W25597  12.098  14.909  10.050 -0.1296  0.0749 -0.1077
 9124W        W25598  17.531   3.920  14.133 -0.3004  0.0411  0.1778
 9125W        W25599  12.755   2.292   3.135 -0.1945 -0.1001  0.0804
 9126W        W25600  13.232   8.442   4.392 -0.1352  0.0242  0.3619
 9127W        W25601   2.993   7.423  11.094  0.0245 -0.1040 -0.1962
 9128W        W25602   6.304  17.051  10.857  0.0216  0.1662  0.1105
 9129W        W25603   3.203   2.225  11.379 -0.0927 -0.1043 -0.2701
 9130W        W25604  13.875  10.060  12.159  0.0432 -0.2297 -0.0079
 9131W        W25605  10.368   4.801   2.526 -0.2288 -0.0406 -0.2901
 9132W        W25606   1.784   4.073  10.230  0.1399  0.0382  0.0182
 9133W        W25607   3.954  10.133  10.305 -0.0346 -0.1045 -0.2113
 9134W        W25608  10.689  12.651  14.233  0.2997 -0.4019 -0.0150
 9135W        W25609  13.957  14.191  12.370 -0.1662  0.0612 -0.1384
 9136W        W25610  15.182   6.715   0.797 -0.1169  0.0071 -0.0825
 9137W        W25611   1.640   4.206  11.594  0.0846  0.3243  0.1966
 9138W        W25612  19.589   7.838  10.377  0.4190 -0.2076 -0.0345
 9139W        W25613  17.393  16.530   2.228 -0.3684 -0.0183 -0.0893
 9140W        W25614   7.664   8.751   3.898  0.0173 -0.0643 -0.1440
 9141W        W25615  10.591   5.233  10.597  0.3597 -0.0242  0.0499
 9142W        W25616   5.347   9.916   4.391 -0.3478  0.0031 -0.1894
 9143W        W25617  18.031  16.025   0.762  0.0431  0.1059 -0.0809
 9144W        W25618  17.306   9.655  12.175 -0.2069  0.3485  0.2970
 9145W        W25619   1.548  10.210   0.157 -0.0126  0.0513 -0.0460
 9146W        W25620   8.128   9.630   2.072 -0.0666  0.1251 -0.2557
 9147W        W25621   3.937   6.609   0.964  0.1307  0.2855  0.1531
 9148W        W25622  14.282   0.776   9.933  0.0070 -0.0063 -0.1561
 9149W        W25623   7.451  13.336   1.361  0.1441 -0.1460  0.0379
 9150W        W25624  14.975  13.554   0.260 -0.1256  0.1468 -0.0454
 9151W        W25625   8.055   6.744  12.634  0.1339 -0.0384  0.2858
 9152W        W25626  10.381   5.757   4.642  0.3907 -0.1945  0.2670
 9153W        W25627  16.958  12.654   4.634  0.2506  0.2364  0.3575
 9154W        W25628  12.603   9.093   0.033  0.1399 -0.2785  0.1972
 9155W        W25629   3.318  11.286   2.156 -0.1595 -0.0272 -0.1423
 9156W        W25630   8.793   0.339  13.567 -0.1559  0.4117  0.1223
 9157W        W25631   2.684  13.398   3.907  0.1421 -0.0847 -0.1964
 9158W        W25632   0.180   1.222  13.065 -0.0804 -0.0261  0.0425
 9159W        W25633  17.005   6.772   2.989  0.1328 -0.1669  0.1370
 9160W        W25634   1.171  15.122   2.379 -0.0918  0.0606  0.0957
 9161W        W25635   3.452  15.974  12.435  0.3161  0.0040  0.1309
 9162W        W25636   0.255   0.316   1.207  0.1643  0.1445 -0.1404
 9163W        W25637   9.876  17.617   2.978  0.0587  0.0043 -0.2616
 9164W        W25638   3.382   3.560   1.521 -0.5124 -0.2336  0.1141
 9165W        W25639   0.266  16.545   2.044  0.2666 -0.0407 -0.0360
 9166W        W25640   4.381  10.910  12.953 -0.2712  0.0425 -0.0781
 9167W        W25641  19.180  16.373   3.821 -0.0006 -0.0407 -0.0674
 9168W        W25642  19.079   6.341  11.089  0.0623 -0.2750  0.2964
 9169W        W25643   2.566  19.580  11.610  0.1013  0.0915 -0.4720
 9170W        W25644  19.308   8.769  12.115  0.1510  0.5151  0.1620
 9171W        W25645  18.509  10.234   4.678  0.1555 -0.1684 -0.0678
 9172W        W25646  11.283  17.211  12.320  0.1781  0.0581  0.0807
 9173W        W25647   3.829   2.919   2.637  0.0452 -0.3492 -0.3317
 9174W        W25648   2.530   7.067   0.471 -0.3455  0.1615  0.1417
 9175W        W25649  11.722   2.728   0.061 -0.0381  0.0361  0.1132
 9176W        W25650  18.927   5.885  13.643  0.0676 -0.4060  0.1821
 9177W        W25651  15.405   0.120   3.339 -0.0634  0.0134 -0.1281
 9178W        W25652  18.379  15.410   2.449  0.0122 -0.2896  0.1877
 9179W        W25653   8.611   5.188   1.115 -0.0607 -0.0235  0.2476
 9180W        W25654  10.330   7.728  13.886  0.0865 -0.3673 -0.2298
 9181W        W25655  14.892  15.465   3.778  0.0977  0.0925  0.1776
 9182W        W25656  18.108   0.789  14.467 -0.1568  0.0438  0.2449
 9183W        W25657   1.659   4.121  10.774  0.0619  0.2139 -0.1278
 9184W        W25658   8.114  16.545   1.801 -0.0558  0.2988  0.0957
 9185W        W25659   9.604  16.449  12.254 -0.0888  0.1115  0.0773
 9186W        W25660   6.722  16.184  14.414 -0.2664 -0.1655 -0.0695
 9187W        W25661   8.680  10.804   1.117  0.0582 -0.1793 -0.2432
 9188W        W25662   0.390  13.259  11.350  0.1905  0.2627  0.0236
 9189W        W25663   7.702  13.378  14.606 -0.1827  0.0497  0.2240
 9190W        W25664   4.001  16.838  13.288 -0.1731  0.1533 -0.0193
 9191W        W25665   6.085  10.625  10.738 -0.2725  0.0518 -0.3014
 9192W        W25666  16.059   4.925  12.124 -0.2328 -0.0543 -0.0346
 9193W        W25667   0.831  11.580  10.860 -0.2293 -0.3122 -0.2185
 9194W        W25668   0.151   6.675  11.927 -0.0108  0.0030 -0.0736
 9195W        W25669  18.621  12.193   2.452  0.0669 -0.0488  0.2222
 9196W        W25670  15.508  18.810  10.942  0.4042 -0.0307 -0.0497
 9197W        W25671   2.759  14.198   4.368  0.0961 -0.1854  0.0428
 9198W        W25672   5.821   7.390  14.547  0.2192  0.1977 -0.2052
 9199W        W25673   6.041   7.735  12.605  0.2673 -0.2729 -0.3505
 9200W        W25674  18.504  19.096   2.856  0.0358  0.2104 -0.1910
 9201W        W25675  11.704   6.948   0.713  0.3195  0.0917 -0.0633
 9202W        W25676  17.376   8.110  14.017 -0.1824  0.1146 -0.0175
 9203W        W25677  11.146  15.655  14.009  0.2246 -0.1940  0.0547
 9204W        W25678   4.915  17.986  11.432 -0.1184 -0.0211  0.1081
 9205W        W25679  10.790   6.572   4.263 -0.0353 -0.0336  0.3548
 9206W        W25680  16.369   6.551  10.651 -0.3267 -0.0118  0.2938
 9207W        W25681  13.261  13.250   2.290 -0.1566 -0.2822 -0.3017
 9208W        W25682   7.714   8.563   0.171 -0.1198 -0.3590 -0.0402
 9209W        W25683   9.647  14.272   4.511  0.2552  0.1158 -0.1039
 9210W        W25684   6.020   1.562   4.124 -0.2218  0.2720 -0.2015
 9211W        W25685   1.289  13.101   2.439  0.0817  0.3876  0.0194
 9212W        W25686  18.527  13.763  12.530 -0.1148 -0.0361  0.0306
 9213W        W25687   9.126  19.432   0.478  0.1996  0.2668  0.1569
 9214W        W25688  16.445  17.588   4.188 -0.1552  0.1334 -0.0155
 9215W        W25689   1.160  10.697   0.286 -0.0936  0.3876  0.3533
 9216W        W25690   9.575  16.485   5.395 -0.1443  0.4190  0.2342
 9217W        W25691  16.196  10.530  12.893 -0.3566  0.1929  0.0341
 9218W        W25692   9.882   3.502  11.988 -0.1837 -0.1981 -0.0837
 9219W        W25693  10.508   4.614   0.790  0.2100  0.1980  0.2869
 9220W        W25694   5.585   2.535   3.674  0.1427 -0.2523  0.4382
 9221W        W25695  14.057   9.507   3.663  0.2761  0.1029  0.1035
 9222W        W25696  15.831  13.297   0.015 -0.0231 -0.0566 -0.0387
 9223W        W25697  14.598  13.393  13.339 -0.2897 -0.1812 -0.1410
 9224W        W25698  12.166  10.595  12.821 -0.0520 -0.1746  0.0044
 9225W        W25699  15.765  16.212   2.568  0.0671 -0.1334 -0.3985
 9226W        W25700  17.811  16.985  12.231  0.3814 -0.1591 -0.1315
 9227W        W25701   5.582  19.043  10.752 -0.0602 -0.0935 -0.1183
 9228W        W25702   0.072   0.134   3.600  0.1083  0.1026  0.0014
 9229W        W25703  13.154   3.977  10.695  0.1040  0.3091  0.0764
 9230W        W25704  12.807   1.242  14.512 -0.1770  0.3089 -0.3152
 9231W        W25705  15.646   3.295   2.942  0.1521 -0.2712  0.3386
 9232W        W25706  15.124   9.960  13.812  0.0043  0.1257 -0.1648
 9233W        W25707  14.793   1.497   2.550  0.0606 -0.1535  0.1939
 9234W        W25708  12.073   7.298  10.092  0.0721 -0.0134  0.1638
 9235W        W25709   9.566   4.655  11.977 -0.1867  0.4178 -0.1826
 9236W        W25710   0.849  14.990   4.194  0.0651  0.1719 -0.2816
 9237W        W25711  11.646   4.108   4.382 -0.1007  0.1810 -0.0907
 9238W        W25712   5.626   1.546   2.872  0.1343 -0.4058 -0.1026
 9239W        W25713  16.826   5.205  11.217  0.1428 -0.0823  0.1160
 9240W        W25714  18.636  14.370  12.319 -0.1341  0.1962  0.0187
 9241W        W25715   0.262  17.595   1.613  0.0128  0.3154  0.1979
 9242W        W25716  14.247  14.484   4.721  0.0597 -0.0330 -0.2419
 9243W        W25717   4.402  19.309   0.663  0.2573 -0.1830  0.0612
 9244W        W25718  10.013   0.632   0.848  0.0226 -0.1838 -0.2191
 9245W        W25719  12.046   4.487  10.845 -0.1968 -0.2356 -0.3952
 9246W        W25720   5.406   9.144   4.020 -0.2155 -0.2268  0.1599
 9247W        W25721   1.777  16.240  12.823  0.2405 -0.4300 -0.1895
 9248W        W25722  15.297  13.247   0.099  0.0343  0.2813  0.4087
 9249W        W25723   4.185   4.697   2.045  0.0786 -0.2134 -0.0466
 9250W        W25724   5.640  14.996   2.684  0.2561  0.0393  0.1495
 9251W        W25725  16.071  12.799  13.345 -0.0878  0.0479  0.2018
 9252W        W25726  11.006   0.867   5.264 -0.1195 -0.0152 -0.0897
 9253W        W25727  18.284   5.621   2.728  0.1837  0.0473  0.2520
 9254W        W25728  12.484  15.718   4.720 -0.3890 -0.3110  0.1508
 9255W        W25729  19.473  13.752   3.968 -0.0400  0.2167 -0.4109
 9256W        W25730   1.442  10.699  10.232  0.0948  0.1392  0.3422
 9257W        W25731   4.686   4.220   0.126 -0.0326 -0.2724  0.1108
 9258W        W25732   7.391  17.896   3.932 -0.1067  0.0160 -0.0340
 9259W        W25733   2.776   0.156   8.684  0.2170  0.2955 -0.0608
 9260W        W25734   7.958   8.693   4.341  0.4196  0.2291  0.3392
 9261W        W25735  19.401   1.046  10.527  0.0366 -0.1593  0.0238
 9262W        W25736   0.751  13.128   1.814 -0.0832  0.0675  0.0560
 9263W        W25737  13.242   1.721   0.273 -0.3999 -0.1595  0.0484
 9264W        W25738   2.079  12.504   2.612  0.0385  0.3874 -0.3112
 9265W        W25739   2.645   4.283   0.714  0.2259 -0.1905  0.2301
 9266W        W25740   0.313  12.761   1.507  0.1493 -0.1447 -0.0561
 9267W        W25741   0.671  17.130  11.382 -0.1827 -0.3899 -0.2638
 9268W        W25742   9.412  17.778   2.994  0.2301 -0.0536  0.2340
 9269W        W25743  18.704  19.527  10.132  0.4126 -0.0458  0.1696
 9270W        W25744  12.889   6.778  13.413 -0.1356 -0.0535  0.0816
 9271W        W25745  15.736   2.572   1.654 -0.1935 -0.3414  0.0361
 9272W        W25746   7.923   8.590   1.217 -0.0041 -0.0490 -0.0524
 9273W        W25747  19.423   6.615  10.543  0.1176  0.2020 -0.0158
 9274W        W25748  15.472   8.672  12.556  0.2292 -0.2826  0.0017
 9275W        W25749  17.693  16.244   1.139 -0.1624 -0.1096  0.2229
 9276W        W25750   0.757  17.773   0.009  0.1695 -0.0690 -0.2964
 9277W        W25751  11.753  16.977   3.312  0.2212 -0.0935 -0.2849
 9278W        W25752  14.100   3.163   2.784 -0.1311  0.3902  0.0063
 9279W        W25753  14.107  18.889   0.605  0.0661  0.0596 -0.0136
 9280W        W25754  19.146   8.621  10.326  0.2273  0.0755 -0.1630
 9281W        W25755   0.760  18.802   2.786 -0.2242  0.2892 -0.2676
 9282W        W25756   9.326   8.731   2.026  0.0226  0.0755  0.0068
 9283W        W25757   2.380   6.732   2.235 -0.0832  0.1235 -0.3941
 9284W        W25758   2.785  11.322   4.276 -0.1578 -0.1726 -0.2824
 9285W        W25759  17.494  11.322  11.398  0.0157  0.1612  0.0827
 9286W        W25760   0.785   1.565  14.326 -0.2005 -0.1963  0.1187
 9287W        W25761  11.666  19.594   0.610  0.0212  0.1012 -0.2622
 9288W        W25762   1.991  15.493  13.806 -0.1676  0.2487 -0.0647
 9289W        W25763   9.033   7.909  13.039 -0.0712 -0.1091  0.2026
 9290W        W25764   3.753  15.672  13.363 -0.0031  0.0747 -0.1094
 9291W        W25765  16.162  17.483   1.928 -0.1354  0.3565  0.0657
 9292W        W25766   8.538   3.549   4.840  0.1776 -0.2198 -0.2288
 9293W        W25767  14.767  12.104   2.977  0.0297 -0.2519 -0.1068
 9294W        W25768  11.713  13.377  11.352  0.0850 -0.1484  0.1457
 9295W        W25769   5.986  10.727  12.408 -0.1716 -0.1482  0.0677
 9296W        W25770  10.073   4.766  14.072 -0.1173 -0.0527  0.0912
 9297W        W25771  13.779   7.680   2.931 -0.2556 -0.1235 -0.4632
 9298W        W25772  13.251   3.997  12.638 -0.0771 -0.0452 -0.0088
 9299W        W25773  13.945  13.754  10.945 -0.0451  0.3513  0.1016
 9300W        W25774  11.969  12.982   2.096  0.2234  0.1393  0.0573
 9301W        W25775   9.540  10.164  14.340 -0.1502  0.0903 -0.1082
 9302W        W25776  13.652   1.630   1.649  0.1225 -0.1368  0.0229
 9303W        W25777   6.332  18.046  13.115  0.3123  0.0018 -0.2675
 9304W        W25778   8.820  15.615   3.742  0.0349  0.1970  0.0352
 9305W        W25779   1.017  12.526  11.145 -0.1576  0.2052 -0.1690
 9306W        W25780  11.139  13.813   3.170  0.3068 -0.1461  0.0923
 9307W        W25781  13.263  16.971   9.672  0.0073  0.2278 -0.0208
 9308W        W25782   4.816   6.332   5.100 -0.2222 -0.2286 -0.3711
 9309W        W25783  19.231  19.425   0.052  0.0769 -0.0385 -0.2310
 9310W        W25784   3.558   4.436  14.162 -0.0076  0.1516 -0.0398
 9311W        W25785  17.742  15.882   1.670  0.1222  0.4688 -0.3326
 9312W        W25786  15.607   0.930  11.275  0.1282  0.5314  0.2599
 9313W        W25787   8.123  10.218   0.956 -0.0303  0.0462  0.2215
 9314W        W25788  10.111   3.022  11.225 -0.1016 -0.3259 -0.0406
 9315W        W25789   5.527   7.412  12.481 -0.4194 -0.0748  0.0688
 9316W        W25790   9.564   4.954   1.497 -0.1466  0.2460  0.2306
 9317W        W25791  14.867  16.385  10.941  0.1779 -0.1357 -0.0198
 9318W        W25792  14.630  17.272  11.470 -0.1339  0.0647  0.3428
 9319W        W25793  19.246  15.932   3.437 -0.2275 -0.2507  0.0889
 9320W        W25794   5.970  17.363   2.607 -0.0419  0.1300 -0.2592
 9321W        W25795  18.680  18.111   0.577  0.2373  0.0144 -0.0818
 9322W        W25796  18.798  19.606  11.581  0.3087  0.0154  0.3249
 9323W        W25797  17.934  17.246   0.846 -0.1475 -0.0024  0.1663
 9324W        W25798   5.982   7.257  12.683 -0.1016  0.4817  0.1708
 9325W        W25799  11.695   4.051   0.366  0.2171 -0.0988 -0.1201
 9326W        W25800  13.266  14.143  12.741  0.2433  0.0538  0.0485
 9327W        W25801   4.854  18.755   4.054 -0.1160 -0.3631  0.1690
 9328W        W25802  16.757   1.878  14.470 -0.4330  0.1710  0.1205
 9329W        W25803   7.623  10.726  11.922  0.0132  0.0410  0.0334
 9330W        W25804   1.520   8.579   2.281 -0.0911  0.0984 -0.1545
 9331W        W25805  10.358   0.202   2.779 -0.1956 -0.3731 -0.2188
 9332W        W25806  17.074   6.485   4.214 -0.0237 -0.0283 -0.0402
 9333W        W25807   6.479  13.304   0.655 -0.4859  0.1476  0.0961
 9334W        W25808  11.781   6.881  10.379  0.1264  0.0818 -0.2021
 9335W        W25809  14.284  19.352   3.198  0.0780 -0.0988  0.2071
 9336W        W25810  15.516   5.395   1.340 -0.0987 -0.0902  0.0865
 9337W        W25811  16.871   3.079  11.580  0.3418 -0.0017 -0.3776
 9338W        W25812   1.566   5.571  11.798  0.1538  0.3001 -0.1072
 9339W        W25813   3.374   3.651  13.420 -0.0880  0.2031 -0.4286
 9340W        W25814   3.732   7.842  11.443 -0.1187 -0.0722  0.0238
 9341W        W25815  18.075   1.857   1.976  0.0055  0.0616  0.2476
 9342W        W25816   0.230   2.643   0.606 -0.0016  0.1527 -0.0045
 9343W        W25817  14.878  13.564  11.999  0.4133 -0.1524  0.1608
 9344W        W25818  13.509   6.916   1.815  0.0681 -0.0681 -0.1154
 9345W        W25819  13.423   6.117  10.374 -0.1909 -0.2236  0.0619
 9346W        W25820  18.555  18.314   2.268  0.1969  0.0396 -0.0103
 9347W        W25821   2.300  16.552   0.047  0.1526 -0.0938  0.0796
 9348W        W25822  17.674  15.419   1.424  0.0996  0.0077  0.0237
 9349W        W25823   9.660   9.678  14.430 -0.0537  0.1727 -0.2303
 9350W        W25824  12.613   7.365  11.753  0.2806  0.1809 -0.2236
 9351W        W25825   1.588  18.378   0.745  0.1725 -0.1270  0.0545
 9352W        W25826   0.510  11.505  12.776  0.0398 -0.1024 -0.4336
 9353W        W25827   6.068  13.981   0.387 -0.1978 -0.1553 -0.2192
 9354W        W25828   2.793  18.902   3.433  0.0798  0.1854 -0.0191
 9355W        W25829  10.075   9.617   1.890  0.2690 -0.0405  0.0616
 9356W        W25830  18.426   5.899   4.783 -0.1029  0.1764  0.0725
 9357W        W25831  14.734   9.320   1.708 -0.0433 -0.2043  0.1576
 9358W        W25832  17.932  16.960  13.037  0.0621 -0.1700 -0.1467
 9359W        W25833  17.927  13.259   3.529  0.0413  0.2057  0.1959
 9360W        W25834  15.258   5.798  13.402  0.0438  0.0873  0.0487
 9361W        W25835   5.558  19.336   4.129  0.1443 -0.4181  0.2132
 9362W        W25836  14.540  16.116  14.593  0.2121  0.1060  0.0508
 9363W        W25837   4.481  10.116   3.194 -0.0671 -0.0935  0.1706
 9364W        W25838   6.911   1.890   8.855  0.0851  0.0118  0.3017
 9365W        W25839   2.083  18.956   0.530 -0.1800  0.0522  0.0315
 9366W        W25840  16.192   3.875  10.956  0.2716 -0.1735 -0.0895
 9367W        W25841   2.729  16.806  14.346 -0.0428  0.2021 -0.2809
 9368W        W25842   4.829   1.924  10.131 -0.0167  0.0900 -0.1898
 9369W        W25843  19.594   9.563   2.740 -0.0825 -0.0253  0.0527
 9370W        W25844   2.671  19.134   4.190 -0.3211 -0.2747 -0.4356
 9371W        W25845  12.417   0.255   2.751 -0.1940  0.0887 -0.1135
 9372W        W25846   6.733  12.850   2.401 -0.1255 -0.0441  0.2031
 9373W        W25847  14.936   3.486   0.289  0.1413  0.1486  0.0425
 9374W        W25848  10.561  16.682   4.490  0.2645  0.1745 -0.2478
 9375W        W25849   4.475  15.429   2.949  0.0537  0.1746  0.1314
 9376W        W25850  11.385   6.914   4.926 -0.3177  0.0462  0.2231
 9377W        W25851  12.699  14.648  12.208  0.1465 -0.2560  0.0008
 9378W        W25852   6.818   9.031   5.322 -0.1133 -0.2268  0.3899
 9379W        W25853  16.172   8.980  10.229  0.0313 -0.2553 -0.3569
 9380W        W25854  12.044   2.125   1.345 -0.1833  0.0111  0.1545
 9381W        W25855   6.249  16.495   2.177  0.0478 -0.1260  0.0712
 9382W        W25856   0.722  14.296   1.677 -0.4572  0.1214  0.4320
 9383W        W25857   9.714   3.051   1.601  0.1750 -0.0959  0.0895
 9384W        W25858   0.447   1.469   2.416 -0.0840 -0.1315  0.0585
 9385W        W25859   4.258   8.753  10.923  0.0829 -0.3801 -0.0746
 9386W        W25860   7.427  18.437  14.317 -0.1562 -0.0970  0.0247
 9387W        W25861  17.233  10.471   5.134 -0.1961  0.0145 -0.2020
 9388W        W25862  13.397  13.836   5.293  0.1675  0.2437  0.0220
 9389W        W25863  12.526   0.074  13.563  0.0317  0.1119 -0.1398
 9390W        W25864  11.911   6.684  13.728 -0.0395 -0.0499 -0.0590
 9391W        W25865   8.564   1.524   4.459 -0.0436  0.2642  0.1061
 9392W        W25866  16.763  14.450  10.161 -0.0197  0.1088 -0.3145
 9393W        W25867   8.621   1.795  10.143  0.0289  0.1172 -0.0971
 9394W        W25868  13.879  15.763   2.991  0.0921 -0.0196  0.1945
 9395W        W25869  10.105   3.159   4.536  0.3809 -0.1969  0.1590
 9396W        W25870   8.901  12.703  12.364 -0.2777  0.2278 -0.5217
 9397W        W25871   5.579  13.947  13.559  0.2239  0.4048 -0.1492
 9398W        W25872  11.010  18.315  12.442  0.3122 -0.3378  0.1425
 9399W        W25873   1.341   0.758   4.828 -0.0694  0.1751  0.0795
 9400W        W25874  16.058   9.576   1.483 -0.0738  0.1596 -0.1473
 9401W        W25875  12.991   7.915  12.675 -0.0639  0.0683 -0.0624
 9402W        W25876   6.975   2.361   3.892  0.4635  0.2222  0.3879
 9403W        W25877   0.116  17.952   0.834 -0.1004 -0.1759  0.0706
 9404W        W25878  18.544   6.092   3.541  0.4037 -0.1202  0.1291
 9405W        W25879   3.063   2.539  12.197  0.1026 -0.2011  0.2378
 9406W        W25880  15.060   5.682  11.119  0.1896  0.3948  0.0027
 9407W        W25881   0.344  19.414   3.985 -0.1530 -0.0044  0.0885
 9408W        W25882   9.143  15.239   4.634  0.0215 -0.1572  0.1804
 9409W        W25883   4.077  14.999   0.017 -0.4584 -0.3423 -0.1403
 9410W        W25884   6.397  17.973   0.470  0.0404  0.2984  0.0482
 9411W        W25885   1.779  18.437   2.074  0.1836  0.0241  0.1402
 9412W        W25886   1.794  17.149   5.112  0.1504  0.3914  0.0378
 9413W        W25887   2.800  14.023  11.119  0.1606 -0.3405  0.3172
 9414W        W25888   7.759  16.138   2.138 -0.1294  0.3773 -0.0856
 9415W        W25889   7.812   2.833   3.953  0.2819 -0.3203 -0.2140
 9416W        W25890  11.891  15.290   5.286  0.1617 -0.0598 -0.1747
 9417W        W25891  12.160  10.622  12.318  0.1239 -0.0968 -0.1333
 9418W        W25892  12.102   2.340   3.119 -0.1944 -0.0996  0.3697
 9419W        W25893   2.867   8.379   0.385 -0.0516  0.1754 -0.2958
 9420W        W25894  18.025  16.480   1.490  0.2934 -0.0882 -0.3746
 9421W        W25895   9.520  18.292   5.042 -0.1881 -0.1098  0.0868
 9422W        W25896   0.715   1.589  13.138  0.2891 -0.2282  0.1033
 9423W        W25897   6.047   9.982   9.239 -0.0600 -0.1015  0.0326
 9424W        W25898  14.605  13.644  14.618 -0.0902  0.2955 -0.1944
 9425W        W25899   1.888  17.014   1.216  0.0744  0.1765 -0.0803
 9426W        W25900   4.571   5.054   3.202 -0.0610 -0.1841  0.3536
 9427W        W25901  16.734   8.520  12.223 -0.0350  0.1714 -0.2012
 9428W        W25902   6.285  12.118   2.184 -0.2265 -0.1344  0.0801
 9429W        W25903  16.918   7.833  10.979  0.1346 -0.1576 -0.0996
 9430W        W25904   0.244  15.488   2.631  0.2589  0.1536  0.2160
 9431W        W25905  12.806  18.081  12.013 -0.3293  0.0704  0.1271
 9432W        W25906  16.544   2.755  13.470 -0.1055 -0.0386 -0.1204
 9433W        W25907   2.800   2.758  14.142  0.0984 -0.0847 -0.2369
 9434W        W25908   6.940   7.365   0.311 -0.2772  0.1038 -0.0947
 9435W        W25909  12.241  10.451   5.090 -0.1497  0.0686 -0.0354
 9436W        W25910   8.029   2.737  13.051 -0.1461  0.0418  0.2629
 9437W        W25911   8.471  17.450  12.894  0.0050 -0.2144  0.0294
 9438W        W25912   8.203  11.413  12.046  0.0070 -0.3825 -0.4030
 9439W        W25913   2.554   2.277  13.315  0.2186 -0.1889 -0.1545
 9440W        W25914  11.198  13.208   2.375  0.1375  0.0033 -0.2094
 9441W        W25915   3.083   4.652   3.237  0.2954 -0.2091  0.3596
 9442W        W25916  19.114   5.635   4.028 -0.4241  0.0422  0.2120
 9443W        W25917   1.218   6.223   2.164 -0.0845  0.0176 -0.2463
 9444W        W25918  10.344  17.729   0.366 -0.0996 -0.1976  0.1072
 9445W        W25919   3.723   4.020   9.461 -0.2395  0.0834  0.4825
 9446W        W25920   0.968  11.071  10.648  0.4541  0.4749 -0.1271
 9447W        W25921   0.774   6.743  10.947  0.1960 -0.1360 -0.1067
 9448W        W25922   4.624   3.256  11.006  0.1444  0.0221  0.1606
 9449W        W25923   1.447   3.849  14.539 -0.1965  0.3172  0.1356
 9450W        W25924  14.393   6.884   0.209  0.0803  0.0417 -0.2340
 9451W        W25925   3.690  13.885   2.884 -0.0036  0.1981 -0.2910
 9452W        W25926   7.301   7.947   2.020  0.2626  0.1867 -0.1062
 9453W        W25927  16.456  11.412   1.785 -0.5067  0.0277  0.1482
 9454W        W25928   6.427   3.380  10.350 -0.0228  0.1801 -0.0576
 9455W        W25929  12.280  19.483  11.309 -0.3527  0.1497  0.1563
 9456W        W25930  13.677  18.412   2.564  0.0124  0.2378  0.3496
 9457W        W25931   1.767   9.531   2.831 -0.1314  0.2576 -0.1515
 9458W        W25932  12.206   1.888  10.569  0.2053  0.1407 -0.1008
 9459W        W25933  14.910   5.070  14.435  0.1094 -0.1405  0.2832
 9460W        W25934  14.992  14.598  12.499 -0.5346 -0.2614 -0.3573
 9461W        W25935  15.860   1.320   0.807  0.1448 -0.1830 -0.0908
 9462W        W25936   9.009   6.812  11.618 -0.0700  0.4283 -0.0209
 9463W        W25937  18.461   0.108  14.388 -0.3105  0.2319  0.3388
 9464W        W25938   9.822   8.115   3.034 -0.2384 -0.0336 -0.0781
 9465W        W25939  16.752   6.846  12.313  0.0942  0.2503 -0.0881
 9466W        W25940  15.661  13.023  13.640 -0.2880  0.1621 -0.2153
 9467W        W25941  19.580   7.997  12.786 -0.3813  0.1607  0.1448
 9468W        W25942  17.307  12.101  10.551 -0.1408 -0.1216  0.0061
 9469W        W25943  10.620   1.579  12.225 -0.2032 -0.2732  0.1673
 9470W        W25944  17.207  18.005   4.025  0.1378  0.0793 -0.0217
 9471W        W25945  16.303  16.810  14.057 -0.1300 -0.3561 -0.1818
 9472W        W25946  11.856   2.451   3.539 -0.3549 -0.1992  0.1342
 9473W        W25947  13.577   0.557  11.274 -0.0680  0.1914  0.3286
 9474W        W25948   1.893  13.946   3.604  0.0437 -0.0168  0.3138
 9475W        W25949   5.373  16.507  13.573 -0.0418 -0.1006  0.1549
 9476W        W25950   9.359  16.775   1.734 -0.1144 -0.1750  0.2891
 9477W        W25951  17.844   5.669   1.600 -0.2234 -0.0359 -0.0455
 9478W        W25952   9.735   5.929   3.416 -0.1283  0.0038 -0.1349
 9479W        W25953  17.118  12.710  13.076 -0.1897 -0.1793  0.0030
 9480W        W25954  16.442  12.381   0.275 -0.0837  0.1856 -0.1173
 9481W        W25955   3.630  11.702  11.032 -0.3929  0.0930  0.0375
 9482W        W25956  18.683   3.501   3.811 -0.0084 -0.2462 -0.5845
 9483W        W25957   4.423  16.943   1.662 -0.0615  0.2544  0.2771
 9484W        W25958  18.143  15.589   3.390  0.0673 -0.1052 -0.2661
 9485W        W25959  18.965   4.728  14.055  0.1912 -0.0799  0.2152
 9486W        W25960  12.857   8.918  13.688 -0.1526 -0.0506 -0.1921
 9487W        W25961  10.094  10.907  11.019  0.5303  0.1241  0.0726
 9488W        W25962  10.552  12.635  10.543  0.0849  0.2340  0.1851
 9489W        W25963   4.609  13.795   0.407  0.1768  0.0874  0.6426
 9490W        W25964   0.713  10.820   0.057 -0.1664 -0.2031 -0.1746
 9491W        W25965   0.836  15.580   2.606  0.2718 -0.4121 -0.2740
 9492W        W25966  16.027  10.559   5.882  0.1283 -0.0391 -0.1599
 9493W        W25967   3.112  10.978   4.485  0.0179 -0.4221  0.2692
 9494W        W25968  15.990  18.216   0.254  0.0426  0.2788 -0.0912
 9495W        W25969  13.814  13.486  12.900 -0.4508 -0.0872  0.1743
 9496W        W25970  13.961  18.197  12.108 -0.0723 -0.0792 -0.0122
 9497W        W25971  12.904  15.861  13.270 -0.0629 -0.3272 -0.0619
 9498W        W25972  10.324  14.285   9.776 -0.0969 -0.1516  0.2643
 9499W        W25973  15.029  11.887   0.148 -0.0876 -0.3925 -0.3240
 9500W        W25974  18.932   2.407   1.441  0.1032 -0.1886  0.2206
 9501W        W25975  18.008   2.795  12.640 -0.1838  0.0224 -0.0742
 9502W        W25976   3.819  13.326   2.919 -0.2524 -0.0744 -0.0984
 9503W        W25977   1.170  13.643  11.128 -0.0143  0.0358 -0.2485
 9504W        W25978  11.228   7.730  14.392  0.0734  0.0160 -0.3311
 9505W        W25979   7.604   1.561   1.819  0.2736 -0.1876 -0.0167
 9506W        W25980  16.077  17.423  10.321  0.2390 -0.1918  0.3810
 9507W        W25981  16.421   7.601   2.340  0.0715 -0.1035  0.2634
 9508W        W25982  10.926   3.577   2.207 -0.1706 -0.0260  0.1292
 9509W        W25983  18.592  17.033   0.957  0.1407 -0.0540  0.3178
 9510W        W25984   6.797  11.845  11.770  0.2845  0.0498  0.0826
 9511W        W25985   0.150  18.909   1.113  0.2022 -0.1403  0.0852
 9512W        W25986  16.021  11.820   4.925 -0.1035  0.1743 -0.1379
 9513W        W25987   7.594   3.034  12.803 -0.2856  0.0968  0.4430
 9514W        W25988   2.531  10.949   2.720 -0.1091  0.1439 -0.2160
 9515W        W25989   5.219  19.222  12.145  0.2700  0.1887 -0.0581
 9516W        W25990   0.699   7.808  13.203 -0.2538  0.0129 -0.0677
 9517W        W25991   8.688  11.224   4.026  0.2179 -0.0617 -0.0918
 9518W        W25992   6.196  18.625   3.695 -0.1607  0.0085 -0.0896
 9519W        W25993   9.533   4.152  10.835 -0.2232 -0.0464  0.2730
 9520W        W25994  18.822  19.421  10.592  0.3060  0.2821 -0.1523
 9521W        W25995  15.579   7.383   1.313  0.0534 -0.2186 -0.0012
 9522W        W25996   6.712  13.601   3.820 -0.1222  0.1602  0.2732
 9523W        W25997   9.659   7.512  12.983  0.0801  0.1831  0.0490
 9524W        W25998   2.178   7.968  12.359 -0.0562  0.1437  0.0730
 9525W        W25999  15.416   8.376   1.261 -0.2053  0.1633  0.1764
 9526W        W26000   0.086   1.485  11.191  0.4073  0.2347  0.0026
 9527W        W26001  17.163  15.346  10.753  0.0900 -0.3420  0.1754
 9528W        W26002   6.361  19.051   0.210  0.0618 -0.1338  0.0189
 9529W        W26003  17.610   0.441   4.078  0.1075 -0.0615 -0.3077
 9530W        W26004  18.847   2.600  11.772 -0.2598 -0.0861  0.3749
 9531W        W26005  14.600  17.397  13.840 -0.0361 -0.0538  0.2081
 9532W        W26006  14.285   2.493  10.205 -0.0161 -0.2771 -0.2003
 9533W        W26007  16.749   0.468  10.836 -0.2979 -0.0146  0.1944
 9534W        W26008   1.017  17.327  12.773  0.1547  0.0958  0.0855
 9535W        W26009  19.387  12.006  11.496 -0.1812 -0.1220  0.0835
 9536W        W26010  11.389   9.771   0.491  0.2941 -0.1211  0.3277
 9537W        W26011   5.258   9.320   2.179 -0.1439  0.3057  0.1158
 9538W        W26012  14.226  17.039  11.351  0.1342  0.2248  0.1666
 9539W        W26013  14.493  19.181   0.504 -0.0811 -0.0354 -0.2061
 9540W        W26014   5.309   1.982   3.134 -0.1156  0.2106  0.0298
 9541W        W26015   4.111  13.201   3.926  0.0866 -0.1042  0.0180
 9542W        W26016   6.963   2.274   2.054 -0.1049 -0.1752  0.0077
 9543W        W26017   0.772  17.453  14.291 -0.0987 -0.1858  0.0369
 9544W        W26018   5.486   2.036  13.403 -0.0885 -0.0224  0.1828
 9545W        W26019  12.659   4.826   1.654 -0.0895  0.1904 -0.0336
 9546W        W26020   6.974   6.275   3.139  0.1030 -0.0577  0.0855
 9547W        W26021   8.797  16.292   4.545 -0.2022  0.2512  0.0896
 9548W        W26022   7.921   6.173   3.440 -0.0162  0.0678 -0.1744
 9549W        W26023  15.931   2.429   2.368 -0.0962  0.2086  0.1085
 9550W        W26024  12.261   5.913  11.397 -0.1855  0.0101  0.0783
 9551W        W26025   6.759   5.200   2.572 -0.0135 -0.1520 -0.1696
 9552W        W26026  13.327   1.139   3.287 -0.0626  0.1146  0.0868
 9553W        W26027  17.285   4.841   2.122 -0.2294  0.2441  0.1644
 9554W        W26028   8.679   4.114   2.016  0.1272  0.0752 -0.1187
 9555W        W26029   2.938  15.382   5.112  0.1855  0.0416  0.0196
 9556W        W26030   5.151   3.658   0.757  0.0142  0.3672  0.1484
 9557W        W26031  10.518   8.723   0.601 -0.1615 -0.3310 -0.2929
 9558W        W26032  14.107  13.499   0.203 -0.1718  0.1168 -0.1702
 9559W        W26033   0.433   5.041   3.677 -0.0178  0.2147 -0.1888
 9560W        W26034  13.378  15.650   3.431  0.4608 -0.3032  0.1379
 9561W        W26035   0.592   3.443  13.768  0.2903  0.1490  0.1376
 9562W        W26036   7.981   5.059  11.172 -0.0269 -0.3756 -0.0235
 9563W        W26037  16.401  11.452   9.922  0.1075 -0.0363  0.1958
 9564W        W26038  16.753   4.814   3.951 -0.0250  0.0362 -0.2654
 9565W        W26039  12.096   8.983   0.042 -0.1198 -0.2668 -0.1604
 9566W        W26040   1.244  12.947   1.277 -0.0952 -0.0424 -0.1280
 9567W        W26041  12.747  19.389   1.267  0.0640  0.1032 -0.2566
 9568W        W26042   4.282  10.212   1.162 -0.2753  0.0558 -0.0952
 9569W        W26043  16.532  11.078   3.093  0.0713  0.0959 -0.0942
 9570W        W26044   4.928   5.681  12.067 -0.0872  0.2375  0.0420
 9571W        W26045   1.388   7.174  12.174  0.2272  0.0474  0.0083
 9572W        W26046  14.821   8.369  10.334  0.0008  0.1842  0.1316
 9573W        W26047   1.233   6.075  13.502  0.5026 -0.0048 -0.0360
 9574W        W26048   6.544  16.542  13.223 -0.3074 -0.3250  0.0296
 9575W        W26049  16.582   5.325  13.919 -0.0877  0.1480  0.1632
 9576W        W26050   2.237  11.500  12.993  0.1649 -0.0821 -0.3184
 9577W        W26051  14.591   8.642  13.401  0.1216 -0.0232  0.0094
 9578W        W26052   2.669  14.578   4.706 -0.0375 -0.0578  0.0393
 9579W        W26053  10.509  12.400  13.349  0.0583  0.4074  0.0812
 9580W        W26054  10.931   7.753   1.921  0.1820 -0.1592 -0.1606
 9581W        W26055  15.400  14.347   2.960 -0.0671 -0.2337 -0.2876
 9582W        W26056   5.272  15.074   0.476 -0.4389 -0.3989  0.1281
 9583W        W26057  13.866  17.179   0.763 -0.2180 -0.1809 -0.1807
 9584W        W26058   9.813  18.697   2.523  0.0647 -0.2912  0.1317
 9585W        W26059  11.084   8.432   3.661  0.0425  0.0520 -0.1966
 9586W        W26060   0.572   1.295  11.885  0.3750 -0.0686  0.0615
 9587W        W26061  15.328   2.164   1.651  0.1587 -0.1369  0.0868
 9588W        W26062   2.294  18.152   5.207 -0.1117  0.0630 -0.3566
 9589W        W26063   0.302   6.208  12.061 -0.2104  0.1108 -0.1782
 9590W        W26064  11.827   3.365   2.698  0.0855  0.0229  0.1046
 9591W        W26065   7.567  10.703  14.001  0.0393  0.2657  0.0729
 9592W        W26066   8.620   1.374  11.952  0.1538 -0.1054  0.1289
 9593W        W26067   6.310  15.888  12.532  0.1013  0.3185  0.2153
 9594W        W26068  17.897   5.415   2.979  0.0616  0.2749 -0.1223
 9595W        W26069   3.701   5.171   2.764 -0.1204 -0.0935 -0.2691
 9596W        W26070  13.442  13.259   0.964 -0.1363  0.5342 -0.2121
 9597W        W26071   0.479   9.872   0.193  0.3058  0.0371  0.1863
 9598W        W26072  15.519  12.226   3.685 -0.1407 -0.1395  0.0592
 9599W        W26073   7.898  11.704  13.207  0.1938 -0.3230  0.2534
 9600W        W26074  17.355  10.401  12.135  0.1357  0.1272  0.3381
 9601W        W26075  13.477   2.961   9.781 -0.0713  0.0639  0.0382
 9602W        W26076   0.643  11.462  13.274 -0.3430 -0.2313 -0.1149
 9603W        W26077  11.145   3.180   9.918 -0.1756  0.2866 -0.0264
 9604W        W26078   2.064   9.016  12.287 -0.3626 -0.3294  0.2349
 9605W        W26079   1.458  11.538  11.678 -0.0216 -0.1715 -0.2168
 9606W        W26080   4.630  12.897  12.252  0.1699  0.1472  0.0662
 9607W        W26081  12.394  12.776   3.243 -0.0651  0.0188  0.1072
 9608W        W26082   3.396   2.977   0.681  0.0101 -0.0070 -0.0041
 9609W        W26083  13.251  14.195   1.252 -0.2328 -0.2352  0.0750
 9610W        W26084   7.657   3.234   9.770  0.1882  0.2081 -0.0533
 9611W        W26085   8.727   2.469   0.082  0.1533  0.4042  0.0633
 9612W        W26086   3.075  16.782   2.341 -0.2546 -0.1987  0.1406
 9613W        W26087  16.687   4.252   2.055 -0.1594 -0.3196 -0.0487
 9614W        W26088   4.486   1.147  14.206 -0.2242 -0.2957  0.0590
 9615W        W26089   6.506   7.159   4.219 -0.2235 -0.0662 -0.2475
 9616W        W26090  13.584   3.881   2.241  0.2334 -0.0753 -0.0784
 9617W        W26091   1.559   8.042   3.786 -0.4343  0.2197  0.4900
 9618W        W26092  13.257  15.718   0.824  0.1782  0.0538 -0.2834
 9619W        W26093   8.594   3.258   2.640  0.3244  0.0365 -0.0958
 9620W        W26094   7.918  15.310  10.718  0.2923 -0.0208  0.1256
 9621W        W26095  10.434  14.744   2.037  0.1262  0.1354  0.2362
 9622W        W26096  12.087   9.623   0.702 -0.2015  0.4100  0.3102
 9623W        W26097  17.478   9.017   1.658 -0.4434  0.2016 -0.0573
 9624W        W26098   2.335   1.233   0.234  0.2182  0.2576  0.1970
 9625W        W26099  14.131  11.805  14.628 -0.0694  0.2011 -0.0552
 9626W        W26100  16.122  13.142  14.313  0.2015  0.0288 -0.3647
 9627W        W26101  14.190   0.854   1.850 -0.0344  0.0370  0.1151
 9628W        W26102   4.529  14.499   2.310  0.0706  0.1925 -0.2473
 9629W        W26103  10.084  16.857   4.255  0.1929  0.1390  0.0738
 9630W        W26104  17.792  10.633  13.080 -0.1815  0.1409 -0.0021
 9631W        W26105   9.076   5.468   0.541 -0.1882  0.0004  0.0555
 9632W        W26106  18.561   5.121   3.418  0.1608  0.0004  0.0297
 9633W        W26107  17.078  11.682  11.412  0.1131 -0.0542 -0.1325
 9634W        W26108  10.472   3.615   4.584 -0.0055 -0.2107 -0.3009
 9635W        W26109   1.745   8.725  11.336  0.0064  0.1393  0.1187
 9636W        W26110   5.223   6.716   1.128  0.0490  0.1614  0.0321
 9637W        W26111  17.583  16.377   1.728 -0.1783  0.0728  0.1167
 9638W        W26112  10.094   5.560   4.984  0.1270  0.0268  0.0850
 9639W        W26113  17.534  15.336  14.602 -0.1583 -0.1630  0.3232
 9640W        W26114  17.526   3.426   2.621  0.0715  0.1650 -0.0330
 9641W        W26115   1.385   5.772   0.532  0.1582 -0.0199  0.0208
 9642W        W26116  13.203   5.323  11.077  0.1328  0.0746 -0.0905
 9643W        W26117  15.419  11.408  12.139 -0.5051 -0.0268 -0.1270
 9644W        W26118   5.406   6.500   3.937  0.0511 -0.1213  0.3439
 9645W        W26119  11.039   9.480  11.324  0.0136 -0.0034  0.2326
 9646W        W26120   1.523   3.642   0.416  0.1167 -0.0123  0.1947
 9647W        W26121   1.774   4.528   0.021 -0.1091  0.3377 -0.0942
 9648W        W26122   6.766   5.604   0.736 -0.2082 -0.3889  0.0456
 9649W        W26123  11.180   8.896   3.789  0.2029  0.2600  0.1399
 9650W        W26124  16.341  18.512  12.171  0.0535  0.1695  0.3970
 9651W        W26125  15.588   5.375  13.877 -0.1751 -0.0474 -0.1238
 9652W        W26126   0.456   3.870   2.910  0.1002  0.2814  0.2975
 9653W        W26127  17.315  12.097  14.509 -0.2093 -0.7727  0.0902
 9654W        W26128  13.719  10.819   3.516 -0.1085 -0.2496  0.0003
 9655W        W26129   5.702   5.200   4.329 -0.2262  0.2668 -0.2055
 9656W        W26130  19.243  18.146  12.887  0.1856  0.1832 -0.1260
 9657W        W26131  10.695   5.035   1.820  0.1500 -0.1090 -0.0481
 9658W        W26132  17.824   4.975   4.018  0.6233 -0.4085  0.4358
 9659W        W26133  10.325  12.178   3.354  0.1700 -0.0989 -0.1826
 9660W        W26134  17.738   5.122   1.487  0.4358 -0.0538  0.1302
 9661W        W26135  13.190   1.484   3.615 -0.1787 -0.3299 -0.2200
 9662W        W26136   8.163  17.167   3.303 -0.0186  0.2086  0.0003
 9663W        W26137  11.062  15.059   4.694  0.1565 -0.0761  0.3004
 9664W        W26138  12.827   7.998   4.530  0.0303 -0.0553 -0.2726
 9665W        W26139  10.194  15.886   3.253 -0.1697 -0.0173  0.1159
 9666W        W26140   0.310   4.306   0.977  0.1672 -0.2759  0.0514
 9667W        W26141  10.266  16.584  12.616 -0.0271  0.0553 -0.1883
 9668W        W26142   5.399   3.064   3.199 -0.3237 -0.2171 -0.0260
 9669W        W26143  18.308   9.491   0.414  0.0930  0.5252  0.0949
 9670W        W26144  17.678   7.095  13.872  0.0985  0.2596 -0.3657
 9671W        W26145   6.319  15.555  11.176  0.0798 -0.2419  0.2961
 9672W        W26146  18.666  12.876  10.230  0.1761  0.0546  0.0609
 9673W        W26147   7.817   9.659   4.244  0.3668  0.3701 -0.1942
 9674W        W26148   3.559  12.635   4.424  0.0527  0.4597  0.2455
 9675W        W26149  10.411   6.527   3.068 -0.0987  0.0710  0.0270
 9676W        W26150  12.349  18.986  13.320  0.1630 -0.1127 -0.1769
 9677W        W26151   7.300  13.601   3.413  0.3420 -0.2624 -0.0437
 9678W        W26152   5.911   7.073  14.207 -0.0952 -0.1035  0.2231
 9679W        W26153  14.089   7.061  10.518 -0.0339 -0.0045  0.0207
 9680W        W26154  19.420  11.618   3.382 -0.0343  0.1827 -0.0850
 9681W        W26155  11.460   4.613  12.105  0.2218  0.0811 -0.3407
 9682W        W26156   0.457   1.715  10.820  0.1853  0.2797 -0.0930
 9683W        W26157   3.255   3.357   0.296  0.3586  0.3185 -0.1798
 9684W        W26158   3.993  11.740   2.698 -0.0625 -0.3080  0.0141
 9685W        W26159  14.548  13.714  14.089  0.0139 -0.1532  0.0706
 9686W        W26160  15.312  10.903  14.221 -0.1034 -0.0679 -0.0406
 9687W        W26161   9.803  10.135  11.224 -0.0829 -0.1735 -0.1058
 9688W        W26162   5.244   2.988  14.547  0.1894 -0.0544  0.1633
 9689W        W26163   6.989  10.199  10.915  0.0842 -0.0500 -0.0272
 9690W        W26164   6.928  15.394  11.678  0.1329  0.0760 -0.0605
 9691W        W26165  10.946   4.987  12.379 -0.1658  0.1422  0.1542
 9692W        W26166   4.334   9.889   2.761  0.0063  0.2490  0.1013
 9693W        W26167   7.914   0.500   4.952 -0.1072  0.1443  0.0564
 9694W        W26168  16.199  10.132  13.440  0.0761 -0.1095 -0.1509
 9695W        W26169  18.438  14.958  13.144  0.0453  0.0966  0.2649
 9696W        W26170  11.238   9.978   2.207  0.1360  0.1892 -0.2845
 9697W        W26171  17.997   7.424   0.518  0.1605 -0.4019  0.4682
 9698W        W26172   2.946   1.741   0.679 -0.2032  0.0045  0.0911
 9699W        W26173  15.672  18.010   0.682  0.1019 -0.0926 -0.4175
 9700W        W26174  11.139   0.802  12.418  0.0143  0.0135  0.0002
 9701W        W26175   4.849   9.153  12.430 -0.2860  0.2696  0.1030
 9702W        W26176  15.538   2.467  14.019  0.1370  0.2933 -0.0116
 9703W        W26177  19.363  17.718  13.208 -0.0599  0.2124  0.2969
 9704W        W26178   8.574   7.928   0.701  0.1915  0.2446  0.3031
 9705W        W26179  14.936  15.046  10.613 -0.1891  0.0326 -0.0942
 9706W        W26180  16.492  14.708   0.363 -0.1007 -0.0701  0.3151
 9707W        W26181   6.332  12.331   4.397  0.1339 -0.0525  0.2647
 9708W        W26182  10.747   6.537  14.425 -0.1191  0.2148 -0.3143
 9709W        W26183  17.065   2.739   4.354 -0.3688  0.0571 -0.1503
 9710W        W26184  15.558   2.778   3.814  0.1149  0.0484  0.1755
 9711W        W26185   5.440   5.913   3.753  0.0691  0.0724  0.1148
 9712W        W26186   9.731  11.625   1.620 -0.0764  0.0775  0.1041
 9713W        W26187   8.997   8.096   1.950  0.0942  0.2034 -0.1324
 9714W        W26188  19.303   5.799   5.041  0.0262  0.1754 -0.1558
 9715W        W26189   5.468  17.932   3.001  0.2064 -0.2130  0.0338
 9716W        W26190   6.005   0.054   3.619  0.3773  0.0234  0.3759
 9717W        W26191   6.539  15.022   3.738 -0.0426  0.2714 -0.2398
 9718W        W26192   8.205  13.602   3.557 -0.1574 -0.0587 -0.1270
 9719W        W26193   5.053  15.010   4.198  0.2161  0.0467 -0.1198
 9720W        W26194   5.509  15.783   1.525  0.3410  0.0716 -0.0791
 9721W        W26195  15.156   9.485   0.719  0.0710 -0.1489 -0.1846
 9722W        W26196  13.298   5.735  10.844  0.1751 -0.1438  0.1137
 9723W        W26197   2.349  12.422  11.313 -0.3077  0.0751  0.0764
 9724W        W26198   3.799   6.300   4.838 -0.1874  0.1988  0.1643
 9725W        W26199  10.405   4.209  10.977  0.0973 -0.0855 -0.2013
 9726W        W26200   7.941  17.516  12.912 -0.1279 -0.0368  0.1225
 9727W        W26201   6.060   2.964   8.692 -0.0049 -0.2143  0.3053
 9728W        W26202   0.176  14.113   4.315  0.0580 -0.1362 -0.1033
 9729W        W26203  13.042  15.563   1.953  0.1061  0.1622  0.0298
 9730W        W26204  16.456   8.058   4.254 -0.2227  0.0606  0.2171
 9731W        W26205   2.188  15.173   2.196  0.0047  0.3717  0.1195
 9732W        W26206   1.470  17.116  10.007 -0.0413  0.3116  0.0199
 9733W        W26207   1.495  13.512   0.182  0.2144 -0.1784 -0.3392
 9734W        W26208   5.795   9.565   1.820  0.0186  0.0078  0.3055
 9735W        W26209  16.743   8.552   4.322 -0.1559  0.0682 -0.2675
 9736W        W26210  15.576  14.468   1.168  0.1884 -0.1999  0.2273
 9737W        W26211  11.058  18.814   2.439 -0.1404  0.0043 -0.4972
 9738W        W26212   8.024  10.686   4.428  0.1284 -0.1237 -0.0401
 9739W        W26213  11.532   7.447   0.576 -0.0300  0.1008 -0.0267
 9740W        W26214  10.319   4.534  14.458  0.1521  0.0984  0.2472
 9741W        W26215  18.367   8.986  10.823  0.4718  0.0475  0.0438
 9742W        W26216  16.597   5.605  10.459 -0.0252 -0.1400 -0.3114
 9743W        W26217   4.909  15.493   4.082  0.3116 -0.1495  0.0769
 9744W        W26218   2.162  18.835  11.422 -0.2231  0.0460 -0.3641
 9745W        W26219   9.904   9.451  12.044 -0.2873  0.0455  0.1653
 9746W        W26220  15.244  16.204   9.745 -0.0966 -0.2033  0.2381
 9747W        W26221  17.390  14.938  10.643  0.0325 -0.0607 -0.0460
 9748W        W26222   9.049   3.168  10.146 -0.1037 -0.1308 -0.2742
 9749W        W26223   0.616  13.872   0.867 -0.1894 -0.0017  0.2810
 9750W        W26224   7.687  11.018   2.264  0.1107  0.2974  0.3091
 9751W        W26225  11.863   5.203   9.240 -0.1497  0.0610  0.2014
 9752W        W26226   6.208   1.937   1.015  0.0919 -0.0351  0.0157
 9753W        W26227  18.746   2.777  14.319 -0.0291  0.0712 -0.1098
 9754W        W26228  16.873   1.314   0.823 -0.0310  0.1527 -0.1594
 9755W        W26229  14.109   6.451   0.418  0.0594  0.0974 -0.0459
 9756W        W26230   9.347  14.279   2.159  0.0571  0.1205 -0.2919
 9757W        W26231   5.910   6.067   1.047 -0.1778  0.1127 -0.2057
 9758W        W26232  12.503  17.273  13.084  0.1130  0.1367 -0.1303
 9759W        W26233  15.071   5.895  14.382  0.0344  0.1795 -0.1877
 9760W        W26234   7.366  16.904  11.751 -0.0402  0.0355 -0.1304
 9761W        W26235  15.162   7.585   3.374  0.3315  0.1154  0.4034
 9762W        W26236   9.154   7.088  13.829 -0.0717  0.2106 -0.4118
 9763W        W26237   4.522   4.220   1.361  0.1949 -0.3422 -0.2174
 9764W        W26238  10.701   6.604   2.621  0.1722 -0.3084 -0.0150
 9765W        W26239  18.388  12.196   0.322  0.0667  0.0221  0.2251
 9766W        W26240   0.057  12.984   3.625  0.0911 -0.4101 -0.2624
 9767W        W26241   0.809   9.655   0.525 -0.0212  0.1104 -0.0244
 9768W        W26242  10.595  11.057  10.612  0.2713  0.0565 -0.2268
 9769W        W26243  10.559   4.247  12.895  0.3453  0.1091  0.1664
 9770W        W26244  11.075  11.274   4.309 -0.0327  0.0125  0.0000
 9771W        W26245  19.255  12.528  13.797 -0.0011 -0.1034  0.2920
 9772W        W26246  14.371   7.314  11.681  0.1517 -0.2832  0.0021
 9773W        W26247  17.576  14.195  12.372 -0.5708  0.1805  0.1237
 9774W        W26248   6.212  17.863   1.265  0.2695 -0.1346 -0.3457
 9775W        W26249  13.654  17.675  11.829 -0.1389 -0.2011  0.3701
 9776W        W26250  18.199   8.449   1.313 -0.1943  0.1957 -0.1275
 9777W        W26251  15.455   8.675  11.055 -0.0833  0.0146  0.2109
 9778W        W26252   6.405   9.527  13.906 -0.0098 -0.1457  0.0044
 9779W        W26253   2.068   1.155  13.449 -0.1390  0.3693  0.0224
 9780W        W26254  16.213   2.606   1.936 -0.0368  0.0363 -0.3321
 9781W        W26255   5.956  17.701   0.213  0.1257  0.2162  0.1432
 9782W        W26256   7.062  14.662   0.984 -0.0949 -0.2287 -0.3151
 9783W        W26257   7.912  11.766  12.389  0.0550 -0.0651 -0.6696
 9784W        W26258  16.432  10.065   3.425  0.1927 -0.0233 -0.2234
 9785W        W26259   7.118   0.140  10.463  0.1816 -0.1057 -0.1574
 9786W        W26260   2.062   6.584   2.666 -0.1212 -0.1843  0.2477
 9787W        W26261  15.782   4.252  12.561  0.0479  0.0745  0.0650
 9788W        W26262   9.585   8.082  12.318 -0.0314 -0.2065 -0.0737
 9789W        W26263  15.662  12.987  11.946  0.0197 -0.1529  0.0959
 9790W        W26264  16.511  13.291  13.982  0.0114  0.3281 -0.0553
 9791W        W26265   1.051  15.875  11.986  0.0417  0.2322 -0.0759
 9792W        W26266  19.223   0.091   3.377  0.1599 -0.0810  0.1282
 9793W        W26267   9.783   0.741  14.075 -0.1226  0.0804  0.1965
 9794W        W26268  10.791   4.715  12.705 -0.0709  0.4146 -0.0975
 9795W        W26269  13.339   5.920   1.125 -0.1018 -0.3871 -0.2799
 9796W        W26270   7.017   3.484   0.384 -0.3840  0.1595 -0.0710
 9797W        W26271   9.737   8.495   3.350 -0.3438  0.0586  0.2482
 9798W        W26272  10.152   0.359  14.210 -0.1841  0.0766 -0.1407
 9799W        W26273  17.020  18.663  14.367 -0.0443 -0.0718 -0.2250
 9800W        W26274  11.566  17.682  12.320  0.1220  0.1113 -0.1735
 9801W        W26275   0.463   4.996   9.931 -0.1260  0.0838  0.3489
 9802W        W26276   4.515  17.931  12.236  0.0646  0.1438  0.0460
 9803W        W26277  16.849  14.491   1.817  0.2904  0.1223 -0.1322
 9804W        W26278  15.971   6.690  12.431 -0.0313 -0.1404  0.1017
 9805W        W26279  11.263  16.661   2.308  0.0825 -0.0989 -0.1956
 9806W        W26280  15.579   1.682  10.883  0.0282 -0.2870 -0.1184
 9807W        W26281   3.117   7.281   3.816 -0.1907  0.0068 -0.0962
 9808W        W26282   6.966   0.121  13.863 -0.1277 -0.0558  0.3431
 9809W        W26283   0.853  12.794   2.255 -0.0876 -0.0398 -0.1814
 9810W        W26284   3.923  13.161  10.273  0.3527  0.0417 -0.4132
 9811W        W26285  12.232   0.296  12.323  0.1487 -0.1008 -0.2697
 9812W        W26286  10.823  12.270   0.272  0.3739  0.3007  0.0608
 9813W        W26287   4.618   2.534  10.075  0.0790  0.0595  0.1054
 9814W        W26288  13.264  17.471  13.871  0.1470  0.2665 -0.0392
 9815W        W26289   8.593  10.050   2.304  0.2368 -0.0544  0.2319
 9816W        W26290   3.325  11.311   1.637  0.1278  0.2099  0.1640
 9817W        W26291  17.923   9.894   3.156  0.0154 -0.2532  0.0618
 9818W        W26292  16.722  18.682   4.382  0.1188 -0.0310 -0.0741
 9819W        W26293  14.409  10.300   1.646 -0.0490 -0.0126 -0.0441
 9820W        W26294  13.772  18.918   0.280 -0.2882  0.4592  0.1962
 9821W        W26295   4.151  11.521  12.292 -0.0506  0.1462  0.1123
 9822W        W26296  15.810   1.559   3.278 -0.0659  0.1500  0.0655
 9823W        W26297   3.066  10.191  14.610 -0.2854 -0.3905 -0.1327
 9824W        W26298   1.838   7.820  10.922 -0.0694  0.0819  0.0054
 9825W        W26299   9.980  17.298   2.403  0.2264  0.1652  0.2389
 9826W        W26300  17.876  12.203  11.773  0.0137  0.2698 -0.0198
 9827W        W26301   9.225  15.543  10.762 -0.0735  0.1415  0.0401
 9828W        W26302   1.382  16.033  10.163  0.3143 -0.2468  0.0868
 9829W        W26303   4.692   7.461  12.640  0.1548  0.0334 -0.4787
 9830W        W26304  13.980  13.175   1.041 -0.2213  0.0712 -0.1663
 9831W        W26305   5.522  16.251   1.776 -0.0280  0.0444  0.0289
 9832W        W26306   3.257  15.731  13.274  0.0955 -0.3487 -0.0797
 9833W        W26307  13.419   1.336  12.554 -0.4941  0.1683  0.1920
 9834W        W26308   0.763   1.991  14.663  0.0413  0.0481  0.0475
 9835W        W26309  14.352   4.317  13.401  0.2940  0.3618 -0.2383
 9836W        W26310  18.837  11.050   2.598  0.1207 -0.1176  0.0308
 9837W        W26311   9.394   7.218  10.717  0.0423  0.1643 -0.1059
 9838W        W26312   8.471   0.755  12.846 -0.0429 -0.1089  0.1802
 9839W        W26313  17.208   9.145   1.116 -0.1252 -0.0357 -0.1088
 9840W        W26314   6.913   7.074   5.055 -0.1151 -0.2666 -0.4176
 9841W        W26315   4.633   6.486   9.697 -0.1645 -0.1035  0.2164
 9842W        W26316  18.112  13.628   2.233 -0.1462 -0.0727  0.1350
 9843W        W26317  15.241  15.846  14.526 -0.1282 -0.1798  0.0424
 9844W        W26318   8.362   7.723  11.144 -0.1017 -0.2075  0.0710
 9845W        W26319   2.110  13.979  12.433  0.0196  0.6184  0.3953
 9846W        W26320  16.000   2.087  10.761  0.0248  0.0007  0.3019
 9847W        W26321  18.335  16.198  11.830 -0.0837 -0.0625 -0.1735
 9848W        W26322  12.151   3.847   0.489  0.1052 -0.0512  0.0149
 9849W        W26323  16.323   5.058   3.785  0.0773  0.2062 -0.0480
 9850W        W26324   1.889   4.970  13.631  0.3841 -0.1858 -0.3864
 9851W        W26325  12.131  11.699  11.718 -0.0844 -0.4276  0.0653
 9852W        W26326  19.133  17.011   3.599  0.2379 -0.1106 -0.3526
 9853W        W26327  13.687  16.516  14.213  0.2220  0.0184  0.1454
 9854W        W26328  19.000  14.012   3.613  0.0339  0.0611 -0.1859
 9855W        W26329   2.268  17.939   2.558  0.0926  0.4346  0.0866
 9856W        W26330  17.631   7.051  14.514  0.1457  0.1548  0.1690
 9857W        W26331  14.962   9.135   4.149  0.1680 -0.0675 -0.2878
 9858W        W26332   6.809   8.650   2.050  0.0283  0.0519  0.0527
 9859W        W26333   3.613   6.965  13.897  0.3782  0.0679  0.2642
 9860W        W26334  17.105   5.187   0.295 -0.3547 -0.1091 -0.1087
 9861W        W26335  18.242   5.385  13.951  0.0495  0.0297 -0.0501
 9862W        W26336   5.203  12.699  12.328 -0.3548 -0.3248 -0.0049
 9863W        W26337  10.527  17.337  11.388 -0.0254 -0.3122 -0.1695
 9864W        W26338   3.761  15.611   2.105 -0.4204 -0.1374 -0.0926
 9865W        W26339   5.728  14.781   0.641  0.0326 -0.1766  0.1468
 9866W        W26340   5.420   1.322   2.380 -0.1099  0.0154  0.0211
 9867W        W26341   9.532  14.822   2.472 -0.0021 -0.0713  0.0569
 9868W        W26342  12.649  18.552  11.682  0.0367 -0.0136  0.2405
 9869W        W26343  17.407   1.705  10.525 -0.1265  0.1115 -0.2004
 9870W        W26344  13.162   0.450  12.163  0.3323 -0.0529  0.1018
 9871W        W26345   1.329   2.326  10.173  0.1559  0.1438  0.1690
 9872W        W26346   1.387  12.225  11.491 -0.0774  0.4433  0.0539
 9873W        W26347   1.955   2.920  14.057  0.1037 -0.2644  0.1976
 9874W        W26348   0.915   6.870  12.758  0.3524 -0.0178  0.4303
 9875W        W26349  15.182   8.712   2.845  0.5289 -0.2751 -0.2473
 9876W        W26350   5.392  11.498   0.324 -0.1170  0.1375  0.1838
 9877W        W26351  14.971  12.825   4.228  0.0506  0.0860 -0.0611
 9878W        W26352   0.574   7.421   2.258  0.2396  0.2009  0.2538
 9879W        W26353   9.389  12.633   6.049  0.0732 -0.2892 -0.2829
 9880W        W26354  11.735  19.016  14.176  0.0295 -0.2817  0.0431
 9881W        W26355   2.718   0.702   2.492  0.2031  0.0607 -0.1220
 9882W        W26356   5.116   3.798  13.582  0.2406 -0.1263 -0.2295
 9883W        W26357  11.288   2.414  13.100  0.0577  0.3105 -0.2423
 9884W        W26358  10.129   6.722  10.440 -0.0939 -0.2896  0.2546
 9885W        W26359  18.004   1.690   4.041 -0.0724 -0.1540  0.2313
 9886W        W26360   0.477   3.758  11.983 -0.2393  0.1731 -0.1554
 9887W        W26361   9.957  13.254   3.982  0.0658  0.1305 -0.0620
 9888W        W26362  15.901  15.541  13.870  0.3278  0.1139 -0.0650
 9889W        W26363   8.607  14.947   1.966  0.4008  0.0103  0.1068
 9890W        W26364   4.652  17.181   4.326 -0.0796  0.2273 -0.1151
 9891W        W26365  12.813   2.835   5.097  0.3025  0.1050 -0.0203
 9892W        W26366   2.721  18.348   4.978 -0.1960  0.1809  0.1568
 9893W        W26367   9.406  17.159  11.753  0.0425 -0.3797 -0.2863
 9894W        W26368   5.019  12.347  11.675  0.0939  0.3511  0.1065
 9895W        W26369  11.824   3.099  14.166  0.0768 -0.0454  0.0903
 9896W        W26370  18.834   0.706   4.397  0.0512 -0.1450 -0.0651
 9897W        W26371   3.762   1.964   1.015 -0.0021 -0.1405 -0.3014
 9898W        W26372   5.810  17.679  11.592  0.2715  0.0544 -0.3280
 9899W        W26373  13.879   1.264  10.854  0.1800 -0.0582  0.1218
 9900W        W26374   1.036   2.274  13.136  0.0379  0.0886  0.0805
 9901W        W26375   0.634   8.540   2.893 -0.2409 -0.0329 -0.1298
 9902W        W26376   9.187   2.357  10.524  0.1686  0.0050 -0.1921
 9903W        W26377  15.677   6.881  11.803 -0.0233 -0.3785  0.2793
 9904W        W26378  15.757  17.621  11.994  0.3047  0.1197  0.3003
 9905W        W26379   2.634   5.783  11.998  0.2764  0.1236  0.1358
 9906W        W26380  17.665   6.211  11.025 -0.2791  0.2619  0.2560
 9907W        W26381  13.227   5.194  13.252  0.2049 -0.0938  0.0559
 9908W        W26382   4.328   3.315  10.580  0.0974  0.0189  0.1941
 9909W        W26383   6.824  16.520   4.577  0.1141 -0.2275  0.1421
 9910W        W26384  15.911  18.691  11.920  0.1317 -0.3561 -0.2207
 9911W        W26385  12.993  18.300   2.639 -0.0043 -0.1517 -0.1920
 9912W        W26386   1.474  19.258   1.838  0.0200  0.0959 -0.0492
 9913W        W26387  16.673   2.150   2.330  0.1738 -0.1699 -0.0055
 9914W        W26388  17.217  14.232  11.413 -0.1245  0.1749  0.1566
 9915W        W26389  19.114   3.852  11.697 -0.0354  0.0051 -0.0312
 9916W        W26390  16.030   9.418   4.767 -0.1289  0.0667 -0.1512
 9917W        W26391  12.061  15.265  14.586 -0.0320  0.1143  0.2219
 9918W        W26392  10.233   4.966   2.036  0.1108  0.2526  0.0832
 9919W        W26393  11.510   6.870   1.980 -0.1412 -0.3550 -0.2585
 9920W        W26394  13.517  18.734   1.398  0.2399 -0.3194 -0.1603
 9921W        W26395  14.176  11.038   0.843 -0.2777  0.2257  0.1047
 9922W        W26396   3.028   1.269  12.765 -0.0394  0.3354  0.0210
 9923W        W26397  17.150   0.324   4.008 -0.0104 -0.2079  0.1575
 9924W        W26398   5.285   4.417  12.568 -0.2670  0.1657 -0.1040
 9925W        W26399   1.806  16.955   2.341 -0.0360  0.0022 -0.1076
 9926W        W26400   4.226   7.919  11.496 -0.1391 -0.1900 -0.0089
 9927W        W26401   2.757   0.024  12.080 -0.0733 -0.2075  0.0059
 9928W        W26402  14.330  19.592  13.300  0.2366  0.1264 -0.0620
 9929W        W26403   5.574  10.599  10.714  0.2337  0.1529 -0.0524
 9930W        W26404  16.895   9.529  12.545  0.0266  0.1886  0.2585
 9931W        W26405  12.095  11.882   9.786  0.0400 -0.2422  0.2554
 9932W        W26406  15.281   4.674  10.860 -0.0144  0.3878 -0.0298
 9933W        W26407  11.683   6.165  11.857 -0.2377 -0.3559 -0.1810
 9934W        W26408  15.589   3.810  10.263  0.1769 -0.1435 -0.1550
 9935W        W26409  17.871  19.218   3.760  0.0159  0.2366 -0.0335
 9936W        W26410  11.453   3.488   2.355  0.2274 -0.1227 -0.1775
 9937W        W26411   5.189  14.893   3.385  0.1480 -0.0923  0.1362
 9938W        W26412  15.372   1.819   1.247  0.0311 -0.0830 -0.0164
 9939W        W26413   0.747  19.528   3.462 -0.2170  0.0818 -0.2399
 9940W        W26414   9.963  18.634   0.205  0.2093 -0.0708  0.1545
 9941W        W26415  12.656  12.337  11.994 -0.0510 -0.2598 -0.0532
 9942W        W26416   5.154   1.063   9.697  0.1736 -0.1362 -0.2129
 9943W        W26417   2.085   9.938  11.676 -0.0007  0.0531  0.2584
 9944W        W26418  10.583  15.998  12.069  0.3338 -0.2005  0.0065
 9945W        W26419   1.846  10.550  12.947 -0.0492 -0.2711 -0.1434
 9946W        W26420  19.494  16.064  12.637 -0.1231  0.0089 -0.0680
 9947W        W26421  11.810  16.521  12.396  0.2552 -0.0803 -0.2603
 9948W        W26422  17.805   0.290   4.479  0.0599 -0.1433 -0.1417
 9949W        W26423   7.322  11.113   4.753  0.0105 -0.0110 -0.1013
 9950W        W26424  14.643  14.234  12.579 -0.0104  0.1362 -0.1168
 9951W        W26425   9.155   2.841   4.545 -0.0900  0.0956 -0.1307
 9952W        W26426  11.068   1.770  11.099  0.0854  0.0604 -0.0252
 9953W        W26427   6.879  16.179  13.397  0.0595 -0.0052 -0.1333
 9954W        W26428  17.526   4.609  10.803  0.0565 -0.3708 -0.0858
 9955W        W26429  12.354   3.910   5.021  0.1736 -0.3213 -0.1039
 9956W        W26430   1.848   9.254   3.888  0.0547 -0.0825  0.2364
 9957W        W26431  11.868   8.522   3.139  0.3240 -0.2087 -0.0419
 9958W        W26432  11.819  19.036  12.134 -0.3169  0.1366 -0.0224
 9959W        W26433   5.052  12.436   4.091 -0.1930  0.0666 -0.2364
 9960W        W26434  11.940  19.116   3.147  0.0572  0.1553 -0.1541
 9961W        W26435  13.637   9.683  11.154 -0.0982  0.1973  0.0298
 9962W        W26436  15.959   8.819   2.254 -0.0553  0.1466 -0.2370
 9963W        W26437   8.622  16.161   3.623 -0.1309 -0.0275  0.1676
 9964W        W26438  15.279   3.304  10.378  0.1393  0.1153 -0.1009
 9965W        W26439   6.999  16.538  11.499 -0.0790 -0.2022 -0.2002
 9966W        W26440   7.326   6.556   4.398  0.0206  0.0784  0.0306
 9967W        W26441  13.583   0.222  11.746  0.0574  0.4460  0.1890
 9968W        W26442   7.632  15.241  14.270  0.0011 -0.2392 -0.3230
 9969W        W26443   1.937   5.286   1.855 -0.0837  0.0085 -0.0063
 9970W        W26444   9.428   7.045  12.037  0.1750 -0.1269  0.0124
 9971W        W26445  13.089  12.639   4.751  0.0560 -0.1426  0.1704
 9972W        W26446  12.298   4.956  13.495 -0.0470 -0.0373  0.1575
 9973W        W26447   8.033  11.750   0.364  0.1368  0.1994 -0.0548
 9974W        W26448  11.788  14.830  14.163  0.1154  0.2425 -0.0472
 9975W        W26449   9.827   6.659   3.096 -0.1194 -0.4241 -0.0172
 9976W        W26450  10.219   9.881   4.229  0.3558  0.0009  0.2511
 9977W        W26451   9.448  13.406   0.477 -0.0728  0.1180 -0.1018
 9978W        W26452  12.238  12.774   1.226 -0.1753  0.1682 -0.3695
 9979W        W26453  15.648   9.332   1.643 -0.0368  0.3009  0.2202
 9980W        W26454   2.279  16.507  11.004  0.0343  0.2020  0.2383
 9981W        W26455  16.118   1.680   2.763  0.0428 -0.0016 -0.0582
 9982W        W26456   6.181   4.874   0.006  0.3327  0.1436  0.0534
 9983W        W26457  13.153   3.771   4.348 -0.2413 -0.1599  0.2977
 9984W        W26458   4.426  14.633  12.041  0.0354 -0.0451  0.2043
 9985W        W26459  10.299  18.360   4.672 -0.2355  0.0910 -0.2997
 9986W        W26460  11.789   4.205  12.001  0.1303  0.0367  0.0156
 9987W        W26461   2.361   7.133  10.684 -0.2680  0.1276  0.0887
 9988W        W26462  18.885  15.239   2.691 -0.1806 -0.2459  0.4322
 9989W        W26463  18.585   6.868   3.902 -0.2093  0.0070 -0.0296
 9990W        W26464   7.777   4.014   1.537  0.1722 -0.3107 -0.0829
 9991W        W26465  13.028  10.821   2.245  0.0377  0.0536 -0.2346
 9992W        W26466  12.823   7.943  13.944  0.2171 -0.1349 -0.0157
 9993W        W26467  17.841   5.528   3.514  0.0930  0.1071  0.0049
 9994W        W26468  19.364   0.282  12.927 -0.2030  0.0737  0.1817
 9995W        W26469   3.861   0.158  12.312 -0.0065 -0.1291  0.2885
 9996W        W26470   5.119  11.424  11.521 -0.0615 -0.0225  0.0952
 9997W        W26471  18.385   0.370  10.432 -0.4837  0.0898 -0.0155
 9998W        W26472   0.385   4.737  14.610  0.1804  0.2503  0.0905
 9999W        W26473  16.970  17.495   1.152 -0.2419  0.1923 -0.0798
10000W        W26474   8.246  10.303   3.184  0.2033 -0.3560 -0.1194
10001W        W26475  11.910   7.990  12.494  0.2353 -0.1789 -0.0756
10002W        W26476   1.569  16.233  11.528  0.2161  0.2196  0.2244
10003W        W26477   5.871  10.202  13.588 -0.1433 -0.1009  0.0039
10004W        W26478  15.714   7.243  13.817 -0.1828 -0.0896 -0.1376
10005W        W26479  10.015  18.443  14.422 -0.0750 -0.0421  0.2205
10006W        W26480   9.672  15.182   4.944 -0.0413 -0.0882 -0.1577
10007W        W26481   9.703  17.820  12.162 -0.0535 -0.1947  0.2005
10008W        W26482   7.372  15.068  11.042  0.3567 -0.0206 -0.3044
10009W        W26483   9.055   1.095  12.043 -0.0979 -0.0890 -0.2190
10010W        W26484   7.025  10.576  10.373 -0.4597 -0.1113  0.1684
10011W        W26485   8.613   3.222   4.412 -0.0123  0.2458  0.2802
10012W        W26486  13.010   5.525   2.858 -0.4083  0.0621  0.2330
10013W        W26487  12.827  13.489   3.760  0.0827 -0.1145 -0.0527
10014W        W26488   4.353  15.993   1.699  0.2131  0.0020  0.1135
10015W        W26489  13.850   7.781   1.896 -0.0274 -0.1285 -0.2203
10016W        W26490  10.640  10.977   4.059  0.0214  0.2086  0.2527
10017W        W26491   8.507   2.397   1.946 -0.2851 -0.3357  0.1494
10018W        W26492  18.200   3.001  13.066 -0.2792 -0.1785 -0.1772
10019W        W26493   5.966   2.256  11.156  0.0966  0.3146  0.1071
10020W        W26494  12.079   9.121   5.313 -0.0621  0.1398 -0.2188
10021W        W26495  13.233   2.797   4.263 -0.0066  0.3269 -0.0687
10022W        W26496  12.484   0.954   2.825 -0.2590  0.0643 -0.0577
10023W        W26497   0.970   5.705  10.119 -0.0441 -0.1268 -0.3728
10024W        W26498   6.557  15.892  13.068  0.0465 -0.0974 -0.1687
10025W        W26499   7.310  11.810  14.480 -0.2720  0.1455  0.0631
10026W        W26500   3.830  19.505   1.674 -0.1008 -0.0253  0.1335
10027W        W26501  16.321   5.947   4.154 -0.0476  0.3718 -0.0147
10028W        W26502   5.381  11.064  10.795  0.1686 -0.3265  0.0306
10029W        W26503   3.378  14.411   9.956 -0.2892  0.2515 -0.0626
10030W        W26504  15.040   3.355   2.325 -0.1101  0.0601  0.1420
10031W        W26505  14.230  16.641   4.403 -0.5210 -0.0487  0.0068
10032W        W26506   0.199  14.970   2.576 -0.0718  0.1356 -0.2330
10033W        W26507   9.683  17.865   0.845 -0.0901  0.2217 -0.1713
10034W        W26508   1.906   0.663  13.522  0.0318 -0.1150  0.3293
10035W        W26509  19.147   8.081   2.682  0.0830  0.2834  0.0623
10036W        W26510  13.139  11.174  10.987 -0.0040 -0.2738  0.1220
10037W        W26511   8.126  10.072   4.339 -0.0447  0.2206  0.2107
10038W        W26512  13.167   0.005  11.941 -0.1250  0.1750  0.0905
10039W        W26513  18.246  14.688  12.584  0.1325  0.1185  0.2077
10040W        W26514  13.230   3.399  14.375 -0.0739 -0.0700  0.1302
10041W        W26515  16.899   7.075   0.862  0.1191 -0.3525 -0.3747
10042W        W26516   4.582   5.684  14.260  0.1731  0.1596  0.1776
10043W        W26517   9.386   5.646   3.235 -0.0733 -0.0509  0.0176
10044W        W26518  11.665   0.649   2.467  0.1752  0.0666  0.2366
10045W        W26519  18.596  17.317  14.327 -0.1048 -0.0744 -0.0041
10046W        W26520   9.184   6.708   1.069 -0.3379  0.3370  0.0932
10047W        W26521  14.335  15.939   0.310  0.2835 -0.0749 -0.0894
10048W        W26522   9.335   2.204   0.864 -0.4370  0.0532 -0.1152
10049W        W26523  12.054  11.438  11.305  0.2434 -0.0210 -0.3429
10050W        W26524  15.533   8.904  11.530 -0.1652 -0.0986 -0.0205
10051W        W26525  13.027   3.430  10.630  0.0875 -0.1981 -0.0500
10052W        W26526   7.226  16.099  12.082 -0.1241  0.2302 -0.2382
10053W        W26527   0.357   7.025   1.447  0.0761  0.3336 -0.2572
10054W        W26528   6.390  19.336  12.101  0.3762  0.0372  0.0114
10055W        W26529  16.908  16.624  11.335  0.4302  0.0161  0.0224
10056W        W26530  13.347   9.222  11.277 -0.0652 -0.1584  0.3345
10057W        W26531  19.291  14.927   1.682  0.1135  0.0159  0.2335
10058W        W26532   6.632   5.668   2.799 -0.2357 -0.1592 -0.1714
10059W        W26533  15.392  16.467   0.338  0.3435 -0.1367 -0.3920
10060W        W26534   3.857  19.330   2.706  0.1914 -0.0639 -0.2253
10061W        W26535   4.272  16.232  10.266 -0.1995  0.2679  0.0467
10062W        W26536  12.392   1.241  10.980  0.1029  0.1298 -0.1781
10063W        W26537  14.746   4.150  13.217  0.0844 -0.1874 -0.1418
10064W        W26538  13.075  13.742  12.430 -0.2723 -0.3051 -0.2567
10065W        W26539   1.379  12.025   4.616 -0.0719 -0.0934 -0.1636
10066W        W26540  10.888  17.742   0.131  0.1496 -0.0245 -0.1296
10067W        W26541   5.389   1.893   2.242  0.1344  0.1525 -0.1706
10068W        W26542   7.870  12.238   3.366 -0.0553 -0.0795 -0.1340
10069W        W26543  13.563   4.708   4.037  0.2087 -0.0912  0.1292
10070W        W26544  16.226  15.132  13.966  0.0822  0.0566  0.0380
10071W        W26545   8.685  13.804  10.571 -0.0746  0.1450  0.0848
10072W        W26546   4.431   0.883  12.029  0.2138  0.2487  0.4378
10073W        W26547   9.156   5.242  14.558 -0.0477 -0.2067  0.0805
10074W        W26548   0.427   7.905   0.252 -0.2038  0.1798 -0.1040
10075W        W26549   9.851  11.751  13.977  0.1114 -0.4378  0.0820
10076W        W26550   7.147  13.702   9.657 -0.1204  0.0250  0.0093
10077W        W26551  19.531   9.925   1.842 -0.0057  0.2325 -0.1413
10078W        W26552   5.754   9.628  11.437 -0.1352 -0.4349  0.1933
10079W        W26553  17.010  18.815  12.745 -0.0090  0.2800  0.0006
10080W        W26554   9.736  19.178   0.091  0.1741  0.0245  0.0707
10081W        W26555   8.717   7.346   3.481  0.0761 -0.1002 -0.2426
10082W        W26556  15.108   5.644  11.792 -0.1508 -0.1986  0.2616
10083W        W26557   9.191  10.630   1.578  0.0638  0.1327 -0.0751
10084W        W26558   5.042   2.815  10.040 -0.2039  0.0049 -0.1709
10085W        W26559  10.012  11.252  11.542  0.0722 -0.0491 -0.0462
10086W        W26560  12.905  18.075   3.609 -0.2579 -0.0087  0.4335
10087W        W26561  15.601   7.949   2.302 -0.3012 -0.0486 -0.0606
10088W        W26562  19.232   9.077  11.121  0.1001  0.1153 -0.0696
10089W        W26563  16.703   4.809   3.348 -0.0779  0.0942  0.3837
10090W        W26564   2.474  17.331  10.857  0.3245  0.1521  0.0237
10091W        W26565   8.465  12.922  14.076  0.4227 -0.1757 -0.1791
10092W        W26566  18.153  15.077  12.198 -0.4515  0.1286 -0.0295
10093W        W26567   0.416   5.221   1.145  0.1434 -0.0470  0.1847
10094W        W26568  12.379   9.028  13.656  0.1444  0.3126 -0.2107
10095W        W26569   1.483   3.268   4.155 -0.1344  0.3752  0.1771
10096W        W26570  16.409   9.185  10.683 -0.0026  0.2457  0.0045
10097W        W26571   9.564  12.978   5.630 -0.2152  0.0683  0.0353
10098W        W26572  16.451  10.322  12.501  0.1821  0.0313  0.2469
10099W        W26573   1.151  15.633  14.059 -0.0361 -0.0405 -0.0427
10100W        W26574   1.547  17.109   3.821  0.1443  0.2470 -0.0360
10101W        W26575   3.462   7.809  13.697  0.4477  0.0536  0.0467
10102W        W26576   8.053   1.562   2.258 -0.0501  0.0892 -0.3352
10103W        W26577   4.520  17.724   3.064  0.0251  0.2453  0.1722
10104W        W26578   9.628  15.372  11.192  0.1959  0.0877 -0.2673
10105W        W26579   6.603  18.171  12.730 -0.0515 -0.1178  0.5389
10106W        W26580  11.530   7.600   1.897  0.0491  0.1620 -0.1194
10107W        W26581   6.642  15.395   2.902  0.0566 -0.0264 -0.2341
10108W        W26582   6.949   6.471  11.734 -0.0897  0.1638 -0.0077
10109W        W26583   1.975  13.083  10.326  0.0580 -0.2285  0.2026
10110W        W26584  12.109   3.450  13.476  0.0000  0.0283 -0.0090
10111W        W26585   5.835  11.562  14.176 -0.1102 -0.2864 -0.1585
10112W        W26586  16.845  13.144  12.795  0.0683  0.0480  0.0608
10113W        W26587  13.052   8.777   4.686  0.3507  0.0716  0.1603
10114W        W26588  19.369  14.895   2.242  0.0603 -0.0313 -0.2040
10115W        W26589   4.751   3.834  13.012  0.4100 -0.1282 -0.2245
10116W        W26590   2.168  13.997  13.713  0.1443  0.4127  0.0008
10117W        W26591  18.872  14.300  13.536  0.1137  0.1369 -0.0856
10118W        W26592  16.574   9.244  13.695 -0.0955 -0.2925 -0.2026
10119W        W26593  12.209  14.210   2.413 -0.0205 -0.3549  0.2462
10120W        W26594   8.186   4.417   5.068 -0.1509  0.0740 -0.0205
10121W        W26595  19.462  12.486   5.517 -0.1271 -0.0656 -0.1863
10122W        W26596   4.439  15.525  10.979 -0.1150  0.0579  0.2261
10123W        W26597   6.712   9.487   1.911 -0.3223 -0.2997 -0.1629
10124W        W26598  19.206  12.175  10.287  0.1428  0.0991  0.2619
10125W        W26599  18.210  15.512   1.710  0.2451  0.3401  0.0775
10126W        W26600  17.136   4.895  10.933 -0.1484  0.0676 -0.2134
10127W        W26601   3.911   5.786   0.901 -0.0392 -0.2954 -0.1776
10128W        W26602   7.710   7.923  11.167 -0.3302 -0.0745 -0.0729
10129W        W26603   4.067  10.171   3.580  0.0598  0.2763  0.3735
10130W        W26604  17.706   6.693   3.539  0.2383 -0.1603 -0.0104
10131W        W26605  19.330  15.549  13.071  0.1688 -0.0109  0.2286
10132W        W26606   1.558  11.689   0.394  0.1125  0.1196  0.2386
10133W        W26607   3.903  14.045  11.126 -0.1797 -0.0096  0.0614
10134W        W26608   3.539  12.208   0.689  0.0143  0.1345 -0.0772
10135W        W26609  10.352   2.110   0.112  0.1165 -0.2171 -0.2286
10136W        W26610   3.767  12.276   1.993 -0.0955 -0.1688 -0.1246
10137W        W26611  14.782   5.198   0.690  0.1137 -0.1435 -0.4460
10138W        W26612   6.614   1.627   3.451 -0.2002  0.0781 -0.1956
10139W        W26613  11.045  12.245   4.781 -0.1730 -0.2337 -0.1960
10140W        W26614   9.002  13.470  12.234  0.0692  0.2047  0.2386
10141W        W26615  11.450  15.388  13.534  0.2872 -0.0865 -0.2130
10142W        W26616  12.108   4.949  13.987  0.0808  0.1420 -0.0693
10143W        W26617  18.001   7.245  10.966  0.1866 -0.3479  0.2827
10144W        W26618  18.348  11.511   1.814 -0.2502 -0.1646 -0.1099
10145W        W26619   1.001   0.436  14.003 -0.1224 -0.1315  0.1149
10146W        W26620  15.197  10.365  10.632  0.1117  0.0449  0.1554
10147W        W26621  14.425   8.293  10.828  0.1415 -0.0364  0.1861
10148W        W26622  15.431  13.808   4.240  0.2736 -0.0776 -0.1008
10149W        W26623  18.324   7.392  11.332 -0.3715  0.0675 -0.0500
10150W        W26624  14.857   8.492  12.403  0.2095 -0.2344  0.2886
10151W        W26625   4.232   5.771   4.069  0.0588 -0.0199  0.2273
10152W        W26626   9.271  19.474  11.099 -0.1406 -0.0992 -0.0952
10153W        W26627  16.180   8.476  13.517 -0.0229  0.1762  0.0324
10154W        W26628   7.272   0.865   1.940 -0.1202 -0.3100  0.0084
10155W        W26629   1.922  16.940  10.389  0.1895  0.0204  0.1970
10156W        W26630   4.030   2.657   2.948 -0.0032  0.1951 -0.1540
10157W        W26631   0.681  18.909   1.126 -0.2149  0.0989 -0.0368
10158W        W26632   1.097   4.008  10.795 -0.1491 -0.2055 -0.0279
10159W        W26633   9.060  12.988  14.131 -0.1818 -0.0724 -0.1063
10160W        W26634  18.937  17.201  12.615  0.0917  0.1579 -0.0937
10161W        W26635   2.003  13.542   0.749  0.0815 -0.0655  0.2291
10162W        W26636   2.586  19.363  10.636 -0.0594 -0.0324  0.1647
10163W        W26637   4.875  11.854   1.116  0.0714  0.1104 -0.1135
10164W        W26638   8.988  15.926   3.057  0.2965  0.0792  0.2931
10165W        W26639  16.937  17.550   4.156 -0.0846  0.0462 -0.2464
10166W        W26640  14.464   4.907  14.312 -0.0959 -0.2003 -0.0511
10167W        W26641   3.759  16.080  10.412  0.1644  0.1523  0.2300
10168W        W26642  17.946  10.495   1.745  0.2062 -0.0220  0.3210
10169W        W26643   3.124   4.258   3.860  0.1183  0.0813 -0.1305
10170W        W26644   8.554   5.905  12.257 -0.0849  0.1762  0.1221
10171W        W26645   7.213  14.426   3.708  0.3547 -0.3324 -0.4598
10172W        W26646   0.727   3.975   2.507 -0.1110 -0.3922  0.0770
10173W        W26647   3.512   2.924   0.167 -0.1421 -0.2556  0.0152
10174W        W26648  15.082   2.677  12.197  0.0530  0.1558  0.1356
10175W        W26649   2.495   2.005  12.668  0.0223 -0.3650  0.1106
10176W        W26650  17.553  14.647  13.122  0.2621  0.0732 -0.1441
10177W        W26651  14.219   7.690  11.397 -0.3113 -0.3991  0.1421
10178W        W26652   6.107  18.401  14.247  0.4152 -0.0011  0.1060
10179W        W26653  12.958   2.629   3.891  0.1113 -0.4272 -0.2441
10180W        W26654   4.532   1.307   2.332 -0.1152 -0.1468 -0.1575
10181W        W26655   0.085   8.704   1.254 -0.2334  0.0913 -0.0008
10182W        W26656  12.699   9.106   2.316  0.0092 -0.2225 -0.1063
10183W        W26657   0.690  11.752   1.142  0.3195  0.0042 -0.0095
10184W        W26658   4.902  10.067   0.634 -0.3926  0.0938 -0.0689
10185W        W26659  11.013   7.028   4.133 -0.3137 -0.3209 -0.2700
10186W        W26660   0.043  15.008   4.552 -0.0432 -0.2482  0.1790
10187W        W26661  10.773   4.513   1.226  0.1046  0.0923  0.0208
10188W        W26662   3.265   9.641   4.033  0.6193 -0.1176 -0.0870
10189W        W26663  10.402   5.749   2.435 -0.0654 -0.3014  0.0407
10190W        W26664  15.063  17.893   1.430  0.2167 -0.2387 -0.1037
10191W        W26665  18.862  18.535   4.235  0.2989 -0.0066  0.0529
10192W        W26666   0.660  13.456   4.558 -0.4069 -0.2477  0.1868
10193W        W26667   2.617  19.288   3.741 -0.1139 -0.0692 -0.1262
10194W        W26668  19.495   8.176   3.063 -0.1024 -0.1063  0.1550
10195W        W26669  11.326  11.258   3.514 -0.2017  0.1697 -0.0906
10196W        W26670   2.662   9.891   1.221 -0.1017 -0.1261  0.1252
10197W        W26671  19.135   2.242   0.289  0.0879 -0.1544  0.1015
10198W        W26672  12.101   6.250  13.469  0.2549  0.0976  0.0634
10199W        W26673  15.526  19.246  11.313 -0.2249  0.0330  0.1358
10200W        W26674   4.256  17.014  14.337 -0.1812 -0.0743  0.0344
10201W        W26675   7.216   4.170   0.508  0.2939  0.1796 -0.1502
10202W        W26676   1.315   5.334   0.167 -0.0016 -0.2149  0.5242
10203W        W26677   3.823  18.887   1.912  0.2152  0.1352  0.1329
10204W        W26678  15.331   3.146  13.886 -0.1604  0.0924  0.0672
10205W        W26679  12.751  17.578   0.959  0.0181  0.1024  0.0769
10206W        W26680   2.429   0.415   2.037  0.0479 -0.3536 -0.1177
10207W        W26681  17.761  15.502   1.999 -0.3022 -0.5615  0.1111
10208W        W26682  10.758   7.777  14.574  0.0670  0.2063  0.3545
10209W        W26683   1.466   1.127  10.942 -0.0600  0.3148 -0.1652
10210W        W26684   7.864   5.617   5.315  0.0226 -0.0901 -0.1650
10211W        W26685   0.895  18.331  14.606  0.3748  0.1080  0.0124
10212W        W26686  13.260  18.555   4.659  0.2543  0.1434  0.0810
10213W        W26687   8.917  19.254   1.961 -0.3818  0.2236 -0.1620
10214W        W26688  14.589   5.131  12.598 -0.2280 -0.2151 -0.3222
10215W        W26689  13.676   2.996   4.201  0.0665  0.0431  0.3494
10216W        W26690   6.613   8.853  12.175 -0.0543  0.0863  0.0019
10217W        W26691  11.792   6.609   1.053 -0.2799 -0.0970  0.3283
10218W        W26692   3.503  15.191   4.178  0.2839  0.0531  0.0253
10219W        W26693   6.859   7.926   3.394 -0.1755 -0.4530 -0.2921
10220W        W26694  13.179  17.937  13.303 -0.0939  0.0176 -0.1782
10221W        W26695  16.164  11.970  14.319 -0.1045 -0.0885  0.1245
10222W        W26696  13.753  18.619  12.217 -0.0585 -0.0708 -0.2252
10223W        W26697  15.434  10.786  11.828  0.1701 -0.1955 -0.2444
10224W        W26698   0.662  11.951   0.027  0.0478  0.1529  0.2229
10225W        W26699   6.623  17.011  13.439  0.3834 -0.0516 -0.2646
10226W        W26700   0.880  11.698   5.611 -0.1293  0.0280  0.1611
10227W        W26701   1.136   7.872   3.423 -0.1352 -0.2640 -0.1544
10228W        W26702   1.365  10.454   3.943  0.3703  0.3067  0.3541
10229W        W26703  19.393   0.579  14.663 -0.1257  0.0332  0.2183
10230W        W26704  10.289   9.131  12.328 -0.1861 -0.1307 -0.1892
10231W        W26705   6.257  17.575  10.545  0.1399  0.1614 -0.0544
10232W        W26706  18.465   9.020   0.400  0.1284 -0.1861  0.1563
10233W        W26707  13.083  17.841  12.383 -0.3955  0.1610  0.1531
10234W        W26708   3.758   1.774  10.242  0.4552 -0.1726 -0.0269
10235W        W26709   5.374  12.414  10.792 -0.2350 -0.0911 -0.1709
10236W        W26710  14.202   9.029   5.311 -0.1192  0.1236  0.4697
10237W        W26711  10.212   4.251  13.273  0.0811 -0.0070 -0.0698
10238W        W26712   2.211   0.306  11.858 -0.3560  0.0851  0.2084
10239W        W26713   0.535   8.909   0.128 -0.2099  0.1023  0.1272
10240W        W26714  13.532  19.315  10.800  0.2336  0.0314 -0.0122
10241W        W26715  10.659  12.199  14.407 -0.1117  0.1449  0.2600
10242W        W26716  12.630  14.056   4.658  0.2881 -0.2891 -0.4003
10243W        W26717   9.767  11.341  14.425 -0.3261 -0.4332  0.0267
10244W        W26718   8.375  17.204   5.663  0.3341  0.1037  0.0996
10245W        W26719  13.113   1.778   4.971  0.2892  0.3298  0.5398
10246W        W26720   9.421   1.874   3.346 -0.2990 -0.1169 -0.4407
10247W        W26721  14.111   4.745  12.185  0.2336  0.2983 -0.0006
10248W        W26722   1.038  10.647  14.385 -0.0208 -0.0408  0.2996
10249W        W26723   6.390   4.759  11.213 -0.0432 -0.2038 -0.2961
10250W        W26724   6.832  12.957   5.161  0.0989  0.0639 -0.3857
10251W        W26725  17.852   8.061   2.019  0.3255 -0.0288  0.0934
10252W        W26726   5.962  16.462   1.721  0.0811 -0.0968 -0.2397
10253W        W26727  13.137  19.287   3.619  0.1620 -0.2006  0.3213
10254W        W26728  12.803   5.106   3.914 -0.3093  0.0658  0.0906
10255W        W26729  19.479  14.534   3.487 -0.0452 -0.2689 -0.0334
10256W        W26730  14.229  15.046   1.296 -0.0136 -0.1367 -0.1937
10257W        W26731   5.135   0.503  12.097 -0.0173 -0.2451 -0.0857
10258W        W26732  18.671  10.136  12.910  0.0817  0.1991 -0.1200
10259W        W26733   5.165  12.880  11.441 -0.0195 -0.1333 -0.1493
10260W        W26734   0.145  16.640   0.868  0.3005  0.2371 -0.1632
10261W        W26735   4.602   7.817   0.734  0.0756  0.0353  0.3860
10262W        W26736   1.082  11.034   2.646  0.0246 -0.2535 -0.2921
10263W        W26737   4.477   3.988   2.799 -0.3039 -0.0122 -0.2284
10264W        W26738   0.036  15.498   0.392 -0.2478  0.1866 -0.1815
10265W        W26739  16.461   4.046   3.624  0.1183  0.4129  0.0904
10266W        W26740   0.576   6.460  12.634 -0.1813 -0.0448 -0.6111
10267W        W26741   2.708  10.249  10.799  0.0801  0.0062 -0.0119
10268W        W26742   1.788  19.011  11.696  0.1991  0.1830 -0.1240
10269W        W26743   2.421  10.745   2.233 -0.0451 -0.3435  0.0787
10270W        W26744   8.045   5.662   0.617 -0.2018 -0.0374  0.1897
10271W        W26745   0.614   6.856   0.310 -0.0903 -0.0343  0.1022
10272W        W26746   0.095  14.568   4.113 -0.1068 -0.1274  0.2097
10273W        W26747  16.984   3.619  13.268 -0.1144  0.2737  0.0650
10274W        W26748   4.510  12.674  10.310 -0.0253 -0.1715  0.2561
10275W        W26749  13.224  16.420   4.892  0.1065  0.2751  0.2134
10276W        W26750   3.478  18.543   0.276  0.1437 -0.0387 -0.2009
10277W        W26751   9.387   2.157  11.811  0.1183 -0.0228 -0.3398
10278W        W26752  12.118   0.189  13.931 -0.2136  0.3565 -0.3712
10279W        W26753   6.033  12.734  13.054 -0.1131 -0.2429 -0.1506
10280W        W26754  11.648  14.341  12.216 -0.4391 -0.2035 -0.1120
10281W        W26755  12.396   6.997  10.448  0.0045  0.4069  0.0830
10282W        W26756  16.931  12.286   3.935  0.2871  0.0892  0.1735
10283W        W26757   9.460  18.367  10.837  0.0211 -0.3112 -0.1992
10284W        W26758   5.562   1.298  14.185  0.0539 -0.2318 -0.0542
10285W        W26759  15.504  15.731   3.846 -0.1642  0.0102 -0.0318
10286W        W26760  17.613  15.078   2.180  0.0040  0.1066 -0.0656
10287W        W26761   5.337  18.941   4.345 -0.0726 -0.1554  0.0456
10288W        W26762   2.313   7.994   1.582  0.0299 -0.1492  0.0759
10289W        W26763   0.672   0.739   4.167 -0.1160 -0.0363  0.2694
10290W        W26764   5.833  10.415  11.127  0.1505  0.1498 -0.2584
10291W        W26765   3.979  17.178  11.110  0.1743 -0.2733 -0.1546
10292W        W26766   7.492   2.514   2.162  0.0515 -0.2281  0.4301
10293W        W26767  19.001  12.004   1.403  0.0015  0.2371 -0.0103
10294W        W26768   5.676  15.209   0.850 -0.2011  0.1152 -0.2680
10295W        W26769  17.948   4.605   1.518  0.1233  0.2727  0.1884
10296W        W26770   8.913   4.099   3.001 -0.0920 -0.2124  0.0100
10297W        W26771   4.805  10.500   5.658 -0.0209  0.1822  0.0978
10298W        W26772   8.649  16.907   2.412 -0.1886 -0.0844  0.1174
10299W        W26773  12.067  13.054   1.583 -0.0705 -0.3206  0.1726
10300W        W26774   4.714  10.880  11.402  0.3476 -0.2305 -0.3512
10301W        W26775  10.545   8.181   1.901 -0.3883  0.0224 -0.2035
10302W        W26776   3.465  10.810   2.268 -0.4302 -0.1071 -0.2932
10303W        W26777  19.037   0.238  12.049  0.2090  0.0082  0.1303
10304W        W26778   8.487   5.307   3.543 -0.3186  0.1379  0.0552
10305W        W26779  15.153   3.612   3.757  0.1048 -0.2364  0.3336
10306W        W26780  13.034   4.477  10.897  0.2161  0.0839  0.1729
10307W        W26781   5.133  19.514  10.358 -0.0069  0.0929 -0.0445
10308W        W26782   8.907  14.858  11.228  0.0100  0.0426  0.0572
10309W        W26783   3.789   8.544   2.254 -0.1985  0.0844  0.0333
10310W        W26784  18.329  10.986   2.792  0.2184 -0.1254  0.0058
10311W        W26785   2.783   1.026   3.331  0.0657  0.0774  0.1887
10312W        W26786   5.442   9.143  11.739 -0.1676  0.0722 -0.4033
10313W        W26787   4.332  10.356  14.589 -0.2500  0.0162 -0.1719
10314W        W26788  17.321  19.211  14.399  0.3053  0.1860 -0.3230
10315W        W26789   2.314   6.787  11.002  0.0305  0.0247  0.0946
10316W        W26790   9.436   7.621  11.759 -0.0153 -0.3251  0.0183
10317W        W26791  11.324   4.556   3.835 -0.0461  0.1972  0.2923
10318W        W26792  18.651  18.581   0.344  0.2343  0.1846  0.2614
10319W        W26793   4.447   1.597  10.246  0.1808  0.2616 -0.0734
10320W        W26794  14.986   0.092   2.906  0.3159  0.3749 -0.1166
10321W        W26795  15.291   6.376   3.415  0.2118 -0.2135  0.0638
10322W        W26796   7.420  14.076   3.325 -0.2693 -0.0400 -0.0875
10323W        W26797   8.021   8.181   0.624 -0.2509  0.1405 -0.3107
10324W        W26798  19.336   1.910   2.667 -0.3085  0.3179 -0.0863
10325W        W26799  10.315  12.390   3.933  0.3307  0.0993  0.0148
10326W        W26800   4.456  11.502  13.660 -0.4385 -0.2520  0.1866
10327W        W26801   4.977   8.771  14.448 -0.1071  0.0686  0.4069
10328W        W26802  11.619   7.292   9.933  0.1329  0.1056  0.0417
10329W        W26803   6.882   0.403   0.952 -0.0881 -0.2807  0.2286
10330W        W26804   6.164  12.915   0.812  0.1281 -0.0471 -0.1705
10331W        W26805  15.220   1.507  12.664  0.0328 -0.2708  0.2528
10332W        W26806  13.134   9.686   0.802 -0.2760 -0.1336  0.1012
10333W        W26807  11.754   5.255   2.527 -0.1374  0.2043  0.0449
10334W        W26808   4.056   7.713   3.760  0.1417 -0.1677 -0.1826
10335W        W26809  12.819   8.734  14.500 -0.0493  0.3447 -0.1956
10336W        W26810   9.142   0.153   0.819 -0.4247 -0.1583 -0.0215
10337W        W26811   0.109   6.479  14.093  0.2298  0.1179  0.0409
10338W        W26812  12.637  14.055   1.955 -0.2042 -0.0343  0.0336
10339W        W26813  12.089   8.215   0.952 -0.1594 -0.3060  0.0641
10340W        W26814   2.883  16.123  10.347  0.1873 -0.0168  0.1202
10341W        W26815   3.365   5.517   0.079 -0.1703 -0.0818  0.2362
10342W        W26816   7.910  10.511   1.566  0.0870 -0.1888  0.3705
10343W        W26817   9.682  15.404  12.668  0.1018  0.0316  0.2974
10344W        W26818   6.860   6.988   2.202 -0.0085 -0.3129 -0.0971
10345W        W26819   6.714   4.439  12.988 -0.0735  0.2891  0.3246
10346W        W26820  12.006   1.986   2.591 -0.1277 -0.1186 -0.2105
10347W        W26821   3.984   9.020   0.395  0.2084  0.0940  0.2304
10348W        W26822  11.322   5.336   0.692  0.2379  0.1916 -0.0273
10349W        W26823   4.646  11.297   4.570  0.0247 -0.0703  0.4141
10350W        W26824  13.512   5.723   5.738  0.0792  0.2029 -0.2817
10351W        W26825  11.531  15.264   1.541 -0.0847  0.3027 -0.0574
10352W        W26826   1.993  14.045   1.924  0.2384 -0.0349  0.2299
10353W        W26827  11.184  10.664  12.356  0.1526 -0.1198  0.1388
10354W        W26828   7.082  12.814  13.036 -0.1081 -0.0436  0.1093
10355W        W26829  19.124  11.373  13.471 -0.0068 -0.1564  0.0817
10356W        W26830   2.157  10.611   0.811 -0.2256 -0.0460  0.0178
10357W        W26831   3.696   6.620   3.389 -0.2266  0.1463 -0.0505
10358W        W26832   3.135   8.667   2.517 -0.0567  0.0145 -0.1360
10359W        W26833  17.570  11.896   5.071 -0.1031 -0.0455  0.2028
10360W        W26834   4.179  11.079   1.534 -0.1247 -0.0066 -0.2264
10361W        W26835   3.607  12.025   2.718  0.0225  0.0629  0.0880
10362W        W26836  19.317  12.435   0.176 -0.1897  0.1068  0.3096
10363W        W26837  13.187   7.632  14.306 -0.0702 -0.0919  0.2172
10364W        W26838  14.200   4.106   4.256 -0.2962 -0.2173  0.1310
10365W        W26839   9.580   2.699  11.774  0.2115 -0.1821 -0.1472
10366W        W26840   2.705  17.984  12.236  0.0945 -0.0131  0.1041
10367W        W26841  15.609  12.895   4.993  0.0394  0.0173 -0.2853
10368W        W26842   8.421  14.120  12.648  0.2530 -0.2406 -0.1393
10369W        W26843  11.087   8.198  13.223 -0.0587 -0.2023 -0.0299
10370W        W26844  10.204   6.112   1.490 -0.1454  0.4061  0.1287
10371W        W26845  10.155   9.647  10.349 -0.0008 -0.0228  0.0026
10372W        W26846   1.035  12.056   0.394  0.3038 -0.0004  0.0691
10373W        W26847  14.900  18.171  10.928 -0.0865  0.1805 -0.0333
10374W        W26848   3.381   5.851   1.034  0.0547 -0.0536  0.1429
10375W        W26849   6.653   3.177   3.084  0.0787 -0.5171 -0.0133
10376W        W26850  17.547  12.702   0.565  0.1947 -0.0207 -0.0545
10377W        W26851  10.407  10.498  14.435 -0.0915 -0.0314 -0.0997
10378W        W26852   8.273   5.927   1.849  0.0137  0.0995 -0.1556
10379W        W26853  16.241  17.195   3.305 -0.1686 -0.2516  0.0066
10380W        W26854  13.776   6.588   3.288 -0.0446 -0.1225 -0.2526
10381W        W26855   0.141  15.074   1.527  0.2987  0.1199 -0.0399
10382W        W26856  13.339   3.620  11.091 -0.0056 -0.1472  0.4354
10383W        W26857  18.881  12.111   2.887  0.1924  0.0486  0.2719
10384W        W26858  10.514  16.839  10.520 -0.2441 -0.1027  0.0406
10385W        W26859   3.076   7.208  14.090  0.1131 -0.1066 -0.2048
10386W        W26860   9.848   9.735   3.135 -0.0887  0.0155 -0.0845
10387W        W26861  12.079  14.652  12.952  0.1012  0.2372  0.1571
10388W        W26862   1.246  15.231  14.307  0.1058 -0.0666 -0.0983
10389W        W26863   7.244  11.311  10.761  0.2564 -0.1999 -0.0356
10390W        W26864   6.163   3.951   3.367  0.0475  0.4547  0.1015
10391W        W26865  18.547  18.195   2.885 -0.4127  0.5358 -0.0067
10392W        W26866   7.671  15.780  13.565  0.2360 -0.0446  0.0621
10393W        W26867   5.134  19.103   3.881 -0.0372 -0.1251 -0.4336
10394W        W26868  13.550  10.054   3.841 -0.1489 -0.0174  0.0164
10395W        W26869  19.533   4.130  13.379 -0.0293 -0.1601 -0.1521
10396W        W26870  14.419  18.790  13.142  0.5733 -0.1886  0.1265
10397W        W26871  16.861   4.847   0.006  0.0224  0.3326  0.0283
10398W        W26872  17.082   3.113   2.388 -0.2858  0.3974 -0.0946
10399W        W26873  14.013  17.208   2.915 -0.1025 -0.1326  0.0575
10400W        W26874   1.284  12.044  13.841 -0.3573  0.2238  0.0942
10401W        W26875  19.388   0.769  12.640 -0.2563 -0.2919 -0.0648
10402W        W26876  11.220  18.549   3.452  0.1627 -0.1739  0.1288
10403W        W26877   5.097  11.520  10.626  0.1801  0.4023 -0.1651
10404W        W26878  19.312  15.107   3.371 -0.0702  0.0047 -0.1162
10405W        W26879  14.985  19.435  10.336 -0.1234  0.0326 -0.2529
10406W        W26880  18.659   1.647   4.094  0.0677  0.3980  0.4528
10407W        W26881  13.983  16.291   3.237  0.0112 -0.0258  0.1012
10408W        W26882  18.517  11.671   2.342  0.0801 -0.1299  0.0951
10409W        W26883  12.982  12.119   9.774 -0.1676  0.0505  0.0112
10410W        W26884   0.340   8.420   3.267 -0.3327  0.0995 -0.4256
10411W        W26885  19.181  12.344  12.479 -0.0671  0.0343 -0.0706
10412W        W26886   2.650  13.251  11.247  0.1335  0.4635 -0.0392
10413W        W26887   3.981  12.503   3.468  0.2926  0.2782  0.1437
10414W        W26888  19.149  10.535  10.577 -0.1519  0.0668 -0.0021
10415W        W26889   5.389   0.799   1.419  0.1062 -0.4291 -0.0231
10416W        W26890  18.733  19.245   9.676 -0.0813  0.1817  0.1155
10417W        W26891   4.632  11.515   4.032  0.2491 -0.0273  0.0466
10418W        W26892  10.153  13.694   5.395 -0.0469  0.0518 -0.1024
10419W        W26893  10.524  16.762  13.930 -0.0930 -0.0956 -0.1152
10420W        W26894  17.122   5.228  13.109  0.0981  0.4565 -0.1421
10421W        W26895   4.903   3.179   3.255 -0.1741  0.1781 -0.0341
10422W        W26896  14.477  14.609  14.090 -0.0990 -0.1250 -0.0523
10423W        W26897   8.761  10.616  10.783 -0.0596  0.1279 -0.3529
10424W        W26898  10.673  18.225   5.783 -0.0029 -0.0356  0.2364
10425W        W26899  15.095   1.271   0.505 -0.3178  0.1327 -0.1016
10426W        W26900   1.296  15.250  13.760  0.2030  0.1929 -0.1397
10427W        W26901  19.134   3.906   3.290  0.3417  0.1468  0.2933
10428W        W26902  17.828  16.471   0.654  0.0692  0.2839  0.2269
10429W        W26903   2.277   4.149  11.574  0.2912  0.2441 -0.1880
10430W        W26904   8.618   5.628  14.469 -0.5479  0.3019 -0.1029
10431W        W26905  18.264  13.132  10.292  0.0488  0.1658  0.1660
10432W        W26906  14.694   3.873  13.713 -0.1618 -0.2073  0.0635
10433W        W26907   4.580   1.568   0.346 -0.4044  0.2477  0.0772
10434W        W26908  15.074   4.144   4.239 -0.0264  0.5200 -0.3673
10435W        W26909  15.888   0.726  10.849  0.1872 -0.1263 -0.2336
10436W        W26910  10.973   4.682   4.988 -0.0012 -0.2303  0.2531
10437W        W26911   0.125   9.977   0.995  0.2004  0.4015 -0.1170
10438W        W26912  19.042   0.712   3.942 -0.0635  0.1216 -0.2327
10439W        W26913  19.117   1.429  11.240 -0.2174 -0.1015 -0.1721
10440W        W26914   2.083  18.577   0.880  0.0214  0.1378 -0.0152
10441W        W26915   4.384  15.919   3.208  0.1499 -0.2784  0.2267
10442W        W26916  19.118   5.168  11.273  0.5061 -0.1945 -0.2743
10443W        W26917  18.153  17.418   4.817  0.0348 -0.0890 -0.1065
10444W        W26918   3.280  12.191   1.127 -0.1173 -0.2538 -0.1154
10445W        W26919  16.761  10.815  11.578  0.2883 -0.0438 -0.0328
10446W        W26920   1.642   6.623  14.274  0.1686 -0.1878  0.2414
10447W        W26921  14.969  18.092  12.104  0.4072  0.1615 -0.2125
10448W        W26922  16.329   6.966   4.486  0.0598 -0.1666  0.0219
10449W        W26923  15.781  17.074   3.525 -0.2418  0.0979 -0.3061
10450W        W26924   6.852   7.414   3.480  0.3884 -0.2179 -0.0210
10451W        W26925  13.107   6.505   4.217 -0.3872  0.0410  0.2001
10452W        W26926   8.462   6.887   2.057  0.0918 -0.0170 -0.0921
10453W        W26927  13.837   0.201   1.526 -0.2046 -0.2965  0.0278
10454W        W26928   3.646  18.596  14.375 -0.1796 -0.3254  0.1832
10455W        W26929   1.445  15.141   0.242 -0.1931 -0.0029 -0.1585
10456W        W26930  17.915   6.000   3.646  0.0779 -0.2216 -0.2230
10457W        W26931  12.153  12.399  11.851  0.1000 -0.3043 -0.0701
10458W        W26932  18.686   4.523  12.320  0.1494  0.3150 -0.1550
10459W        W26933   4.231  17.729  12.785  0.3032  0.2333 -0.0170
10460W        W26934   7.896  14.102   2.657  0.2621 -0.1952  0.1765
10461W        W26935   9.673   7.645   0.926  0.1000 -0.2547  0.3712
10462W        W26936   2.614   9.762  11.696  0.1058  0.2440 -0.2543
10463W        W26937   4.345  10.335  10.600 -0.0436 -0.1048  0.1825
10464W        W26938   6.542   0.773  12.824 -0.0825 -0.0418 -0.3106
10465W        W26939   3.274  16.438   0.953 -0.0102  0.1300  0.1716
10466W        W26940  12.491   5.382   2.933  0.0551  0.0427  0.0067
10467W        W26941   1.535   8.424  12.676 -0.2032 -0.1234 -0.0821
10468W        W26942  13.627   5.144  12.587  0.4129  0.2389  0.1743
10469W        W26943   6.637   8.855  10.187  0.1283  0.0521  0.0212
10470W        W26944   3.961   8.456  12.542  0.0231 -0.1726  0.0224
10471W        W26945  16.495  15.554   5.015  0.0696 -0.3586 -0.1268
10472W        W26946  16.203  12.616  14.435 -0.2256  0.3084  0.3856
10473W        W26947  13.883  17.591   4.305  0.1307  0.1210  0.1090
10474W        W26948   3.076   3.117  14.559  0.2990 -0.0714 -0.0947
10475W        W26949  12.218   8.040  14.555  0.2883  0.0735 -0.2634
10476W        W26950  11.098  18.937  13.330 -0.2346 -0.3090 -0.3921
10477W        W26951   4.273  14.256  13.715 -0.1658  0.1426  0.1946
10478W        W26952   7.410   0.244   3.465 -0.1549 -0.1019  0.3807
10479W        W26953   9.387  14.396   9.861  0.1966  0.2227  0.0907
10480W        W26954  10.889   9.169  11.671 -0.2321 -0.0927  0.0023
10481W        W26955  18.337  12.595   2.424  0.2753 -0.0267  0.1276
10482W        W26956   0.474   3.453   5.148  0.0389 -0.0063  0.0337
10483W        W26957   4.190   1.964   0.290  0.3967 -0.1412  0.2044
10484W        W26958  16.773   2.331   4.362 -0.0366 -0.1021  0.0480
10485W        W26959  12.022   8.011  11.243  0.0932 -0.1412 -0.1004
10486W        W26960   6.108  10.439   1.933  0.0524  0.2093  0.3259
10487W        W26961  18.205   8.131   3.972  0.0302  0.0402 -0.1897
10488W        W26962  13.820   0.136  14.629 -0.0756  0.4172 -0.0676
10489W        W26963   0.191   6.241  13.590  0.1566  0.2864  0.1331
10490W        W26964  16.577  10.158   9.875  0.2649 -0.2299  0.1335
10491W        W26965  10.793   0.594  14.377 -0.0547 -0.1048  0.1442
10492W        W26966   9.627   5.596  12.154  0.2967 -0.0497 -0.1986
10493W        W26967   7.717   1.293  10.779  0.2902  0.0961  0.0398
10494W        W26968  16.350  18.884   3.651  0.0129  0.0962 -0.0298
10495W        W26969  13.546   5.866   1.634  0.1932  0.2317 -0.2725
10496W        W26970  17.884   6.712   4.035 -0.4570 -0.0939 -0.3052
10497W        W26971  11.443  13.072  12.299 -0.1827  0.2049  0.1602
10498W        W26972  12.728  17.707   5.186  0.1516  0.0204  0.0562
10499W        W26973   6.061   8.179   2.622  0.1927  0.3175  0.0819
10500W        W26974   0.960  15.482   0.993  0.0327  0.2059 -0.0496
10501W        W26975   4.789   9.679   2.912 -0.1107  0.1010  0.1004
10502W        W26976  18.035   2.196   3.152  0.2129  0.1325  0.0037
10503W        W26977   4.255   6.108  13.948  0.0305 -0.0220 -0.2156
10504W        W26978  11.658  10.859   3.261  0.3060 -0.0259 -0.0646
10505W        W26979  18.615  12.536  13.199  0.0577 -0.0940 -0.0566
10506W        W26980  15.699  10.899   1.987 -0.2704  0.1348  0.0724
10507W        W26981   5.335  10.938   3.003  0.1552 -0.1068  0.1185
10508W        W26982  13.692  18.836  11.624  0.5815 -0.1111  0.3459
10509W        W26983   6.317   8.738   2.036  0.1850  0.1455 -0.2631
10510W        W26984   7.392  14.613   0.564 -0.1072 -0.0165  0.1140
10511W        W26985  13.584   7.795   3.511  0.1683 -0.2529 -0.2626
10512W        W26986  11.043  12.562   9.746  0.1573  0.0385  0.2191
10513W        W26987  12.419   0.373   1.207  0.2053  0.1997 -0.3748
10514W        W26988  13.946  14.202  10.734  0.1269 -0.0585 -0.1652
10515W        W26989  17.996  15.315   0.150  0.1472 -0.0300  0.1342
10516W        W26990   3.104   5.165   3.048 -0.2660 -0.0408 -0.1086
10517W        W26991  17.441  18.110  12.578 -0.0660 -0.1220 -0.0183
10518W        W26992   4.162   5.128  12.472  0.2874  0.2551  0.2162
10519W        W26993   3.079   4.281   0.908  0.4884 -0.0692 -0.1818
10520W        W26994   3.687   8.885   3.877 -0.2617  0.0008  0.0932
10521W        W26995  11.030   7.135  12.275  0.0762  0.1544 -0.3353
10522W        W26996   8.841   2.595  13.399  0.1840  0.0281  0.2777
10523W        W26997   7.526  19.230   1.236 -0.1559  0.3337 -0.2192
10524W        W26998   7.601  16.093  12.472 -0.1078 -0.0049 -0.2794
10525W        W26999  17.881  14.803   4.343  0.2199 -0.1073  0.0587
10526W        W27000  14.802  13.841  13.029 -0.1675  0.0820  0.2251
10527W        W27001   1.261  13.671  12.019 -0.1315  0.1357 -0.0617
10528W        W27002  17.177  10.618   1.815 -0.1417  0.0577  0.2088
10529W        W27003   6.424  12.778   4.872  0.0116  0.0001  0.1659
10530W        W27004   7.075   0.953  10.422  0.0148  0.0860 -0.1240
10531W        W27005  11.724   2.192   0.965 -0.0694 -0.0011  0.2589
10532W        W27006  10.238   4.529   4.220 -0.0878 -0.0192  0.2399
10533W        W27007   5.200   1.458   3.214  0.2229  0.0781 -0.4007
10534W        W27008   7.880   2.592  13.501  0.0454 -0.2931  0.0062
10535W        W27009  13.095  13.135   3.977  0.0680  0.1000 -0.0611
10536W        W27010  12.307   3.909   3.303 -0.2761  0.0197 -0.0468
10537W        W27011  16.194  19.037  12.324  0.0493  0.0615 -0.0731
10538W        W27012  11.668  18.588   4.297 -0.1837  0.1054 -0.2747
10539W        W27013   6.368   3.790   9.145 -0.0242 -0.3536  0.1991
10540W        W27014  15.394   4.492  13.943  0.1682  0.1508  0.0978
10541W        W27015   8.213  16.632   0.053  0.1993  0.5055  0.0232
10542W        W27016  10.775   8.958   2.443 -0.0740 -0.0073  0.0038
10543W        W27017   6.019  18.168   0.738 -0.2395  0.0032  0.2137
10544W        W27018   9.981  17.621  14.068 -0.1180 -0.0095 -0.1464
10545W        W27019   3.281  17.832  14.294  0.2405  0.1286 -0.1574
10546W        W27020  17.983   6.987  10.567 -0.3159  0.0541  0.1502
10547W        W27021  14.617   4.204  10.340 -0.0499  0.0872 -0.0535
10548W        W27022   2.315  14.060   4.226 -0.0935 -0.3996 -0.0683
10549W        W27023   8.231  17.842   2.207 -0.1180  0.2750  0.1919
10550W        W27024  16.159  10.179   5.334  0.0295  0.0091  0.0246
10551W        W27025  17.709  10.433   1.270 -0.0102 -0.1603  0.1685
10552W        W27026  13.782   1.142   3.061  0.2738  0.0869 -0.0871
10553W        W27027   3.767  14.279  12.782  0.4512 -0.0288 -0.1310
10554W        W27028  17.360  12.131   4.245  0.0225 -0.2222  0.2788
10555W        W27029  16.340  19.162  11.854  0.0620  0.1356  0.1260
10556W        W27030   2.968   7.586   2.564  0.2375 -0.2162 -0.3130
10557W        W27031   2.060   2.616  12.355  0.2184  0.0920 -0.0421
10558W        W27032  18.035   4.368  11.139  0.1104  0.1158  0.0236
10559W        W27033  15.345   4.060   3.715  0.0480  0.4488 -0.2262
10560W        W27034   9.498  11.624   5.549  0.0078 -0.1710  0.0421
10561W        W27035  15.089  16.713  14.225  0.0975  0.2677  0.1203
10562W        W27036   3.366   4.099   9.893  0.2528 -0.0848 -0.1122
10563W        W27037   1.541   4.510  11.969  0.0078 -0.0581  0.2464
10564W        W27038   5.867   1.861   1.527  0.0274 -0.1905 -0.4978
10565W        W27039   9.501  10.630   4.380 -0.0505  0.2790  0.0890
10566W        W27040   4.623  11.861   1.986 -0.1198  0.0477 -0.1705
10567W        W27041  19.412  16.029   4.497  0.1196  0.0990  0.2391
10568W        W27042  13.488  11.734   2.362 -0.0706 -0.0026 -0.0998
10569W        W27043  15.092  18.179   0.023  0.1253 -0.1885 -0.0380
10570W        W27044  11.365  13.662   2.680 -0.3142  0.2433 -0.2405
10571W        W27045  11.889   1.478  10.779 -0.5511  0.2301  0.1108
10572W        W27046   8.349  17.637  11.113 -0.1201 -0.3977  0.1349
10573W        W27047  12.702   2.472  11.880  0.0190 -0.2009 -0.2121
10574W        W27048  10.074  14.073  11.624 -0.1061 -0.3592 -0.0376
10575W        W27049  13.073  14.645  14.264 -0.3532  0.1735  0.3232
10576W        W27050  16.082  16.810   0.403  0.0783 -0.0736  0.0760
10577W        W27051   5.294   9.897  11.282  0.3961  0.0635  0.1357
10578W        W27052  19.428   9.159   4.413  0.1920  0.0605  0.0423
10579W        W27053   0.298   7.384   2.811  0.1646  0.2520  0.1912
10580W        W27054   6.846   7.823  14.197  0.0989 -0.2237  0.4902
10581W        W27055   4.075  15.042   1.508  0.1430 -0.1997  0.0717
10582W        W27056  19.348  14.081   3.196 -0.0511  0.0893 -0.0480
10583W        W27057   9.094  12.528  10.243  0.0439 -0.1321  0.1080
10584W        W27058   8.917  13.481   3.314 -0.1858  0.1050 -0.1468
10585W        W27059  15.041   7.910   5.378 -0.2408 -0.1382 -0.0351
10586W        W27060  15.677  17.344  13.846  0.1399 -0.0487 -0.1014
10587W        W27061  16.662   4.273   1.556 -0.2798 -0.0934 -0.4321
10588W        W27062  11.161  12.801  14.218  0.3672 -0.2849 -0.1348
10589W        W27063   4.663   4.422  11.518 -0.0115 -0.2613 -0.1575
10590W        W27064  16.667  14.979   2.383 -0.0660  0.0164  0.3225
10591W        W27065   1.297  12.488  11.995 -0.1214  0.0788 -0.1401
10592W        W27066  12.878   2.350   5.580 -0.0737  0.1236 -0.1176
10593W        W27067  19.154   0.202   0.882 -0.2062 -0.0657 -0.0339
10594W        W27068  12.818   2.657   9.924  0.1353 -0.1937  0.2205
10595W        W27069  13.352  11.271   3.551 -0.1727  0.1390  0.1649
10596W        W27070   0.994  15.938   0.865  0.0906 -0.1929 -0.0330
10597W        W27071  12.400   3.064  14.214 -0.1751 -0.2057 -0.0859
10598W        W27072   2.530   5.781  10.776  0.1092 -0.2081  0.0346
10599W        W27073  17.966   1.000   1.962 -0.1047 -0.0500  0.1302
10600W        W27074  14.857   3.918   2.854 -0.1128  0.1790  0.0151
10601W        W27075   5.817   6.595  14.370  0.0647 -0.1188 -0.3295
10602W        W27076  12.509  14.119  11.665  0.0993 -0.0381 -0.0588
10603W        W27077   2.778   5.510  13.545 -0.1778 -0.1898  0.1414
10604W        W27078   9.203  14.648  12.813 -0.0689 -0.0570 -0.0083
10605W        W27079  18.480   9.245   4.703  0.0355  0.0463  0.0099
10606W        W27080   9.389   6.614   2.079  0.1100  0.1894  0.4092
10607W        W27081  17.817  17.719   1.481 -0.1650 -0.2444 -0.0352
10608W        W27082   9.415  13.958   4.111  0.1183  0.0925 -0.3115
10609W        W27083  15.021   1.783   2.873  0.0820 -0.1021 -0.2096
10610W        W27084  15.457  14.988   1.082  0.2046  0.0095  0.2326
10611W        W27085   8.665   0.175   2.157 -0.0957  0.3806 -0.0871
10612W        W27086   5.880   1.369  10.580 -0.2476  0.1104  0.0849
10613W        W27087   7.479   8.280   0.553 -0.0503  0.1037  0.3872
10614W        W27088  18.801   8.577   4.880 -0.1365 -0.0212 -0.3024
10615W        W27089   2.258   5.982   3.251 -0.1003 -0.1497 -0.2270
10616W        W27090   7.247   0.504   9.001  0.3481 -0.0597 -0.1897
10617W        W27091  16.860  18.910  10.978  0.0105  0.1925  0.0718
10618W        W27092  19.517   8.624  14.539 -0.2052 -0.1347 -0.0291
10619W        W27093   8.249   3.904  12.160  0.0492  0.0389 -0.2341
10620W        W27094   2.995  11.084   0.297  0.0390 -0.0211  0.2095
10621W        W27095   3.905  13.592   9.824  0.0150 -0.2798 -0.2758
10622W        W27096  12.447   7.638  13.635  0.2468 -0.0008 -0.1248
10623W        W27097   6.480   6.693  11.965 -0.1782  0.2058  0.2524
10624W        W27098  12.044   9.657   2.280 -0.1685 -0.0518  0.1636
10625W        W27099  12.081  10.022   3.286 -0.3337 -0.1207 -0.2164
10626W        W27100   2.954  16.608  10.605 -0.1501  0.2447  0.2687
10627W        W27101   5.135  13.167   4.923 -0.3921 -0.0502 -0.1201
10628W        W27102  15.573  12.666   5.423  0.0373  0.0829 -0.0970
10629W        W27103   2.306   9.546  12.016 -0.0664  0.0550 -0.1279
10630W        W27104  18.983   0.905   9.872  0.2827  0.1202 -0.0090
10631W        W27105  16.174  10.694   4.262  0.1347  0.0901  0.0969
10632W        W27106   0.057   3.769   0.801  0.2869 -0.2154  0.0329
10633W        W27107  12.500   0.932   0.433 -0.2866  0.0421 -0.3558
10634W        W27108  15.273   9.859  14.273 -0.0855  0.0480  0.0240
10635W        W27109   8.590   9.399   8.952  0.2945  0.1618 -0.1677
10636W        W27110   8.273   7.458   3.258 -0.0884  0.2058 -0.2148
10637W        W27111  16.446   8.394   3.850 -0.0745  0.1561  0.1599
10638W        W27112  13.592  12.566   3.296  0.0058  0.0620  0.1349
10639W        W27113  11.669  12.704  13.153 -0.0494  0.2041  0.2905
10640W        W27114  19.110  19.141   1.403 -0.1220  0.2851  0.3737
10641W        W27115  14.420   2.774  13.059 -0.0879  0.0104 -0.1338
10642W        W27116  12.294  17.002  13.447  0.2661  0.0623 -0.1880
10643W        W27117   0.691   3.323   0.454 -0.0912 -0.0360 -0.0911
10644W        W27118  18.878   6.788   5.003  0.4324 -0.0729  0.4040
10645W        W27119  15.093  18.571  11.171  0.1131  0.2778  0.1879
10646W        W27120   8.703  17.000   4.213 -0.2533 -0.3117  0.0526
10647W        W27121   3.792  16.212   1.915 -0.2325  0.3140  0.0207
10648W        W27122   8.486  19.061   1.405 -0.1255 -0.1362 -0.0418
10649W        W27123   7.376  10.214  13.738 -0.1057 -0.1090 -0.0832
10650W        W27124  11.964  11.973   0.949 -0.2436  0.2966  0.1700
10651W        W27125   4.026  18.201  10.396  0.1968  0.0561  0.0256
10652W        W27126   6.137  14.919   2.950  0.1399  0.1269 -0.0096
10653W        W27127   3.464  11.276  10.761  0.3202 -0.1111  0.0026
10654W        W27128   8.390   6.541  13.239  0.0886 -0.1496 -0.1406
10655W        W27129  12.894   6.035   0.971 -0.0051  0.3179  0.4369
10656W        W27130   9.270   4.185   0.512 -0.0459 -0.0685 -0.2122
10657W        W27131   3.248  11.475  11.603 -0.2952  0.1046 -0.0020
10658W        W27132  18.880  16.240   9.972 -0.1031  0.4703  0.3843
10659W        W27133  10.969  16.183   3.378 -0.0721 -0.5435 -0.0903
10660W        W27134  15.951  16.725   4.759  0.0852  0.2758 -0.3761
10661W        W27135  14.663   8.830   2.117 -0.0556  0.1222 -0.0708
10662W        W27136  17.445   8.623   4.223  0.1788 -0.0099  0.1439
10663W        W27137  14.659   7.806   1.497  0.2894  0.1226  0.2708
10664W        W27138  13.681  15.531  12.955 -0.2993 -0.1001 -0.1692
10665W        W27139   3.969  15.113   0.496 -0.3586 -0.2750  0.1486
10666W        W27140   3.636   2.591   0.796 -0.0012  0.1966  0.2123
10667W        W27141  12.518  13.710  11.466  0.0850 -0.0837 -0.1068
10668W        W27142  11.241  10.108  12.671  0.2538  0.1003 -0.2494
10669W        W27143   7.670   6.901  10.186 -0.1467 -0.2190  0.0177
10670W        W27144  16.840  17.990  10.265 -0.0955 -0.1591  0.1579
10671W        W27145  11.088  16.749   4.890 -0.5269 -0.3018  0.2361
10672W        W27146  11.948  18.031   5.463  0.2379 -0.0051  0.0440
10673W        W27147   1.390   0.036  11.421  0.1711 -0.0797 -0.0781
10674W        W27148   5.591  18.361   0.416  0.0045 -0.1301 -0.0571
10675W        W27149   2.512  14.372   5.224  0.0305 -0.6050  0.0369
10676W        W27150  13.955  18.911   2.251 -0.0154  0.2092 -0.0436
10677W        W27151   0.995   0.063   4.157 -0.2161 -0.1774 -0.1754
10678W        W27152   4.498  10.013  12.505  0.1885 -0.0523  0.0406
10679W        W27153  17.527   4.620   0.778 -0.0197  0.1099  0.0961
10680W        W27154  15.580   5.077  12.316 -0.1238  0.0215  0.1886
10681W        W27155   5.397  18.748   2.876 -0.1228  0.2970 -0.0195
10682W        W27156   5.520   7.441  13.010  0.2688 -0.0638 -0.1560
10683W        W27157  17.133  12.346   9.571  0.1394 -0.0178 -0.0303
10684W        W27158   9.852  11.102   2.058  0.1297 -0.0923  0.0345
10685W        W27159  14.644   2.980   3.071 -0.3468 -0.1648  0.0225
10686W        W27160  13.311  12.255   2.032  0.1392 -0.0713 -0.3728
10687W        W27161  10.265   3.552  14.142  0.0373  0.1000  0.1467
10688W        W27162   2.985   0.676   2.963  0.1608 -0.0676 -0.1384
10689W        W27163   5.420   2.622  10.405  0.1393 -0.2839 -0.1144
10690W        W27164   8.294  16.094   2.706  0.1882  0.3161  0.0064
10691W        W27165  17.095   8.206   0.951  0.3309 -0.0035 -0.2117
10692W        W27166   0.248  18.499   4.186 -0.0365  0.0321  0.1190
10693W        W27167   5.698  17.830   1.182  0.3132 -0.2012  0.1973
10694W        W27168  12.575   9.495   3.891  0.0336 -0.2511 -0.2558
10695W        W27169   3.479   8.322  12.564 -0.2141  0.1869 -0.2015
10696W        W27170   5.966  14.082  14.262 -0.1531 -0.0888 -0.0817
10697W        W27171   4.200   0.292   0.021 -0.3492  0.1828  0.0968
10698W        W27172  19.033  10.222   1.133  0.0167 -0.0232 -0.2960
10699W        W27173  12.800   7.234  10.556 -0.0082  0.1983  0.2895
10700W        W27174  11.798   2.643  12.932  0.3888 -0.0475  0.3941
10701W        W27175   6.421  13.937  14.005  0.3676  0.1589 -0.0021
10702W        W27176  16.094  11.196   3.866  0.1411  0.2247 -0.0646
10703W        W27177  19.197   2.870   1.305  0.2725 -0.0185  0.0373
10704W        W27178   2.615   2.016  13.770 -0.2278 -0.1160 -0.2011
10705W        W27179   9.747  18.530   1.481  0.0573  0.1919  0.3156
10706W        W27180  17.415  16.896   1.470 -0.0226  0.1922 -0.1259
10707W        W27181  10.947  14.039  13.255  0.0439  0.0159 -0.1235
10708W        W27182   0.947   6.325  13.077  0.1821  0.1278  0.1895
10709W        W27183  18.268  12.487   4.577  0.2010 -0.3654  0.0703
10710W        W27184  10.546  13.223   1.757  0.0304 -0.0926 -0.0730
10711W        W27185   7.844   1.483   3.238 -0.1542  0.0046 -0.0253
10712W        W27186   4.023   5.640   3.549 -0.1905  0.0099  0.0691
10713W        W27187  18.829   4.849   5.300 -0.1982 -0.0426  0.0017
10714W        W27188  10.249  18.153   4.174  0.3319  0.0298  0.1155
10715W        W27189  18.241   7.865  13.802  0.1978  0.0599  0.0163
10716W        W27190   9.555   4.370   9.523 -0.0520  0.0811 -0.0028
10717W        W27191  16.614  11.177  13.553 -0.0709  0.4521 -0.0794
10718W        W27192   9.789  10.825   3.313  0.3494  0.0946 -0.1474
10719W        W27193   1.741   9.573  11.825  0.1361  0.0088  0.0299
10720W        W27194   6.435   9.493   9.939 -0.1532  0.1437  0.3620
10721W        W27195  11.881   0.097  11.973 -0.3271  0.2774  0.0849
10722W        W27196   5.641   4.085  10.206  0.0575  0.2682  0.2324
10723W        W27197   8.141  12.151   2.487  0.0549  0.3703  0.5531
10724W        W27198   8.214   4.481  12.249 -0.1560 -0.1886 -0.0417
10725W        W27199  17.406   9.344  10.793  0.3110 -0.3636 -0.2221
10726W        W27200  18.670   4.223  12.762 -0.1082 -0.2249  0.3171
10727W        W27201  13.455  11.084  13.904  0.2662 -0.1464 -0.2022
10728W        W27202   7.925   2.446   0.908 -0.0274 -0.2476 -0.1926
10729W        W27203   8.899  10.017  11.139  0.1930  0.1918  0.0764
10730W        W27204  16.505   7.279   1.110 -0.0651 -0.0488  0.4653
10731W        W27205   1.049  10.315   5.271 -0.1349  0.1134 -0.0634
10732W        W27206   4.101  12.636   2.052  0.0561  0.0544  0.0678
10733W        W27207   1.213  16.055   0.311  0.0414 -0.3625  0.1043
10734W        W27208   2.030   8.130   3.960  0.1901  0.0263 -0.0386
10735W        W27209   6.271  12.948   0.055 -0.4364  0.0892  0.1085
10736W        W27210  13.699   0.002  11.212 -0.2935  0.0611  0.0350
10737W        W27211  12.086   1.085   2.529 -0.0160 -0.4231 -0.1372
10738W        W27212   3.005  12.586   3.531 -0.1922 -0.0583 -0.4865
10739W        W27213  16.987   9.564  13.758  0.3519 -0.1914 -0.1240
10740W        W27214  18.688  16.424  13.240 -0.0878 -0.0486  0.1233
10741W        W27215  13.181  17.114   0.065  0.0100 -0.0555 -0.0771
10742W        W27216  16.237  14.442  11.933  0.3056  0.0262 -0.2496
10743W        W27217  18.502   0.483  13.092 -0.2750 -0.0783  0.0221
10744W        W27218  11.101   9.815   2.688  0.1870  0.0705  0.1949
10745W        W27219  19.588   5.855   9.379  0.1482 -0.0028 -0.0217
10746W        W27220  17.244   8.747  10.056  0.1842 -0.0996  0.3076
10747W        W27221  10.079  13.758  12.847  0.0867 -0.2996 -0.1369
10748W        W27222   8.331  12.610  13.100  0.0785  0.0303 -0.0252
10749W        W27223   1.393  19.501   0.453  0.1065 -0.2576 -0.0799
10750W        W27224  18.650   8.884   1.425 -0.4333 -0.0983 -0.1059
10751W        W27225  19.361   6.881   0.324  0.0677 -0.0124 -0.1913
10752W        W27226  13.546  19.615  12.874 -0.3044 -0.2904 -0.0063
10753W        W27227  17.966   5.582   9.377  0.0847  0.0307 -0.1112
10754W        W27228   4.546  10.553  12.595  0.2795 -0.1998  0.1250
10755W        W27229  17.875  11.738  12.092 -0.0966  0.0869  0.2377
10756W        W27230  16.383   2.356  10.830 -0.1847 -0.1629  0.2071
10757W        W27231   4.995  13.676   5.550 -0.0716 -0.0680 -0.0664
10758W        W27232  17.041   9.949  13.338 -0.1359  0.0846 -0.2753
10759W        W27233  18.504  12.742   1.099  0.0394 -0.1336 -0.1080
10760W        W27234  17.476  17.959   0.458 -0.2599 -0.1718 -0.2602
10761W        W27235   6.803  14.136  14.305 -0.3395 -0.3403 -0.0034
10762W        W27236  15.411   7.909  13.006 -0.2092 -0.0834  0.1806
10763W        W27237  13.130  13.423   5.173 -0.0045 -0.1615  0.1338
10764W        W27238   6.651   0.468  13.311 -0.3598 -0.2101 -0.3847
10765W        W27239  13.719   3.285   3.709 -0.2711 -0.1436 -0.1270
10766W        W27240   0.173  10.009  12.080  0.0484  0.2979  0.0104
10767W        W27241   8.297   6.202  12.782 -0.0542  0.0512 -0.1478
10768W        W27242   1.328  11.767  13.262 -0.1345  0.2902  0.0341
10769W        W27243  16.784   2.369   3.761 -0.0535  0.0813 -0.0122
10770W        W27244  17.851  17.474   4.407  0.0860  0.0764 -0.7207
10771W        W27245   7.573   1.586  11.178 -0.2584  0.4665 -0.5767
10772W        W27246   5.222   8.181   4.649  0.1251  0.1557  0.2944
10773W        W27247   4.425   0.684  14.499 -0.1357  0.1771  0.1621
10774W        W27248   6.372  12.877  11.939 -0.0812  0.2377  0.1975
10775W        W27249   5.581   2.236   0.412 -0.1477 -0.3939 -0.1857
10776W        W27250  14.071   9.692   2.141 -0.1367 -0.1408 -0.1749
10777W        W27251  10.398   4.902  12.486 -0.0987  0.0181  0.0897
10778W        W27252   6.469   7.001   1.063  0.1269  0.1476  0.0488
10779W        W27253  17.790  18.207   0.016 -0.0769  0.0094  0.2924
10780W        W27254  10.889  15.911  14.430  0.4182  0.0365  0.0053
10781W        W27255   9.350  16.666   4.998  0.0199  0.1824  0.1114
10782W        W27256  12.887  11.879   1.573  0.0842  0.1485  0.1508
10783W        W27257  18.069   8.690   0.291 -0.0422 -0.0295 -0.1007
10784W        W27258  11.128  15.132  13.799 -0.2264  0.1094 -0.1097
10785W        W27259   3.468  18.693  11.975  0.1045 -0.2183  0.0574
10786W        W27260   9.213   5.989   3.713 -0.0193  0.0225  0.1923
10787W        W27261   1.710   6.152   3.683 -0.2140  0.1997  0.1753
10788W        W27262   0.497   8.216   0.647 -0.0100  0.3143 -0.0186
10789W        W27263  14.674   8.658   0.560  0.0911  0.1165  0.2824
10790W        W27264  10.520  11.864  10.208 -0.3607  0.0353 -0.0066
10791W        W27265   1.409  16.907  10.464  0.1669  0.1260  0.0479
10792W        W27266   9.005  16.441   3.782 -0.0201 -0.0969  0.1364
10793W        W27267  16.733   8.529   3.409 -0.0214 -0.1760  0.0169
10794W        W27268  14.616   4.428   0.920  0.1681 -0.1418 -0.0469
10795W        W27269   4.844   0.285   1.583  0.0150 -0.2244  0.0471
10796W        W27270   6.164  16.146  12.963  0.1139 -0.4252  0.0316
10797W        W27271   7.603   0.659   4.001 -0.1353 -0.0044  0.1031
10798W        W27272   6.716   1.996  12.776 -0.2295 -0.0689  0.1011
10799W        W27273  11.852   5.594   3.595  0.0183 -0.2424 -0.3301
10800W        W27274  12.481  12.126   9.581 -0.1028  0.0870  0.1991
10801W        W27275  14.603  13.874   0.439  0.1207 -0.1504 -0.0036
10802W        W27276  11.830   1.525  14.485 -0.1064 -0.0302 -0.2887
10803W        W27277   8.673  11.660  11.659  0.0336 -0.1000  0.0664
10804W        W27278   2.042  15.337  11.251 -0.1891  0.2776 -0.0062
10805W        W27279   1.059  11.630   1.504 -0.1533  0.3249 -0.0419
10806W        W27280   4.376  19.181  11.583  0.0206  0.1462  0.0606
10807W        W27281   1.735  13.276   2.349 -0.1584 -0.0457  0.0160
10808W        W27282   7.200  11.662   3.883 -0.1587  0.0313  0.1209
10809W        W27283   8.135  16.596  11.254 -0.1781  0.3984  0.0106
10810W        W27284   1.652   8.920  11.956 -0.2988 -0.0757 -0.3725
10811W        W27285   4.408  15.863   2.658  0.0397  0.0164  0.4166
10812W        W27286   3.786  18.801   3.404  0.1159  0.0347  0.2365
10813W        W27287   8.387   4.298  11.303  0.2277  0.1416 -0.1745
10814W        W27288   6.780  16.224  11.118  0.1781  0.1218  0.0489
10815W        W27289  13.666   0.711   1.645 -0.0740  0.0131  0.1533
10816W        W27290   7.040  15.927   2.530 -0.1235  0.3139  0.1179
10817W        W27291   4.150   1.704   1.766  0.0688 -0.3505  0.1954
10818W        W27292   5.855   6.514  10.321 -0.0824  0.1432  0.1984
10819W        W27293   3.648   3.150  11.238  0.1952 -0.0688  0.1402
10820W        W27294   4.627   4.333   1.835  0.1041  0.0534 -0.0204
10821W        W27295   7.069   4.819   2.005  0.2738  0.0438 -0.0080
10822W        W27296  15.658   7.234   1.750 -0.1495  0.3339 -0.2305
10823W        W27297  18.092  18.290   2.971 -0.1513 -0.1513  0.1052
10824W        W27298  13.192  11.641  13.739 -0.0495  0.0813 -0.1186
10825W        W27299  11.358   1.485  14.128 -0.1410  0.2751  0.2048
10826W        W27300   1.441   4.407   3.363 -0.0391  0.0380  0.5344
10827W        W27301   0.540  11.311  11.828  0.2822 -0.3516 -0.2493
10828W        W27302  16.426   3.899  10.536  0.0497  0.4185  0.2932
10829W        W27303   9.774   0.112   3.827  0.4112  0.2805  0.0245
10830W        W27304  12.653  13.442   5.266  0.3033  0.1102 -0.1167
10831W        W27305  16.592  10.132  13.866  0.1888 -0.0381 -0.0591
10832W        W27306   7.959  13.679   5.577 -0.1783 -0.1214  0.0247
10833W        W27307  11.848  16.762  11.511  0.0651 -0.0296 -0.0048
10834W        W27308   1.863  15.692   4.822 -0.0589 -0.1349 -0.1827
10835W        W27309   2.489  16.869  10.596 -0.0468 -0.1066 -0.0688
10836W        W27310  18.535  17.541  10.128 -0.1397  0.1576 -0.4920
10837W        W27311  11.548  15.345  14.496 -0.0158 -0.2650  0.1702
10838W        W27312   6.745  17.260   3.270  0.0479 -0.0801  0.0216
10839W        W27313  15.382   4.487  10.407  0.2216  0.0991 -0.0562
10840W        W27314  15.668  17.131   4.821 -0.0979 -0.0096  0.1849
10841W        W27315   3.945   6.904  11.936  0.1074  0.0098  0.1313
10842W        W27316   6.430  19.356  14.472 -0.1774 -0.2917  0.2138
10843W        W27317  11.731   8.531  13.131  0.1561  0.1282 -0.1073
10844W        W27318  18.643  17.040   2.569 -0.1350  0.2607  0.1502
10845W        W27319   1.949   8.763  12.933  0.1824 -0.3832  0.0438
10846W        W27320   1.276   7.230  12.637  0.2758 -0.1451  0.1838
10847W        W27321  18.595  15.334  10.844 -0.1917  0.2418 -0.2493
10848W        W27322   8.566   0.452   9.519 -0.2887 -0.0815  0.0354
10849W        W27323   6.757   9.096   0.813 -0.0182  0.1373 -0.0673
10850W        W27324  17.304   1.617  10.028  0.0035  0.0488 -0.2109
10851W        W27325   7.494  15.796  14.235  0.0158 -0.1290 -0.1713
10852W        W27326  10.321   0.322  12.869 -0.2720  0.1293 -0.2451
10853W        W27327   5.611  18.917   3.763  0.0098 -0.1314 -0.4304
10854W        W27328   9.152   4.590  12.233 -0.2310  0.1180  0.1290
10855W        W27329   2.765  14.033   2.628 -0.0155  0.3506 -0.0147
10856W        W27330   4.238  13.442   2.574  0.2310 -0.0421 -0.0005
10857W        W27331  12.360   6.394  12.912  0.2464 -0.1694 -0.4080
10858W        W27332  11.485   0.700  14.643  0.1780  0.0275  0.2088
10859W        W27333  16.803   1.900   2.970  0.0325  0.1592  0.0709
10860W        W27334  16.672  11.631   0.896  0.2917  0.1027 -0.0987
10861W        W27335   8.316  13.792  10.265  0.0029  0.1937 -0.7202
10862W        W27336  10.139   8.181  13.785 -0.0305  0.0578  0.1540
10863W        W27337  12.818   3.388  11.191 -0.3100  0.3932  0.1109
10864W        W27338   6.883   3.765   3.004  0.2361  0.0893  0.1171
10865W        W27339  17.312  18.022  10.128 -0.2401 -0.1505 -0.0083
10866W        W27340  15.757  17.375  11.534  0.3612  0.0370 -0.0280
10867W        W27341   1.925   1.447  10.529 -0.0377  0.3066 -0.1839
10868W        W27342  11.853   1.755  11.228  0.0184 -0.0730 -0.1728
10869W        W27343  18.423  17.366   4.306  0.1380  0.1365 -0.3444
10870W        W27344   0.241   0.325  13.294  0.1410 -0.0396 -0.2230
10871W        W27345   1.377  17.030  14.258  0.0949  0.1613 -0.2364
10872W        W27346   2.711   3.666   0.159 -0.3398 -0.3227  0.1826
10873W        W27347  12.016  13.264   0.733 -0.1645  0.2006 -0.0594
10874W        W27348   8.522   7.773   2.588 -0.0127  0.1113 -0.1438
10875W        W27349  19.445   6.088  11.939  0.0900  0.0198  0.0624
10876W        W27350  16.851   1.430  13.276  0.0499  0.2264  0.0052
10877W        W27351   4.403   8.178  10.214 -0.1150  0.2823  0.5037
10878W        W27352   6.345  12.456   0.939  0.0422  0.0735  0.0014
10879W        W27353  13.669   2.984   1.937 -0.6132 -0.2331 -0.0532
10880W        W27354  19.502  19.435  13.899  0.0219 -0.3736 -0.1621
10881W        W27355  10.360   8.167   0.639  0.2203  0.0944 -0.1065
10882W        W27356  15.496  12.914   4.430 -0.1427  0.1022  0.0017
10883W        W27357  18.378   3.502  10.003  0.3540  0.1710  0.1933
10884W        W27358   6.796   1.479   2.181 -0.2471 -0.3520  0.2162
10885W        W27359  12.249  14.643  10.504 -0.1948 -0.2389  0.1483
10886W        W27360  14.434   6.226   4.094 -0.1519 -0.1658  0.4253
10887W        W27361  19.521   7.457  10.712 -0.0024  0.0820 -0.0391
10888W        W27362   8.453  15.716   3.330  0.1117 -0.0452 -0.0329
10889W        W27363  16.818   8.499   0.608 -0.1308 -0.2760 -0.1301
10890W        W27364  17.328  16.399  12.942 -0.0400 -0.1758 -0.0958
10891W        W27365   6.473   5.671  12.112  0.1039  0.1865  0.0535
10892W        W27366  18.202   7.673   0.111 -0.1030  0.1040  0.1100
10893W        W27367   2.272  11.411   9.209  0.1111  0.2388  0.2010
10894W        W27368   5.527   5.992   2.991 -0.0382 -0.0298 -0.0158
10895W        W27369   9.348  13.058   2.185  0.4507  0.0925 -0.0145
10896W        W27370  10.649  15.236  11.652  0.0486 -0.0945  0.0553
10897W        W27371   3.389   2.607   2.575  0.0983 -0.3141 -0.0143
10898W        W27372  19.417   8.214   1.187 -0.1693 -0.1580  0.0098
10899W        W27373  17.381   3.225  10.278  0.1079  0.2762  0.1167
10900W        W27374   4.169  17.823  14.097 -0.0094 -0.0640  0.1567
10901W        W27375  11.856   3.753  12.764 -0.0822 -0.0865  0.1149
10902W        W27376   8.362   9.600   4.587  0.0361  0.2919  0.0221
10903W        W27377  19.064  16.642  14.394  0.1672 -0.0364 -0.0614
10904W        W27378  18.310   2.319   2.041  0.1015 -0.2754  0.5109
10905W        W27379  17.960  16.946   3.042 -0.0417  0.3100  0.0740
10906W        W27380   0.314   7.099   4.637  0.1222  0.1475 -0.2155
10907W        W27381   3.965  11.185  10.499  0.0145  0.0458 -0.0431
10908W        W27382   9.663  12.024   1.245  0.0815 -0.0637  0.1676
10909W        W27383  18.045   5.565  12.707  0.1813 -0.6346 -0.0747
10910W        W27384  14.251  15.260   4.546  0.0267  0.3318 -0.1686
10911W        W27385  15.985  11.209  10.719 -0.0523 -0.1261 -0.0072
10912W        W27386   6.132   6.572   1.757  0.1848  0.2291  0.0048
10913W        W27387  16.145   6.565   4.762  0.0048 -0.0467 -0.0160
10914W        W27388  15.952  12.673  11.006  0.2101 -0.3590  0.5126
10915W        W27389  12.555   5.682   1.472  0.4609 -0.2508 -0.0366
10916W        W27390  10.666  18.654  13.154  0.1744  0.0110  0.1842
10917W        W27391   5.723  18.752  14.238 -0.1711 -0.2341 -0.0521
10918W        W27392   8.930  12.563   3.159  0.1515  0.1093 -0.0081
10919W        W27393   5.124   3.986   9.305 -0.0310  0.3556 -0.1315
10920W        W27394   8.917   6.183  12.052 -0.3222  0.0338  0.3930
10921W        W27395  15.079   3.296   1.398  0.0938 -0.1252  0.3368
10922W        W27396   7.028   7.887   9.841 -0.2823  0.2231 -0.0913
10923W        W27397   9.231  14.350  11.148 -0.3143  0.0029  0.1478
10924W        W27398  14.847   5.931   4.026 -0.0479 -0.0206  0.1236
10925W        W27399   2.958   4.258   0.381 -0.2572  0.1312 -0.2680
10926W        W27400  12.231  19.407  11.766  0.0704 -0.1044 -0.1452
10927W        W27401   8.932  15.120  12.523  0.2346 -0.0782 -0.3112
10928W        W27402  11.059  11.493  11.326  0.0040  0.0611  0.1295
10929W        W27403  18.412   2.620  11.392 -0.0588  0.0531  0.0483
10930W        W27404  11.396   4.302   5.370 -0.1691  0.1290 -0.0588
10931W        W27405   7.001  19.226   4.043  0.1967 -0.3931  0.1919
10932W        W27406   4.217  11.753   4.292 -0.0606 -0.1743  0.0773
10933W        W27407   2.119   9.566   3.404  0.2198 -0.3146  0.1927
10934W        W27408  19.486  12.936  11.335  0.0180 -0.2107  0.0602
10935W        W27409  18.294   2.661   3.887 -0.1902 -0.2862 -0.3275
10936W        W27410  14.773   9.208  14.186  0.0295 -0.0087  0.0365
10937W        W27411   2.474  17.630   4.430  0.0891 -0.2350 -0.3820
10938W        W27412  14.714  17.523   4.456 -0.1447 -0.0939  0.1719
10939W        W27413   7.104  11.439   2.856  0.1531  0.3875  0.2277
10940W        W27414   7.941  15.148   2.599 -0.2544  0.1318 -0.2907
10941W        W27415   6.289   9.151  10.308 -0.3120 -0.3814 -0.3215
10942W        W27416  17.706   7.395  12.064 -0.3264  0.0320 -0.2224
10943W        W27417  10.134   6.746  13.980  0.0093  0.1152  0.0397
10944W        W27418  12.074  19.537  13.398 -0.2503 -0.1667  0.1171
10945W        W27419  19.411  13.033   3.171  0.0885 -0.0128 -0.1759
10946W        W27420   1.581   2.721  11.979 -0.0332  0.1320 -0.0735
10947W        W27421   5.692  10.791   4.101  0.0807 -0.1087  0.3546
10948W        W27422  11.244  15.908   0.164  0.1044 -0.1255 -0.0180
10949W        W27423   0.198   2.657   9.830 -0.2540  0.0324 -0.2383
10950W        W27424   1.755   0.042  13.032 -0.1621 -0.0859 -0.0020
10951W        W27425   2.544   7.592  10.173 -0.0797 -0.0303  0.0729
10952W        W27426  17.713  16.457  12.245  0.1946 -0.0152  0.1220
10953W        W27427   1.203  13.816   2.232  0.1697  0.3526 -0.3212
10954W        W27428  11.936   8.842   4.304 -0.0317 -0.2411 -0.0684
10955W        W27429  12.993  14.707   2.865  0.0700  0.2906  0.0051
10956W        W27430  18.489  11.248  13.286 -0.2465  0.1339 -0.2960
10957W        W27431  13.436  15.277   2.289 -0.0237  0.1990 -0.1061
10958W        W27432   5.526  10.549  13.217 -0.0611 -0.0754  0.0356
10959W        W27433   9.312   0.246  12.496 -0.2458  0.0719 -0.1705
10960W        W27434   0.363  10.332  10.435 -0.4419 -0.1490  0.0296
10961W        W27435   3.877  10.054   2.616 -0.0858  0.0484  0.2761
10962W        W27436  13.254  18.791  13.138  0.1478  0.0534  0.0365
10963W        W27437   7.662   0.509   0.134  0.1443  0.0154  0.1754
10964W        W27438  16.580  10.114  11.082  0.0375  0.3199  0.0675
10965W        W27439   9.495  18.841   4.346 -0.1150 -0.2486  0.0499
10966W        W27440   8.193  14.208  13.894 -0.4422  0.3068  0.0117
10967W        W27441   6.248  19.175   1.814 -0.1657 -0.2344  0.0522
10968W        W27442   1.702   4.187   4.917  0.1517  0.1119 -0.4737
10969W        W27443   0.569  15.134  11.743  0.1674  0.0686  0.3810
10970W        W27444  15.283   7.630  11.277 -0.2401 -0.0783  0.3718
10971W        W27445   8.649   7.796   3.711  0.2693  0.2170  0.0747
10972W        W27446  15.577  15.554   4.943  0.1995  0.1054 -0.2634
10973W        W27447  16.165  16.674   3.435 -0.0762 -0.1049  0.0226
10974W        W27448   0.203   8.218   2.753 -0.0818 -0.0153 -0.1015
10975W        W27449   7.247   0.031   5.286  0.0170  0.2073  0.0978
10976W        W27450  12.872  14.471   1.874 -0.0077  0.0306  0.1070
10977W        W27451  13.132  10.367   3.869 -0.1561  0.0725 -0.0058
10978W        W27452   4.353  15.243   3.386  0.2881 -0.3115 -0.2505
10979W        W27453   2.834  12.851   2.180  0.0255 -0.3551 -0.0141
10980W        W27454  12.289   4.077  10.988 -0.2076  0.2753  0.2244
10981W        W27455   3.631   5.914   2.097  0.2219 -0.0882 -0.0830
10982W        W27456   0.854  12.252  10.730  0.0809 -0.0846  0.0677
10983W        W27457   3.861   2.453   2.479  0.1352  0.1082  0.0136
10984W        W27458   7.540   8.137  13.244  0.1245  0.0826 -0.1961
10985W        W27459   2.758  15.190   4.672  0.0674  0.0453  0.2111
10986W        W27460   1.464   5.308   2.056 -0.2768  0.3433  0.1911
10987W        W27461  12.617   6.330  11.074  0.0198  0.1137  0.1601
10988W        W27462   3.712  13.474  13.190 -0.0581 -0.1538  0.3017
10989W        W27463  18.474   5.042  10.598 -0.2558 -0.0060  0.1118
10990W        W27464   3.221   8.884  13.592  0.2804 -0.2450  0.2745
10991W        W27465   7.707   6.186   4.449  0.0651  0.0224  0.2175
10992W        W27466  14.964   8.785   4.809 -0.0170  0.1788 -0.1298
10993W        W27467  19.288   6.015  12.377  0.0697 -0.3182  0.1051
10994W        W27468   1.226   6.599   0.952 -0.2111 -0.0288 -0.1065
10995W        W27469   1.345   0.573  10.331  0.4650  0.0984  0.0392
10996W        W27470   3.342  16.935  10.538  0.0164 -0.0491 -0.3590
10997W        W27471   4.537  13.127   9.905  0.0777 -0.1427  0.2442
10998W        W27472  10.305  19.244  14.549 -0.0618 -0.0920 -0.0684
10999W        W27473  17.817   4.793  14.638  0.0626 -0.2021 -0.1796
11000W        W27474  18.512   9.962   0.304 -0.0316 -0.1589 -0.5589
11001W        W27475   8.493   7.742   9.799 -0.0601  0.1708  0.2123
11002W        W27476   5.471  19.572  10.756  0.2438  0.1005  0.1992
11003W        W27477   9.241  10.563   4.883  0.1398 -0.3373 -0.0201
11004W        W27478  14.048  13.323  13.302 -0.1290 -0.2427  0.1474
11005W        W27479   7.816   4.064   2.031 -0.0167 -0.1152 -0.1642
11006W        W27480   0.807  16.243   3.296  0.0251  0.2342  0.0163
11007W        W27481  16.259   4.286   5.792 -0.2034  0.2104 -0.2512
11008W        W27482  10.598  13.232   3.175  0.1763 -0.3487  0.2380
11009W        W27483   1.112  19.456   3.112  0.0296  0.1733 -0.2181
11010W        W27484   2.843  13.468  10.421 -0.3793  0.0966 -0.0370
11011W        W27485   4.751   8.141  13.406 -0.3152  0.3850 -0.2566
11012W        W27486  15.694  13.532   2.560  0.4070  0.2533  0.2764
11013W        W27487  15.795   1.308  13.378 -0.0901  0.1583  0.1106
11014W        W27488  11.571   7.374   2.948  0.1302 -0.1367 -0.1142
11015W        W27489   7.806  12.030   3.845 -0.1782 -0.2383 -0.1915
11016W        W27490  11.406  19.522   2.733 -0.2004 -0.2569  0.1749
11017W        W27491   4.535  16.732   3.285 -0.3993 -0.3167  0.0274
11018W        W27492   4.260  18.075  13.110 -0.0403 -0.5240  0.1155
11019W        W27493   4.041   0.479   8.771  0.0650 -0.4220 -0.0180
11020W        W27494   9.483  15.485  14.100  0.0464  0.2104 -0.1157
11021W        W27495   5.519  13.966  10.149 -0.1420 -0.0617 -0.1639
11022W        W27496   9.355   1.806  12.690 -0.0309  0.1488  0.1429
11023W        W27497   3.146  16.116  14.361 -0.2746  0.3511  0.1779
11024W        W27498   7.634   9.917  12.388  0.2162  0.1102  0.2936
11025W        W27499   5.027   9.897  14.149 -0.1064  0.3731  0.1177
11026W        W27500  12.209  13.910   2.045  0.0307  0.0484  0.0868
11027W        W27501  19.416   3.442  14.157 -0.0462  0.1275  0.0648
11028W        W27502  18.705   7.321   0.912 -0.0301 -0.0399 -0.0658
11029W        W27503   3.291  18.127  12.831 -0.0376  0.1398  0.1213
11030W        W27504   3.011   0.415   5.295 -0.1754 -0.0213  0.2314
11031W        W27505  14.911  15.338   3.175  0.0669  0.0858 -0.3383
11032W        W27506   4.422   8.939   0.184 -0.1433  0.0509  0.1003
11033W        W27507  18.239  13.973  10.909  0.1327  0.0538 -0.1553
11034W        W27508  16.556  16.473   1.743 -0.0111 -0.2536  0.1601
11035W        W27509   8.055   9.328  11.885  0.2603  0.0144 -0.1623
11036W        W27510  18.521  14.380  11.077 -0.0556 -0.3253 -0.1895
11037W        W27511  18.245  16.710  12.070 -0.1451 -0.2224 -0.2329
11038W        W27512  14.246   7.327  12.154 -0.0292  0.1691 -0.1050
11039W        W27513  17.388   9.905  14.294 -0.1197 -0.0012 -0.0118
11040W        W27514  10.303  15.763   4.549  0.0416 -0.0686 -0.3468
11041W        W27515   9.905  14.814  12.954  0.1309  0.1472 -0.0144
11042W        W27516   8.954   2.965  13.062 -0.0603  0.0777  0.4574
11043W        W27517   5.709   3.403   4.636  0.1716 -0.0250  0.3019
11044W        W27518  16.395   5.804  12.593  0.3297 -0.0366 -0.3536
11045W        W27519   3.331   7.216   1.441  0.0107  0.0536  0.2299
11046W        W27520   9.366  13.709  11.062 -0.0392  0.3052 -0.1104
11047W        W27521   9.875  12.739   4.098  0.0874  0.2566  0.0340
11048W        W27522   9.817  12.872   4.756 -0.2332 -0.1737  0.3288
11049W        W27523  10.179   4.088  14.260  0.0161  0.2099 -0.1318
11050W        W27524   1.765   8.928   4.286 -0.1741 -0.2563  0.1889
11051W        W27525  19.082  11.542   8.821 -0.0631  0.1144  0.3311
11052W        W27526   5.596   6.789  11.585 -0.3056  0.1274  0.3254
11053W        W27527   8.736  13.958  12.252  0.0283  0.0568  0.0788
11054W        W27528   9.744   7.820   2.252  0.2303  0.0727  0.0344
11055W        W27529   0.665   2.457  11.777  0.0026  0.3189  0.0516
11056W        W27530  18.371   1.277   3.806  0.2246 -0.1359 -0.2562
11057W        W27531  10.299   7.024  13.390 -0.0088 -0.1072  0.0827
11058W        W27532   9.058   8.018   0.546 -0.0888 -0.1282  0.2499
11059W        W27533  15.259   5.091  10.575  0.2498 -0.0112  0.0467
11060W        W27534   5.623  15.269   4.667  0.0932 -0.0481 -0.2444
11061W        W27535   7.740  19.234   2.428 -0.2733 -0.2332 -0.0324
11062W        W27536  10.669   1.742  13.181 -0.1689  0.1318  0.3979
11063W        W27537   8.202  13.408  14.367 -0.1810 -0.1393 -0.0230
11064W        W27538   9.226  18.873  11.107 -0.4893  0.1432  0.0691
11065W        W27539   4.102  14.200   4.476  0.1994  0.0699  0.1195
11066W        W27540   8.273  16.846   4.083 -0.0159 -0.0679 -0.1651
11067W        W27541   8.632  13.009  12.110  0.0743 -0.1380 -0.0764
11068W        W27542  12.174  16.227  12.209  0.1072 -0.0075 -0.0886
11069W        W27543   7.906   3.012  11.288  0.2139  0.3649 -0.2053
11070W        W27544   0.405  11.324   1.949  0.3602 -0.0148 -0.4035
11071W        W27545   6.756  17.418  13.776  0.2291 -0.1019 -0.2221
11072W        W27546  11.973  12.988  10.606 -0.1579  0.0570 -0.0640
11073W        W27547  16.039  13.693  10.120 -0.1888  0.0231  0.1226
11074W        W27548   1.916  16.282   4.089 -0.0907 -0.1907  0.3974
11075W        W27549   4.266  18.557  12.948  0.0173 -0.2055  0.3747
11076W        W27550   5.525  13.010   3.675 -0.4441 -0.0618 -0.1156
11077W        W27551   1.106  12.479   3.767 -0.1418  0.0763  0.1253
11078W        W27552  18.613   7.550   2.325  0.0375  0.1162 -0.0714
11079W        W27553   6.358   1.097  10.459 -0.2616  0.1504  0.3684
11080W        W27554  16.782   7.590   3.874 -0.0992 -0.1216  0.0286
11081W        W27555  10.922   4.259   2.229 -0.1237  0.0416  0.1913
11082W        W27556  13.078   7.072  11.521  0.0980 -0.0991 -0.1529
11083W        W27557  14.892  15.099  12.620 -0.0982  0.3367  0.0094
11084W        W27558   3.176   2.904  13.077 -0.2912 -0.2148  0.0141
11085W        W27559   4.391  12.853   3.357  0.0630 -0.1043 -0.1308
11086W        W27560   0.935  15.446   1.532  0.3420  0.2253  0.0190
11087W        W27561  10.996   1.316  10.357  0.1815  0.1356  0.2068
11088W        W27562  11.262  13.685   3.665  0.0084  0.0137  0.3955
11089W        W27563  10.565   3.826  13.236  0.0798 -0.2833 -0.0892
11090W        W27564   2.148   3.165   3.123 -0.0800  0.0610 -0.1055
11091W        W27565   3.724  11.980   3.278  0.2663 -0.2104 -0.1647
11092W        W27566  17.779  17.907   0.936  0.1302  0.0211 -0.2645
11093W        W27567  11.482  15.480   2.009  0.2114  0.1821  0.0547
11094W        W27568  19.062   4.476   0.265 -0.0633 -0.1327  0.0890
11095W        W27569  15.790  15.072  13.683 -0.0230 -0.0823 -0.2328
11096W        W27570  11.262   3.874   0.286  0.2582  0.1274 -0.0783
11097W        W27571   1.718   5.528  14.445 -0.0374  0.1018  0.0252
11098W        W27572   4.336   1.699   3.034 -0.0559 -0.2236  0.0798
11099W        W27573   7.399  10.752  12.553  0.0453 -0.0531  0.1382
11100W        W27574   4.244   1.208   3.062  0.1335 -0.0013 -0.2404
11101W        W27575  11.360   8.181  12.281  0.2230  0.0218  0.0130
11102W        W27576   8.754   8.701  13.511 -0.0249  0.0809  0.1319
11103W        W27577  18.133   4.688   9.567  0.0425 -0.2698  0.2425
11104W        W27578  12.463  17.058   2.034  0.0287 -0.0672 -0.1953
11105W        W27579   9.425   1.215   4.392 -0.0534  0.1342  0.0497
11106W        W27580  15.345  13.489  11.049 -0.1054 -0.3041  0.3368
11107W        W27581  17.413  19.372  12.505  0.1212 -0.2492  0.0686
11108W        W27582  11.722  15.823  13.184 -0.0128 -0.1106 -0.3065
11109W        W27583   6.882   0.162   1.512 -0.0925 -0.2427 -0.0059
11110W        W27584   5.430   5.558   3.319 -0.1981 -0.2293 -0.1278
11111W        W27585  17.468   4.239  11.163  0.0399  0.1822 -0.0238
11112W        W27586   1.412   9.374  12.704 -0.0561  0.0149 -0.2658
11113W        W27587  18.843  18.652   3.589  0.2492 -0.1196 -0.1303
11114W        W27588   6.709   2.336  11.190  0.0125 -0.0138 -0.3211
11115W        W27589  11.746  14.328   2.629  0.3139 -0.0773  0.0811
11116W        W27590   2.271  12.346   0.343 -0.0976  0.2673  0.0446
11117W        W27591  14.098  10.948  12.188  0.2632  0.2729 -0.2527
11118W        W27592  12.199  19.328  14.227  0.1533  0.1356  0.1770
11119W        W27593  10.098  11.625   2.070  0.1821 -0.0800  0.0141
11120W        W27594  13.923  14.182   3.841 -0.0776  0.0483  0.0051
11121W        W27595   4.916   6.571   0.256  0.0957 -0.1262 -0.2368
11122W        W27596   3.157   6.040   2.846 -0.0776  0.2074  0.2745
11123W        W27597   9.112  18.412  11.322 -0.2705  0.0178  0.2195
11124W        W27598  14.096   1.871  11.363 -0.1752 -0.0724 -0.0599
11125W        W27599  11.433  11.094   0.757 -0.1870  0.1518  0.2700
11126W        W27600   3.483   6.304   3.716  0.3602  0.1885  0.0921
11127W        W27601  13.343   1.901  13.525  0.0634 -0.0354  0.2795
11128W        W27602   8.881   3.520  11.202  0.1642  0.0201  0.3242
11129W        W27603  12.908   1.824   2.143  0.2750 -0.1097  0.0025
11130W        W27604  15.597  18.242   1.630  0.0234 -0.2720  0.3687
11131W        W27605   4.768  12.647  12.709 -0.5515 -0.1815  0.1232
11132W        W27606  13.476   0.643  13.022 -0.2014  0.0055 -0.0820
11133W        W27607   7.115   9.953  14.199  0.3408  0.0544  0.0738
11134W        W27608  17.395   1.180  13.559  0.1554 -0.0759 -0.2864
11135W        W27609   1.461   4.533   2.463 -0.1212  0.1620 -0.1969
11136W        W27610   7.891   1.450  12.580 -0.3884  0.3161  0.2764
11137W        W27611   0.201   6.107   4.007  0.1897  0.1310  0.1195
11138W        W27612  16.364  14.948  11.559  0.1418  0.0544 -0.2349
11139W        W27613   3.642  15.581  10.516  0.0089 -0.0679  0.0978
11140W        W27614  12.389   4.507   2.471  0.0435  0.0291  0.1517
11141W        W27615  10.443   5.654  10.376 -0.0207  0.1337 -0.0453
11142W        W27616  19.330   5.644   4.571 -0.2922 -0.1315  0.0850
11143W        W27617  12.535  10.224  14.357 -0.4594  0.2760  0.0688
11144W        W27618   7.347  10.240   1.768  0.0534 -0.2535 -0.0881
11145W        W27619  11.734  15.453   3.501 -0.1857  0.1167  0.0508
11146W        W27620   8.197  14.504   1.446  0.1400 -0.1511  0.2496
11147W        W27621  19.006   8.743  12.539  0.2016  0.2133  0.0780
11148W        W27622  13.855  19.296  13.852  0.1145  0.0052 -0.0190
11149W        W27623  17.804  16.457  13.170  0.2298 -0.1282 -0.1911
11150W        W27624  15.141  12.961   3.811  0.0919  0.0057  0.4564
11151W        W27625  12.833   7.418  12.638  0.1125  0.1601 -0.1024
11152W        W27626   3.068  12.678  12.812 -0.0273  0.4014  0.0840
11153W        W27627   5.641   7.928   0.627 -0.2534 -0.0417 -0.2282
11154W        W27628  14.409   5.145   2.939 -0.4283  0.0914 -0.1030
11155W        W27629  10.630   1.129  11.972 -0.1319  0.0884  0.3009
11156W        W27630   4.615  14.224  14.328 -0.0704  0.1657  0.0595
11157W        W27631   4.897  15.535   2.539 -0.2720 -0.1903 -0.0371
11158W        W27632   2.541   6.811  12.195  0.0020  0.1867  0.0520
11159W        W27633   2.968  12.063   0.721  0.0550  0.0182 -0.0088
11160W        W27634   2.907  13.580   3.527 -0.0698 -0.1285 -0.2242
11161W        W27635  16.927  16.416  12.604  0.2441 -0.0597 -0.0328
11162W        W27636   5.635   7.384  11.118 -0.3206 -0.2421 -0.0880
11163W        W27637  18.613  16.058   2.094 -0.2259  0.3174  0.3661
11164W        W27638  10.053  12.215  13.762  0.1295  0.3099  0.0061
11165W        W27639   3.362  17.441  10.274 -0.3336  0.0135 -0.0895
11166W        W27640  15.833   1.866  12.150 -0.0412 -0.0403  0.2072
11167W        W27641  14.711   4.914  13.896  0.2420 -0.4081  0.1579
11168W        W27642  15.436   3.300   1.801  0.1497 -0.0048  0.0102
11169W        W27643   6.738  10.931   3.889  0.3970  0.4345  0.0790
11170W        W27644   0.095  17.397  12.525 -0.0941  0.1240  0.1607
11171W        W27645   1.596   3.987   1.941 -0.3531 -0.2254  0.1556
11172W        W27646  16.976   7.860   0.552 -0.3296  0.2082 -0.2354
11173W        W27647   7.396   2.479   3.614 -0.0739  0.3918 -0.2997
11174W        W27648  10.680  14.933  13.548  0.1467  0.0450 -0.0046
11175W        W27649  10.766   9.559  14.266  0.2903  0.0825  0.1096
11176W        W27650   2.719   6.067  12.451  0.0218  0.0168  0.2741
11177W        W27651  19.129  19.082  11.003  0.3196  0.0302 -0.1198
11178W        W27652  11.608   2.120   4.656 -0.0058  0.1113  0.3831
11179W        W27653   8.887  17.694   3.548 -0.0155  0.0219 -0.2102
11180W        W27654   7.084  14.919  11.924  0.2733 -0.1012 -0.0016
11181W        W27655   2.925  12.403  11.258 -0.2516 -0.1002  0.0982
11182W        W27656  14.705  13.147   3.404 -0.0484 -0.1572  0.0681
11183W        W27657  13.752   0.456   2.514 -0.2841 -0.0703 -0.0963
11184W        W27658  10.783  18.569   0.817  0.1536  0.0852  0.0036
11185W        W27659  14.861   3.287   4.397 -0.0788 -0.2892 -0.2493
11186W        W27660  13.615   2.642  10.945  0.0806  0.0471 -0.0300
11187W        W27661   6.525  19.616   2.679  0.1033  0.3433  0.4894
11188W        W27662   5.381  12.626  11.846  0.0905  0.0170 -0.1416
11189W        W27663  14.045   4.905  12.667 -0.0653  0.1224  0.2472
11190W        W27664   9.943   2.742  14.006 -0.0703  0.0151  0.2727
11191W        W27665  17.293   6.341  13.942  0.0490  0.0305  0.0514
11192W        W27666   0.943   1.492  10.716 -0.2171  0.2155 -0.0230
11193W        W27667   0.847  18.818  12.038 -0.0457  0.0952  0.0974
11194W        W27668  16.960   5.127  14.244 -0.2002  0.2053 -0.0918
11195W        W27669  17.833   7.309   1.222  0.2883  0.2803 -0.1653
11196W        W27670  14.481  16.392   3.497 -0.1739  0.0381  0.1457
11197W        W27671   9.695   0.060   1.594  0.0853  0.0161 -0.2073
11198W        W27672   4.493   1.738   4.898  0.2508  0.0883 -0.0583
11199W        W27673   4.574   5.376  12.339  0.1659 -0.0956 -0.1783
11200W        W27674   6.087   1.311   2.779 -0.0725 -0.1132  0.3890
11201W        W27675  18.934  16.445   1.730  0.1426  0.0380  0.0890
11202W        W27676  16.788  15.713   4.534  0.1552 -0.1023 -0.0711
11203W        W27677  12.858  13.171  12.080 -0.2555 -0.1231 -0.0784
11204W        W27678  19.061  12.601  12.040  0.1187  0.1047  0.1791
11205W        W27679   4.268  14.780  13.576  0.1385  0.1978  0.0808
11206W        W27680   3.382   7.967   0.967 -0.0855  0.0755  0.0776
11207W        W27681  11.405   9.446   2.900  0.1394  0.1841 -0.0281
11208W        W27682   8.278   4.283   1.727 -0.0757  0.1940  0.0891
11209W        W27683  15.625  12.309   3.154 -0.0057 -0.0528 -0.1109
11210W        W27684   4.675  11.749   2.496 -0.0175 -0.0125  0.1029
11211W        W27685   2.928  14.242   3.145  0.1163 -0.2817 -0.0545
11212W        W27686   0.122   9.739  13.299  0.2573 -0.0484 -0.3737
11213W        W27687   8.224  15.185   4.319 -0.0154  0.1675  0.0090
11214W        W27688   1.325  12.375   5.051 -0.2445  0.0391 -0.2178
11215W        W27689   0.756   7.185  10.714 -0.0905 -0.2041 -0.1562
11216W        W27690  18.272   8.444   4.971  0.2750  0.3768 -0.5105
11217W        W27691  10.646   0.348   4.402  0.0133 -0.1625  0.1413
11218W        W27692  15.394   7.110  14.558  0.6063 -0.2689 -0.1246
11219W        W27693  18.181   1.833   5.381 -0.2352 -0.0601  0.0485
11220W        W27694   2.694  13.206  13.402  0.0480  0.0581 -0.0244
11221W        W27695   2.209   4.393   1.067 -0.2297  0.2409  0.1033
11222W        W27696   2.352  13.720   2.180 -0.6155  0.2909 -0.0023
11223W        W27697  10.252  18.854   4.907  0.2754 -0.1114  0.2774
11224W        W27698   2.922   4.253   1.387  0.2108 -0.2148 -0.2978
11225W        W27699   1.819   0.095  14.377  0.1410 -0.3892 -0.1702
11226W        W27700   9.747   1.657  13.553  0.0684  0.2899  0.1910
11227W        W27701  11.701  15.084   0.955 -0.1863  0.0068 -0.1183
11228W        W27702  19.342  13.427  11.373  0.2333  0.2573  0.0599
11229W        W27703   9.122  10.805  12.089  0.0572 -0.0619 -0.2019
11230W        W27704   0.609  10.280  11.233 -0.0075 -0.1628 -0.0070
11231W        W27705  15.086   0.791  11.396 -0.1782  0.2883  0.0324
11232W        W27706   2.719  18.039   3.777 -0.0948 -0.1176  0.0275
11233W        W27707   4.069  12.000   1.725 -0.2652  0.1843 -0.1655
11234W        W27708  11.820  15.213   9.732  0.3045  0.0013 -0.1993
11235W        W27709  14.504  17.644  14.265  0.3413 -0.0445  0.2789
11236W        W27710   2.088   9.135  11.828  0.0101  0.2011 -0.0596
11237W        W27711  11.637   8.124   1.243  0.1794 -0.3539  0.3567
11238W        W27712  12.514  16.702  13.115  0.0422 -0.0947  0.0315
11239W        W27713   3.224   6.742  10.813  0.0223 -0.0544 -0.1699
11240W        W27714   7.620   7.524   0.205 -0.0156 -0.2957 -0.1475
11241W        W27715   2.898   9.355   3.233 -0.1077 -0.0771 -0.0947
11242W        W27716  19.329   7.169   3.658  0.1680 -0.1418  0.2632
11243W        W27717  17.786  18.992  12.231  0.0135  0.0854  0.1917
11244W        W27718   9.159  15.987   3.551  0.1038 -0.0498 -0.1686
11245W        W27719   9.742  14.578   4.951  0.1140  0.1151  0.1746
11246W        W27720  12.223  17.970  11.254 -0.1974  0.3243  0.1163
11247W        W27721   1.318  17.050   0.877  0.1108  0.0531  0.3905
11248W        W27722  13.440  19.042   5.007 -0.0020  0.1847 -0.0452
11249W        W27723   2.907   7.818  11.927  0.0725 -0.0567  0.1421
11250W        W27724  18.893  15.295  14.346 -0.1525 -0.0172  0.0675
11251W        W27725   9.451   9.512   0.704  0.2303  0.0411  0.0207
11252W        W27726  10.894  17.821   2.129  0.2789 -0.2888 -0.0491
11253W        W27727   8.664  14.391  14.400  0.5186  0.1277 -0.0125
11254W        W27728   9.689   9.059  12.610 -0.0296 -0.1482  0.0802
11255W        W27729   6.915   9.266   2.732 -0.0451 -0.1385  0.2216
11256W        W27730  17.079  19.601  12.154  0.1292  0.0826 -0.0127
11257W        W27731  14.031  14.722  10.964 -0.1979 -0.2113 -0.2046
11258W        W27732   8.126   5.172  10.330  0.0786 -0.1250 -0.0442
11259W        W27733   5.858  17.738   0.731 -0.2303  0.3375  0.1065
11260W        W27734  13.224  13.023  13.586  0.2158  0.3049 -0.0435
11261W        W27735  18.775  10.722  12.995 -0.0747 -0.0083  0.3523
11262W        W27736  19.004   9.965  11.251 -0.0481 -0.0084  0.0476
11263W        W27737   9.858   1.464   0.603 -0.2725  0.1486  0.2798
11264W        W27738   4.476  18.575   0.150  0.2032 -0.0848  0.1395
11265W        W27739   6.804   9.998   1.768 -0.1847  0.0239 -0.0242
11266W        W27740  12.723   9.431  13.638 -0.0945  0.0040 -0.1707
11267W        W27741  17.693   0.566  13.669 -0.0379  0.0286  0.0815
11268W        W27742   4.012   3.509   1.622  0.1913 -0.0006 -0.2084
11269W        W27743   0.244   7.353   1.779  0.1031  0.3373  0.2058
11270W        W27744   1.978  10.217  14.032 -0.2071 -0.3812  0.5125
11271W        W27745   4.140  10.389   4.481  0.3839  0.0134  0.0153
11272W        W27746   6.860  17.885  12.404  0.0301 -0.0086 -0.0818
11273W        W27747  16.404   7.544  11.911 -0.4225  0.0074  0.0520
11274W        W27748   9.568   4.987   3.817  0.1487  0.0436 -0.1059
11275W        W27749   2.780  13.363   5.305 -0.0302  0.2302  0.1817
11276W        W27750   5.343  14.490   5.617  0.0511  0.0897 -0.1873
11277W        W27751   3.247   8.773   0.091 -0.0478 -0.3897  0.1472
11278W        W27752   1.408   2.491   4.452 -0.1959  0.0593  0.0999
11279W        W27753   3.066   0.444   3.959 -0.2180  0.0392  0.1513
11280W        W27754   0.667   7.197   5.161 -0.1036 -0.1996 -0.1277
11281W        W27755   9.677  17.850   0.257 -0.0510  0.1150 -0.2117
11282W        W27756   6.091   3.598  10.772 -0.0193  0.3117 -0.1204
11283W        W27757  17.707  13.733  10.185 -0.0864  0.2505 -0.1331
11284W        W27758   7.521  18.147   3.345  0.1511 -0.0426 -0.3816
11285W        W27759   1.263  17.562   0.278 -0.0196  0.1901  0.1269
11286W        W27760  16.296  10.960   2.623 -0.0760  0.2083  0.3240
11287W        W27761  14.148  12.284   3.428 -0.1967 -0.1016  0.2721
11288W        W27762  16.327  12.724   1.090 -0.0695  0.2929 -0.1301
11289W        W27763   9.632   0.852   5.220 -0.2230 -0.3319 -0.2498
11290W        W27764  18.160  13.210   0.037  0.1311 -0.0862 -0.0832
11291W        W27765  13.228   1.043  11.271  0.3749 -0.0276 -0.2203
11292W        W27766  15.182   0.651   9.669 -0.0913  0.1421 -0.0338
11293W        W27767   2.337   8.858   1.230 -0.1395  0.0830  0.0781
11294W        W27768   3.079  13.002  11.951  0.0754  0.1185 -0.1293
11295W        W27769   3.163  11.700   1.022 -0.1947  0.2348 -0.1019
11296W        W27770  19.097   5.619  13.073  0.3463 -0.3546 -0.1055
11297W        W27771   4.855   5.918   4.346  0.1763  0.0818  0.1892
11298W        W27772   1.751   1.279   1.971  0.0465 -0.3644  0.2292
11299W        W27773  18.674   5.417   4.045  0.1344  0.0073 -0.0497
11300W        W27774  12.012  10.742   4.102  0.1558 -0.0549 -0.1808
11301W        W27775   8.166  10.431   4.017 -0.2967 -0.1767 -0.1435
11302W        W27776  10.679   7.441  13.561 -0.0622 -0.1111 -0.1481
11303W        W27777   4.873   4.293  13.311  0.1187 -0.1112  0.2265
11304W        W27778  10.866   8.243  10.313 -0.0510  0.2629 -0.0463
11305W        W27779  18.643   8.148   1.767  0.1996  0.1482 -0.0593
11306W        W27780   2.701  13.823  13.434  0.1146  0.0126  0.0055
11307W        W27781  18.366  17.768   5.159  0.2525 -0.2457  0.2096
11308W        W27782  18.975  19.468  13.552  0.0183 -0.1259 -0.3801
11309W        W27783   9.161  12.664   1.575  0.0558 -0.1138  0.1226
11310W        W27784   4.148  17.089   4.444  0.4508  0.2009 -0.1744
11311W        W27785   9.335  15.543   3.498  0.1008 -0.3672  0.0098
11312W        W27786  16.100   6.186   0.367  0.2739  0.3910  0.1908
11313W        W27787  16.911  10.387   3.924  0.0490  0.0865  0.1396
11314W        W27788   6.278   1.843   2.721  0.0841  0.1378  0.0907
11315W        W27789   4.548   8.761   2.771 -0.1165  0.2480  0.1855
11316W        W27790   1.840  13.278  13.101 -0.0193 -0.2201  0.1898
11317W        W27791  16.855   9.942   2.358 -0.3758 -0.1032 -0.0648
11318W        W27792   0.934  10.475  10.464 -0.2415 -0.2171  0.0289
11319W        W27793  12.077  10.109   5.453  0.1061  0.0064  0.3358
11320W        W27794  13.112   4.477   0.718  0.0802 -0.1221 -0.0033
11321W        W27795   9.148   0.062  11.547 -0.1155  0.0961  0.3617
11322W        W27796  18.855   4.536   0.774 -0.3660  0.1879  0.3131
11323W        W27797  15.102  12.062  11.171  0.2114  0.0387 -0.3185
11324W        W27798   7.229   8.870   3.681  0.0681 -0.0450 -0.0628
11325W        W27799  16.072   8.258   2.927 -0.0287 -0.3265  0.1167
11326W        W27800   5.528  12.572  13.257  0.1578  0.3994 -0.2588
11327W        W27801   1.057   1.935  12.342  0.1994 -0.1479 -0.1729
11328W        W27802  18.982   5.688   3.138  0.3083 -0.1198 -0.2582
11329W        W27803  19.550  15.341  10.053 -0.0830 -0.3264  0.1151
11330W        W27804   0.209   0.569  14.442 -0.1268 -0.0730  0.3694
11331W        W27805   8.924  13.166  13.081  0.0756  0.0036 -0.1838
11332W        W27806   7.312  11.870  11.471  0.3315  0.2647 -0.0370
11333W        W27807  10.279  15.770  13.539 -0.0715  0.1595  0.0278
11334W        W27808  18.059   0.101  10.670  0.0767  0.0424 -0.0849
11335W        W27809   1.835   8.574  14.366 -0.2135 -0.1022 -0.4105
11336W        W27810   7.790  15.458   0.479 -0.0604 -0.0461 -0.2799
11337W        W27811   4.903  14.646  11.775 -0.1147  0.1557  0.2881
11338W        W27812   0.080   4.098   3.774 -0.0875  0.3366  0.1807
11339W        W27813   1.726  12.800   4.163  0.0507 -0.4045  0.1023
11340W        W27814   2.944   2.728  10.739 -0.1038  0.1390 -0.1601
11341W        W27815   2.310   4.823  10.848 -0.0024 -0.0615 -0.2238
11342W        W27816   6.783  13.297  13.073 -0.1457  0.0333 -0.1564
11343W        W27817  12.092   9.586  11.256  0.1176  0.4434 -0.1564
11344W        W27818   8.583  17.975  11.418 -0.2630  0.0971  0.4387
11345W        W27819   9.157   2.917  12.500  0.3760 -0.0282 -0.0125
11346W        W27820   9.665   9.337  14.045 -0.1839  0.1733  0.0363
11347W        W27821  11.690  15.095   0.321 -0.1318  0.4499 -0.0144
11348W        W27822  16.261   2.109  11.273 -0.2423  0.1569  0.0158
11349W        W27823   2.702   9.161  13.789  0.1856  0.1647 -0.0029
11350W        W27824  16.512  16.955  10.996  0.0200  0.1334 -0.0979
11351W        W27825   8.478   0.296  13.103 -0.0663 -0.1161 -0.4295
11352W        W27826   1.479   4.512   9.887  0.0143  0.1584 -0.0599
11353W        W27827   3.025   9.479   2.659 -0.0431 -0.0790 -0.0481
11354W        W27828   7.210   2.670  11.919 -0.0194 -0.1357  0.0495
11355W        W27829  14.516   2.471   3.034 -0.0946  0.0586  0.0224
11356W        W27830  16.782  13.251   2.495  0.2057  0.3370 -0.0728
11357W        W27831   6.803  14.349  13.484 -0.1614  0.1422  0.2169
11358W        W27832  13.883   2.043   2.377 -0.1165 -0.2632  0.2865
11359W        W27833  13.289  12.880  12.293  0.0368 -0.0259 -0.2608
11360W        W27834   7.431  18.103  12.393 -0.0072 -0.3113  0.0165
11361W        W27835   9.810  15.364   1.834 -0.0699  0.3421 -0.2976
11362W        W27836  15.099   5.395  14.062  0.1750 -0.3158 -0.0306
11363W        W27837  17.610   9.064   4.039 -0.1976  0.3018  0.0988
11364W        W27838   3.361   6.646  12.672  0.0211  0.0768 -0.0281
11365W        W27839   7.788  17.644   0.168 -0.4782  0.2569 -0.1547
11366W        W27840   9.932  18.958  13.757 -0.2542  0.0127  0.1382
11367W        W27841   4.053  12.907   0.755  0.2581 -0.0443 -0.0802
11368W        W27842   5.644  18.167   2.585 -0.1147  0.1946 -0.1030
11369W        W27843   7.198   9.886  13.019 -0.0699 -0.0243  0.0416
11370W        W27844  12.891  11.436   3.133  0.0208 -0.0716 -0.1549
11371W        W27845   5.592   6.983  12.057  0.5112  0.1948 -0.0297
11372W        W27846  10.560   3.717   1.876 -0.0088 -0.3245  0.0363
11373W        W27847  10.307  14.093   4.413 -0.2558 -0.3070 -0.1501
11374W        W27848   8.247  12.964  14.551  0.1105 -0.1091  0.2253
11375W        W27849   0.402  17.806   0.426  0.0865 -0.0736  0.0544
11376W        W27850  18.665   2.082   4.412  0.1473  0.0630  0.1905
11377W        W27851  15.584   6.155  14.062  0.0184  0.1294  0.1326
11378W        W27852   2.165   0.328   3.725  0.1395  0.4176  0.1395
11379W        W27853  17.930   8.876  13.548 -0.1335  0.0648 -0.0068
11380W        W27854  15.920  12.332   0.023  0.0232  0.0268  0.0961
11381W        W27855  19.117   7.193   1.198 -0.2752  0.1155  0.2281
11382W        W27856   7.262  13.225  11.686 -0.2932  0.0101  0.0314
11383W        W27857  18.586   3.259  12.789  0.0329  0.0956 -0.2432
11384W        W27858  18.944   5.940  10.726  0.1115 -0.0980 -0.0166
11385W        W27859  12.712  15.314  13.513  0.2260 -0.1218 -0.1026
11386W        W27860  13.705   3.914   4.434  0.1655 -0.1479  0.0067
11387W        W27861   0.701   5.893   4.198 -0.0450  0.0306 -0.1020
11388W        W27862  14.605   7.389  10.678  0.4147 -0.0872 -0.2758
11389W        W27863   1.534   9.489   0.011 -0.0543 -0.1504 -0.0474
11390W        W27864  18.839   1.330  10.229  0.2603  0.1155  0.0146
11391W        W27865  10.831   8.245  12.402  0.2502 -0.0463 -0.0036
11392W        W27866  18.182   7.889   1.502 -0.0372  0.2191 -0.1490
11393W        W27867   5.446  17.751   0.456 -0.1799  0.2953  0.0376
11394W        W27868   1.263  11.601  11.229 -0.0927  0.4241 -0.0011
11395W        W27869  14.974   1.023  12.160 -0.3471 -0.2910  0.0555
11396W        W27870  14.395  15.360  12.194  0.1699 -0.0265 -0.0351
11397W        W27871   2.038  14.753  14.549 -0.0224 -0.1561  0.1469
11398W        W27872  19.544  16.680  14.242 -0.1274 -0.3225  0.0842
11399W        W27873  12.609   1.851   4.762 -0.0674 -0.3079  0.0082
11400W        W27874  16.983   2.548  13.595  0.0446 -0.0243  0.0283
11401W        W27875  17.166   8.556  10.536  0.0623 -0.1757 -0.1512
11402W        W27876   5.730   2.764  12.521  0.0693  0.0612  0.2995
11403W        W27877   5.697  18.895   3.261  0.1408  0.1130  0.1355
11404W        W27878   2.254   7.580   2.786 -0.0983 -0.0237  0.1901
11405W        W27879  13.626  11.796   0.785  0.0631  0.3693  0.0449
11406W        W27880  18.336   9.443  12.212  0.1166  0.0811 -0.1247
11407W        W27881  15.308  12.760   0.802  0.3060  0.0628 -0.2302
11408W        W27882   9.714  16.253   1.097  0.0340  0.1715  0.0253
11409W        W27883  16.978   7.680   1.002 -0.0014 -0.1310 -0.2570
11410W        W27884  10.541   0.710   0.970 -0.3623 -0.0264 -0.1484
11411W        W27885   7.694  17.953   2.249 -0.0569  0.2502  0.2995
11412W        W27886  12.436   8.699   0.287  0.3182  0.2413  0.2714
11413W        W27887   7.691  16.648   2.168  0.0893 -0.1911  0.1225
11414W        W27888  10.266  18.636   2.341 -0.0381  0.0505  0.0851
11415W        W27889   1.550  13.201  12.262  0.1829 -0.2199  0.1559
11416W        W27890   6.118   2.054  10.285  0.0425  0.2182 -0.3432
11417W        W27891  11.937   5.963   9.649  0.0545 -0.0094 -0.0013
11418W        W27892   5.724  16.988   1.055  0.0652 -0.0388 -0.1357
11419W        W27893  11.305  15.277   2.387  0.0137 -0.0220 -0.0826
11420W        W27894   0.006  18.605   5.145  0.0166  0.1446 -0.0319
11421W        W27895   1.908  17.901   2.225 -0.0476 -0.1701  0.0843
11422W        W27896   5.802  10.361   3.818 -0.1445  0.0465 -0.1292
11423W        W27897  13.658   1.586  12.132 -0.2542  0.2734  0.1116
11424W        W27898   9.579   2.758  12.772  0.2734 -0.0211  0.1055
11425W        W27899  19.397  14.209  13.905 -0.1065  0.0500 -0.3617
11426W        W27900  17.593   2.626  10.978 -0.1025  0.0079 -0.0103
11427W        W27901   4.033   3.594   2.676 -0.0761 -0.0804 -0.0831
11428W        W27902   7.154  13.293   3.921  0.0661  0.4897 -0.0526
11429W        W27903   6.934  19.611   0.683  0.2500  0.0462  0.3398
11430W        W27904  17.708   6.985   0.386  0.1812  0.0767 -0.3121
11431W        W27905  18.692   1.255  12.136  0.3331  0.2495  0.3129
11432W        W27906   4.370  12.745   1.143  0.1945  0.1707 -0.2571
11433W        W27907  10.384  13.517   4.192  0.0053 -0.0385 -0.1689
11434W        W27908   5.818  10.253   5.224  0.2003  0.0592 -0.3630
11435W        W27909   1.196   7.016  13.645 -0.3273 -0.2349 -0.1199
11436W        W27910  16.415   1.079  14.116  0.0780 -0.2939  0.4232
11437W        W27911  18.622   0.016  13.048 -0.0208  0.1072 -0.1662
11438W        W27912  18.480  10.914   1.046 -0.2332  0.2587  0.1615
11439W        W27913  18.280  11.476  13.893  0.2088  0.2256 -0.0022
11440W        W27914  16.812   9.328   3.691  0.2685 -0.0104 -0.2868
11441W        W27915  13.815  11.253   1.517 -0.0671  0.0447 -0.2091
11442W        W27916   0.523   5.960  14.566 -0.0873  0.1122 -0.1306
11443W        W27917  16.276   4.463   4.113  0.0209  0.1047 -0.1260
11444W        W27918  14.908  19.125   1.944  0.0991 -0.1297  0.2633
11445W        W27919  18.378   0.588   1.211 -0.1106  0.1980 -0.2016
11446W        W27920   2.305  10.189   1.027 -0.0750 -0.1750 -0.5376
11447W        W27921   6.660   9.936   3.493 -0.0601  0.0436 -0.3294
11448W        W27922  13.540  16.342   3.410 -0.0551  0.1465 -0.0500
11449W        W27923  15.607   0.241   5.007  0.0794 -0.2723 -0.0655
11450W        W27924  15.624   2.608  11.975  0.0255  0.1288  0.2591
11451W        W27925   6.932  12.290   3.483 -0.0536  0.0851 -0.1287
11452W        W27926   0.187   0.924   1.188  0.2023 -0.0821  0.0059
11453W        W27927   2.420  15.450   2.566  0.0038  0.0747 -0.2582
11454W        W27928  16.803   1.886  13.398  0.2594  0.1276 -0.2142
11455W        W27929  15.039  17.907  10.445 -0.3005 -0.1079  0.0734
11456W        W27930  11.117   2.530  12.218 -0.2077  0.0947  0.2018
11457W        W27931  17.304  18.865  11.219 -0.0620  0.0457  0.1183
11458W        W27932   0.451  12.784   2.018 -0.0290 -0.0660 -0.0928
11459W        W27933  10.025  14.719   0.662 -0.4445  0.0097  0.0275
11460W        W27934   2.901  12.279  10.747 -0.2693  0.0256  0.2447
11461W        W27935  12.321  10.273   4.079  0.1759  0.1230 -0.1011
11462W        W27936   1.744   7.386   2.882  0.1121  0.4051 -0.0392
11463W        W27937   3.009   1.058  10.826 -0.1842 -0.0963 -0.0495
11464W        W27938   2.656  15.083  10.257  0.0731  0.0798 -0.2073
11465W        W27939   6.420   7.759   9.943  0.4315 -0.1287 -0.0209
11466W        W27940  12.647  17.749  10.430 -0.1814  0.1231 -0.0907
11467W        W27941   5.381  13.886   1.766 -0.1562  0.2441 -0.1555
11468W        W27942   5.349  11.540  14.087  0.5771 -0.2867  0.0436
11469W        W27943  10.500  11.957   2.899  0.2926  0.1504  0.3312
11470W        W27944  12.780  16.883   2.398  0.1937  0.2229  0.0312
11471W        W27945  19.418   2.687   2.402  0.1254  0.3930  0.0850
11472W        W27946   6.803  11.887  11.283  0.1105  0.1036 -0.1124
11473W        W27947   0.068   2.873   1.090 -0.1010 -0.1926 -0.4969
11474W        W27948  14.773   8.281   1.582  0.3118 -0.1085  0.0721
11475W        W27949   0.500  13.823   4.079 -0.0221  0.1450  0.3264
11476W        W27950   2.534  15.390  13.852 -0.3145  0.0375  0.0815
11477W        W27951  19.239   1.186  12.092 -0.2387  0.2463  0.2536
11478W        W27952   4.054   1.023  11.023 -0.1564  0.1453 -0.0614
11479W        W27953  16.044  17.927   4.320 -0.0445 -0.0201 -0.0849
11480W        W27954  13.398   2.111   4.802 -0.0917  0.2106  0.0103
11481W        W27955  13.048   4.551  11.909  0.0772 -0.0473 -0.1230
11482W        W27956  14.518  12.569   3.105 -0.0351 -0.0944 -0.1507
11483W        W27957  17.668  14.287   4.034  0.0192 -0.0277  0.2594
11484W        W27958  11.963   1.749   1.000 -0.0808  0.1394  0.0734
11485W        W27959   0.259  10.478   9.888 -0.0179 -0.2691  0.1187
11486W        W27960  11.675   4.809  14.248 -0.1913  0.1123  0.3817
11487W        W27961   2.320   0.313  11.281 -0.2214  0.1808 -0.1664
11488W        W27962   6.943  13.735   5.250  0.4349  0.1594 -0.1935
11489W        W27963   1.168   0.654  12.429 -0.2277  0.2545 -0.0349
11490W        W27964  11.118   7.763  13.481 -0.1741  0.2083 -0.3460
11491W        W27965  12.381   7.237  13.283  0.0043  0.1283  0.0588
11492W        W27966  11.838   6.071   5.810  0.0807 -0.1135 -0.4007
11493W        W27967   1.691  12.306   1.048  0.0307 -0.0041  0.0242
11494W        W27968   8.045   8.324   2.894 -0.2176 -0.0979  0.1326
11495W        W27969   1.903  11.122  12.943  0.2758 -0.0616 -0.0930
11496W        W27970  17.769  16.183  11.551  0.0259 -0.2440  0.1244
11497W        W27971  11.644  16.199   2.805 -0.0445 -0.2507  0.1382
11498W        W27972  15.159   7.493  12.082 -0.0916 -0.2159  0.1333
11499W        W27973   7.526   4.398   1.793  0.1017  0.0831 -0.3692
11500W        W27974   9.479  14.230  12.853 -0.0857 -0.2037  0.2275
11501W        W27975  10.860  16.017  12.700  0.0792  0.1082  0.1257
11502W        W27976  18.236   6.997   3.237  0.0734 -0.0641 -0.1581
11503W        W27977  15.629   6.518   4.139  0.1026  0.0262 -0.0947
11504W        W27978   6.968  16.587  14.122  0.0771 -0.3526  0.1564
11505W        W27979   7.747  16.830  10.346  0.1518 -0.2081 -0.0640
11506W        W27980   7.180   8.700   0.894 -0.1565  0.0923  0.0883
11507W        W27981   8.275   0.028   0.901 -0.1014  0.0328  0.0622
11508W        W27982  17.677  17.974   3.051 -0.1583 -0.1981  0.1290
11509W        W27983  19.320   9.721  10.020 -0.3946 -0.0161 -0.0682
11510W        W27984  15.090   5.682   0.612  0.1396  0.0418  0.3058
11511W        W27985  10.803   6.384  11.848 -0.2231 -0.0687  0.0465
11512W        W27986   1.355  19.151   3.996  0.1730 -0.1415 -0.0039
11513W        W27987  12.563  11.058   1.917  0.4011  0.0769  0.1405
11514W        W27988  18.988  12.328  11.153  0.1027 -0.1533  0.3250
11515W        W27989   7.042  12.326  11.399 -0.0202  0.2908 -0.3623
11516W        W27990  15.944   1.601  13.860  0.1816  0.1607 -0.3415
11517W        W27991  16.477  13.454   4.905  0.0598 -0.2211 -0.0494
11518W        W27992   7.055   4.971  12.507  0.0569  0.3270  0.0225
11519W        W27993  15.586  15.981   0.293 -0.0170 -0.1171  0.0789
11520W        W27994   8.719  19.387  13.965 -0.0669 -0.0921  0.0195
11521W        W27995  10.592   1.281  11.346 -0.2870  0.1808  0.1729
11522W        W27996  12.417   0.250   2.219 -0.0970 -0.1863 -0.0508
11523W        W27997  18.881   6.209   3.249 -0.1475 -0.1621  0.0780
11524W        W27998  13.614   1.143  11.771 -0.1495  0.2106 -0.2077
11525W        W27999  14.006  19.364  12.925 -0.1522 -0.0403 -0.0492
11526W        W28000   5.468  19.154   5.487  0.0623  0.1662  0.1365
11527W        W28001   1.481   7.725   4.718 -0.0090 -0.0989 -0.2178
11528W        W28002  13.796  14.143   1.152  0.0411 -0.0012 -0.0596
11529W        W28003   8.144   4.889   4.811 -0.0606  0.2461  0.1035
11530W        W28004  19.021  18.393   0.857  0.0636 -0.1508 -0.0517
11531W        W28005   3.483  14.280  14.109  0.2955  0.1993 -0.1495
11532W        W28006   5.811  15.809   3.538  0.0654 -0.2281 -0.0449
11533W        W28007  16.556   4.322  12.147  0.2052  0.2848  0.1042
11534W        W28008  14.198  12.301   4.941  0.1703  0.0458 -0.0341
11535W        W28009   7.679   6.994   9.270 -0.1590 -0.0209 -0.2283
11536W        W28010   4.449  12.325  12.524  0.0581 -0.1269  0.4381
11537W        W28011  11.192  10.303   1.454 -0.0940 -0.4009 -0.1906
11538W        W28012  11.801  14.957  11.138 -0.1598 -0.2222  0.1706
11539W        W28013   6.664  14.493  10.077  0.3338  0.0991 -0.4284
11540W        W28014   6.462  16.391   1.106  0.0902  0.0952  0.1219
11541W        W28015   3.773  16.958   2.337 -0.0620  0.2124  0.2182
11542W        W28016  16.994   5.625   4.000  0.0350  0.1962 -0.0149
11543W        W28017   1.843  16.141  14.292 -0.0482 -0.2010  0.1198
11544W        W28018  14.781   0.991  11.020  0.4950  0.1223  0.0259
11545W        W28019   7.714   2.055   2.276  0.1938  0.0055 -0.0206
11546W        W28020  15.868   5.594  13.264  0.2247  0.1283 -0.0714
11547W        W28021  19.556   5.861   0.466 -0.0896 -0.2947 -0.1247
11548W        W28022  10.891   2.840   0.512 -0.2789 -0.0973 -0.0313
11549W        W28023  15.190  19.183  13.477 -0.1779 -0.1374 -0.3212
11550W        W28024  14.169   4.495   1.579  0.3744 -0.0628  0.1349
11551W        W28025  13.773   8.255  13.541  0.2152  0.3075 -0.1981
11552W        W28026   2.336   7.917   4.246 -0.1647 -0.3209  0.3615
11553W        W28027   5.314  18.341   3.245  0.0877 -0.0094  0.0177
11554W        W28028   6.872  10.441   9.494 -0.0428  0.0962  0.1012
11555W        W28029  18.261  17.976   1.419 -0.0709  0.2547  0.3231
11556W        W28030  10.404   6.133   4.236  0.1270  0.0511 -0.1282
11557W        W28031   3.081   3.177   1.246  0.3956  0.0266  0.0954
11558W        W28032   9.103   8.046   5.521 -0.4810 -0.1475  0.3594
11559W        W28033   1.837   4.091  12.053  0.1147  0.1449  0.0088
11560W        W28034   1.969   0.271  12.570  0.0259 -0.2723  0.3135
11561W        W28035  17.427   3.091   3.654  0.2721  0.0999 -0.1486
11562W        W28036  15.813   1.988   0.872  0.0341  0.2565  0.4149
11563W        W28037   9.136  11.061   4.043  0.1803  0.0590 -0.0482
11564W        W28038   1.217  12.450   1.914  0.3282 -0.2599  0.0382
11565W        W28039  17.917   8.198  10.694  0.0850 -0.1114 -0.1152
11566W        W28040   9.418  17.211   4.847  0.2072 -0.0220 -0.2608
11567W        W28041  13.056  16.019  12.776  0.2449 -0.0314  0.3504
11568W        W28042   3.096  19.273  11.955 -0.0492  0.0809 -0.0512
11569W        W28043   3.397  18.062   1.140  0.0583  0.4145 -0.0002
11570W        W28044  18.126   5.357  10.650 -0.1261 -0.2978  0.2560
11571W        W28045  11.433   2.292  14.608  0.0656 -0.0398 -0.2212
11572W        W28046   0.796   0.749   3.154 -0.0884  0.1347  0.1386
11573W        W28047  10.424   5.071   0.637  0.0730  0.1237  0.1140
11574W        W28048  15.054  16.729   1.581 -0.2791 -0.3009  0.1657
11575W        W28049   7.083   3.304   1.510 -0.0036  0.2912 -0.2898
11576W        W28050  12.661   8.570   2.425 -0.0398  0.1393 -0.2853
11577W        W28051   2.597  18.193   4.506 -0.0461  0.0998  0.1725
11578W        W28052   7.751  19.281  13.147  0.0982  0.3489  0.2949
11579W        W28053  16.573   1.944  11.682 -0.1679 -0.0070 -0.2309
11580W        W28054  15.112   7.878  11.831 -0.1542  0.0784 -0.0373
11581W        W28055   9.011   4.166   3.509 -0.1286  0.0458  0.0033
11582W        W28056  19.405   6.347   3.274  0.0307 -0.0697 -0.1220
11583W        W28057  10.623  19.481   3.392 -0.0109  0.0948 -0.0454
11584W        W28058  12.641  12.354   3.069  0.2397 -0.0627 -0.0742
11585W        W28059   6.377  15.819   3.349 -0.1205 -0.1344 -0.0737
11586W        W28060  10.060   6.640  10.923  0.0882  0.2115  0.0036
11587W        W28061   8.511   7.897  10.677 -0.2060 -0.0372 -0.0392
11588W        W28062  18.700   8.423   1.230 -0.1913 -0.1017  0.1066
11589W        W28063   6.888  17.149   2.163  0.2174 -0.1138 -0.0915
11590W        W28064   4.219   3.863   9.396  0.1071 -0.2286  0.2186
11591W        W28065  18.425  11.657   3.587  0.0573  0.1357 -0.0677
11592W        W28066  16.025   7.133   0.880  0.0013 -0.0349  0.0327
11593W        W28067  11.023   9.458   4.987 -0.0883  0.0033  0.2581
11594W        W28068   9.449   2.456  12.268 -0.1877  0.1246  0.1251
11595W        W28069   5.793  11.717   5.082 -0.0014 -0.0417  0.3317
11596W        W28070   8.502  16.742   4.553 -0.1121  0.2674 -0.1147
11597W        W28071   9.495   0.229   0.257 -0.3058  0.4132 -0.1145
11598W        W28072  15.978  16.803   0.920  0.1300 -0.0400  0.2701
11599W        W28073   0.943   6.101   1.741 -0.1313  0.0789  0.1263
11600W        W28074  13.068   3.984   0.574  0.1142  0.4024  0.2163
11601W        W28075   8.554  12.626   2.719 -0.0721 -0.0820 -0.0073
11602W        W28076   1.323  16.216   4.223  0.1064  0.1830  0.1643
11603W        W28077   6.663   7.623  13.383  0.0276  0.2219 -0.2997
11604W        W28078   0.714  16.470   4.251  0.5170  0.1326 -0.3587
11605W        W28079  13.218   5.952  13.983 -0.2631 -0.5254 -0.2753
11606W        W28080   6.634  10.029  13.061 -0.1298  0.4523  0.0232
11607W        W28081   4.105   6.847  13.371 -0.4913  0.1107  0.3575
11608W        W28082  17.243  10.043   9.575  0.0217  0.0365 -0.1154
11609W        W28083  13.448  17.304   5.173 -0.0103 -0.1723  0.0100
11610W        W28084  12.093   3.191  14.599 -0.1616  0.1143 -0.1677
11611W        W28085  10.814  10.976  12.153  0.3615  0.0536 -0.0998
11612W        W28086  13.677   4.404   4.387  0.0137  0.3853  0.1922
11613W        W28087  18.518  17.511   2.629  0.3393 -0.0447  0.2340
11614W        W28088   0.176   3.044  10.310  0.1880 -0.0151  0.2514
11615W        W28089  18.679  10.338   5.095 -0.3816 -0.0717  0.4486
11616W        W28090  16.832   2.824  14.051  0.2118  0.1025  0.3637
11617W        W28091  10.949  12.680  14.647  0.1143  0.4007  0.0161
11618W        W28092   2.571   2.445  12.370  0.1287  0.2786 -0.0424
11619W        W28093   8.287  17.673   0.562 -0.0560 -0.0767 -0.0047
11620W        W28094   2.967   2.351   4.357  0.0465 -0.0537 -0.1113
11621W        W28095  18.376   3.595  10.487  0.1168 -0.1078  0.1010
11622W        W28096  16.384   4.971  14.520  0.0870 -0.0418 -0.2320
11623W        W28097   6.138  18.797  13.906  0.1382  0.1276 -0.2234
11624W        W28098   4.370   5.417  14.606  0.1105 -0.0744  0.0697
11625W        W28099  13.580  17.070  11.197 -0.2792 -0.1188  0.0331
11626W        W28100   2.531  18.508  13.811  0.2451 -0.2061  0.0846
11627W        W28101   1.440  13.594   2.603  0.1288 -0.0508  0.0246
11628W        W28102  10.452  11.103  11.819 -0.2507  0.2561 -0.2406
11629W        W28103   5.881   0.547   9.217 -0.3583  0.3399  0.2445
11630W        W28104   8.575   6.645  12.680  0.0687  0.0276  0.0327
11631W        W28105   5.150  19.364   3.309 -0.2140  0.3053  0.1292
11632W        W28106  12.254  10.022  11.097  0.0136  0.0091  0.2280
11633W        W28107  16.095  12.469   0.608  0.1581 -0.5563 -0.0840
11634W        W28108   7.315  17.565   0.464 -0.5583 -0.0446  0.3332
11635W        W28109   0.859   4.607   1.743  0.1517  0.2454  0.3088
11636W        W28110   7.005   0.737  11.132 -0.0471  0.1049  0.1663
11637W        W28111  18.815   8.309  11.087 -0.0833  0.3423  0.1521
11638W        W28112  11.466  17.045   2.559  0.0677 -0.0924 -0.4060
11639W        W28113  14.986  15.920   2.193  0.2214  0.0619  0.0465
11640W        W28114  15.601  11.861  11.176 -0.2098  0.2360  0.1575
11641W        W28115   2.591  18.167   1.635  0.0906 -0.2446  0.1904
11642W        W28116  15.158   4.395  13.466 -0.1050  0.0426  0.1297
11643W        W28117   0.768  19.277  10.156  0.3777  0.3151 -0.0768
11644W        W28118  19.465   3.405   3.265  0.0245 -0.1545 -0.6531
11645W        W28119  17.225  13.634  10.434 -0.4652 -0.2575  0.1599
11646W        W28120   3.237  11.543   0.071  0.3141 -0.1904 -0.2772
11647W        W28121   0.108   2.551   1.512  0.2705  0.1516  0.3842
11648W        W28122  14.999  12.786  10.747 -0.2026  0.2376 -0.4117
11649W        W28123   2.901   2.176   9.874 -0.1566 -0.2453  0.1631
11650W        W28124  11.279  14.547  10.416  0.5602 -0.1249  0.1809
11651W        W28125   5.073   3.263  13.845 -0.0612 -0.0425  0.1041
11652W        W28126  13.226  11.365  13.145  0.0608 -0.2220  0.0165
11653W        W28127  11.030   8.811   0.786 -0.4104 -0.1114  0.0036
11654W        W28128   5.134  12.932  12.865 -0.0445  0.1056 -0.3607
11655W        W28129  12.107  15.184   3.316 -0.1571  0.1109 -0.3651
11656W        W28130  13.871   4.060   2.652 -0.2964  0.1675  0.1105
11657W        W28131  14.252  13.202   2.086  0.0678  0.1390  0.0544
11658W        W28132  19.527  13.549  14.634  0.0667  0.2450 -0.1344
11659W        W28133   9.226   8.949  12.699 -0.1158  0.1723  0.1835
11660W        W28134   7.909   5.745   4.827  0.0075 -0.1696 -0.0005
11661W        W28135  14.633   3.795  10.760  0.2004 -0.2429 -0.6150
11662W        W28136  13.164   8.077   0.030 -0.2877  0.1835  0.2801
11663W        W28137   5.156   8.979   4.434 -0.2649 -0.0170  0.1099
11664W        W28138   9.787   3.726   0.501 -0.1485  0.0812  0.5283
11665W        W28139  15.278   0.606  13.424 -0.0720 -0.1040  0.2506
11666W        W28140  11.952   1.029  14.607  0.0777  0.0186 -0.2341
11667W        W28141   3.824   4.764  10.272 -0.2565 -0.2058  0.2331
11668W        W28142  10.600   6.726  12.484  0.3225  0.1946  0.1758
11669W        W28143   4.131   1.496  14.429  0.3631 -0.0156  0.0649
11670W        W28144   1.492   7.272   2.386  0.0417  0.0926  0.1499
11671W        W28145   7.411   3.915  10.241  0.2325 -0.2808  0.0683
11672W        W28146  19.199  19.408   0.554  0.2482  0.0328  0.0004
11673W        W28147  13.231  10.281   3.033  0.3603 -0.0184  0.1297
11674W        W28148   6.200   6.292  12.024 -0.1005  0.0382 -0.2161
11675W        W28149  10.099  17.616  10.490 -0.1038 -0.0832  0.3281
11676W        W28150   5.869   0.545  12.176 -0.0573 -0.0646 -0.0643
11677W        W28151   8.889   9.596   1.264 -0.0081  0.0323 -0.1980
11678W        W28152   8.194  14.469   2.475  0.5796  0.7386 -0.1176
11679W        W28153  19.329   0.751  14.153 -0.1805  0.0206 -0.3260
11680W        W28154  11.421  13.155   1.029  0.1644  0.0711 -0.0018
11681W        W28155  10.392   3.740  10.385  0.1313 -0.1690 -0.1190
11682W        W28156   8.890   3.246  11.824  0.0434 -0.0741  0.1654
11683W        W28157   9.094  16.707  11.581  0.1309 -0.2114 -0.2309
11684W        W28158  14.112   9.652   1.225 -0.0092 -0.1460  0.0824
11685W        W28159   0.407  19.138  12.760 -0.0649 -0.2434 -0.2374
11686W        W28160  14.099  14.838   5.478 -0.1784  0.1708  0.1819
11687W        W28161   2.711  16.536   9.413 -0.0023  0.0421 -0.2516
11688W        W28162   9.039  11.127   1.417  0.3088  0.3338 -0.0688
11689W        W28163   6.140  18.537   5.374  0.2211  0.0746 -0.2273
11690W        W28164   8.203   5.314  14.385  0.1749 -0.5827 -0.2094
11691W        W28165  11.745  10.117  12.933  0.1364 -0.0239  0.0462
11692W        W28166  14.727  10.808  12.697 -0.1728 -0.0694 -0.0706
11693W        W28167   1.198   9.648   4.368  0.0214 -0.1060  0.0295
11694W        W28168   5.058  18.195   5.408  0.0060 -0.4151  0.2058
11695W        W28169  17.740  12.781  10.240 -0.0661  0.1017  0.1863
11696W        W28170  12.743   7.008   1.332 -0.2972 -0.1045 -0.2111
11697W        W28171  10.676  18.854   2.070 -0.0802  0.3169 -0.1066
11698W        W28172  12.346  18.489   0.772  0.1106  0.2028 -0.1401
11699W        W28173   2.377  17.508   2.841  0.0186  0.5910 -0.0157
11700W        W28174   9.494  15.212   1.267  0.0738 -0.2501  0.0210
11701W        W28175   8.820  13.132  12.603  0.1988 -0.3234  0.2232
11702W        W28176  12.214  13.805  12.258  0.4724  0.0090  0.0478
11703W        W28177   4.774  18.052  12.935 -0.2047 -0.0427 -0.1221
11704W        W28178   1.111   7.439   2.069  0.1349  0.1893  0.0046
11705W        W28179  17.050  15.134  12.412 -0.0401 -0.1748  0.0055
11706W        W28180   8.433  10.442   4.615  0.1572  0.2148 -0.1633
11707W        W28181   0.455   9.569   5.761  0.1442  0.0216  0.0350
11708W        W28182   3.936  16.118   1.418 -0.0585 -0.0468 -0.0242
11709W        W28183  14.007  10.411  14.337 -0.2664  0.1395  0.2794
11710W        W28184   6.893   9.760  11.697  0.0623 -0.0865  0.3259
11711W        W28185  16.855   1.142   9.033 -0.0713  0.0874 -0.0556
11712W        W28186  11.608   8.064   1.767 -0.0336 -0.0540  0.2154
11713W        W28187   6.888   1.659  10.237 -0.1069 -0.0681  0.1133
11714W        W28188  18.898   5.596  14.515 -0.0619 -0.4109 -0.1344
11715W        W28189   2.018  12.642  13.790  0.1464  0.1186 -0.0488
11716W        W28190   0.071  19.124  12.255 -0.3336  0.1154  0.3310
11717W        W28191  16.392   5.415   0.831 -0.0378 -0.0930 -0.2874
11718W        W28192  18.196  17.591  13.840 -0.3889  0.0414  0.3519
11719W        W28193  18.223   8.404   1.887 -0.0971 -0.0434 -0.2080
11720W        W28194   8.039  13.419  11.294 -0.3273  0.0154 -0.3064
11721W        W28195  10.798  15.750   0.309  0.0830 -0.3307 -0.3825
11722W        W28196   1.351   1.379   0.957 -0.0887 -0.3079  0.3855
11723W        W28197   9.188   1.195   3.106 -0.1897 -0.1306 -0.0296
11724W        W28198   6.502   8.462   4.118 -0.1710  0.1017 -0.0617
11725W        W28199  13.202  12.696  12.745  0.1246  0.0925  0.1429
11726W        W28200   3.202  10.518   2.770  0.2312 -0.2984 -0.1645
11727W        W28201  12.873   0.717  11.423 -0.3595  0.3027 -0.0999
11728W        W28202   7.791  11.845  10.317 -0.1701 -0.4367  0.0187
11729W        W28203   7.972  14.478   4.032 -0.0131  0.1326  0.0782
11730W        W28204   4.620   9.567  14.115 -0.4755  0.1172 -0.1819
11731W        W28205  13.378  16.752   1.779 -0.2152 -0.1659  0.4751
11732W        W28206   3.185   5.278  13.333 -0.4317 -0.1378  0.2937
11733W        W28207  13.985   6.201  13.554 -0.1244  0.0175 -0.0990
11734W        W28208   1.139  17.127  12.298 -0.0347  0.1817  0.1071
11735W        W28209  10.054   9.927   2.293  0.0886 -0.1673 -0.0308
11736W        W28210  10.622   6.286   3.711  0.1045  0.0999 -0.0966
11737W        W28211  12.598   2.885  14.599  0.2043  0.1450  0.3895
11738W        W28212   4.604  14.205   4.550  0.5644  0.1190 -0.0452
11739W        W28213  17.094   7.399   0.448 -0.2030  0.0915 -0.0200
11740W        W28214  13.143  14.514  12.483 -0.0285 -0.3567  0.0537
11741W        W28215  13.703   3.550  14.342  0.2137 -0.2106  0.0018
11742W        W28216   7.860   5.453   9.972 -0.1127 -0.0292  0.2260
11743W        W28217   4.619  18.717  10.031 -0.1917  0.4001  0.2575
11744W        W28218  18.973  13.218   1.692 -0.2450 -0.0322  0.4256
11745W        W28219   7.670   2.791   4.727  0.0714 -0.0989 -0.1804
11746W        W28220  11.705   3.889  11.636  0.0451 -0.2291 -0.1869
11747W        W28221   6.742   8.855  11.290 -0.1965  0.1157  0.1861
11748W        W28222   5.134  12.801  10.972 -0.0127 -0.1301 -0.0327
11749W        W28223   0.711   9.534  10.904  0.1350 -0.1642  0.1170
11750W        W28224   7.053   0.951  12.758  0.0924  0.1881 -0.0676
11751W        W28225  13.616  13.399   5.326 -0.0801  0.2235  0.0797
11752W        W28226   4.935  18.720   1.281  0.2400  0.0320  0.3020
11753W        W28227  17.398   7.058   2.809 -0.4192 -0.2445 -0.1501
11754W        W28228   7.971  16.547  13.739 -0.1426  0.1708 -0.0781
11755W        W28229   8.784   0.236   3.845 -0.6046 -0.0943 -0.0737
11756W        W28230  16.055   9.002  12.246  0.0529 -0.3379  0.0249
11757W        W28231   3.447  17.219   0.589 -0.0115 -0.0386 -0.0679
11758W        W28232   2.268  19.158   2.685 -0.2608 -0.3024 -0.1936
11759W        W28233  16.720   5.297   3.571  0.1026  0.0506 -0.3695
11760W        W28234  15.713   0.514   1.441 -0.0224  0.0315 -0.3213
11761W        W28235  12.929   8.113   1.048  0.1482 -0.1855 -0.0959
11762W        W28236   1.553  13.672  12.994  0.5445  0.1298 -0.2930
11763W        W28237   3.306   1.781   3.940  0.2395 -0.0173 -0.2019
11764W        W28238  12.665   2.058   4.122 -0.1893  0.0238  0.0978
11765W        W28239   7.460   5.314  10.253 -0.1069 -0.0005  0.2084
11766W        W28240  15.099   6.948   1.803  0.4126  0.2283  0.2135
11767W        W28241   3.814   2.226   9.991  0.0141 -0.1968 -0.1613
11768W        W28242   6.988  17.293  14.243  0.0681  0.1959 -0.1104
11769W        W28243  12.725   2.617  14.101  0.2860  0.2534 -0.2128
11770W        W28244  12.200   3.917  11.801  0.1078 -0.1885 -0.2400
11771W        W28245  11.046  13.243   2.902  0.6997 -0.2364 -0.1445
11772W        W28246   4.627   3.888   4.501  0.0947 -0.1459 -0.0675
11773W        W28247   4.328   7.716   2.869  0.0339  0.1697 -0.1126
11774W        W28248  13.615   7.330  12.154  0.2172 -0.1124 -0.2174
11775W        W28249   5.094   5.914   3.400  0.1095 -0.0453 -0.2501
11776W        W28250   7.916   0.480  10.218 -0.2398  0.0625 -0.1645
11777W        W28251   6.610   9.391  11.959  0.1765  0.1497 -0.2209
11778W        W28252  12.302   4.489  14.162  0.1314  0.1438 -0.2925
11779W        W28253  14.651   5.521  11.921 -0.2086  0.4233 -0.3788
11780W        W28254  13.146   5.425  12.596  0.0867  0.1621  0.0635
11781W        W28255  19.183   6.458  13.810 -0.0535  0.0966  0.0478
11782W        W28256   3.110   1.312  12.159 -0.1251 -0.0064 -0.1271
11783W        W28257   6.273  10.900   3.308  0.0664 -0.3162 -0.0410
11784W        W28258   7.285  16.889   1.962 -0.0306 -0.0539  0.1607
11785W        W28259   7.206   7.647  14.623  0.1895 -0.1138  0.0905
11786W        W28260   3.073  15.115  13.958  0.0261  0.1727  0.0506
11787W        W28261  13.931  12.125  14.058  0.2690 -0.2688 -0.5163
11788W        W28262  15.960  11.643   2.424  0.0654 -0.2050 -0.1523
11789W        W28263  11.262   4.450   2.517 -0.2119 -0.1605 -0.1974
11790W        W28264  17.498   4.299   3.000  0.0823  0.2423 -0.2411
11791W        W28265  18.845   9.160  11.434 -0.0238 -0.1231 -0.0343
11792W        W28266  12.656   2.078  11.318  0.0649 -0.2671  0.0598
11793W        W28267   6.019   0.749   2.958  0.0708 -0.0457  0.5685
11794W        W28268  17.532   9.208  11.273  0.1270  0.1859 -0.2744
11795W        W28269   9.986  10.156   0.902  0.2916 -0.0045  0.1754
11796W        W28270   3.301  19.208   5.051 -0.1327 -0.2496  0.3483
11797W        W28271   5.727   8.796   3.321 -0.1094  0.2595  0.0615
11798W        W28272  18.038  18.190   2.421  0.0351  0.1970 -0.0531
11799W        W28273  16.194   7.603   5.776 -0.0822 -0.2411 -0.0850
11800W        W28274   4.296   2.819  11.660  0.3068  0.1167  0.2712
11801W        W28275  12.194  11.350   1.666 -0.2413  0.0923 -0.2795
11802W        W28276   5.833   0.440  12.999 -0.1208 -0.2694 -0.2847
11803W        W28277   9.827   7.359  12.019 -0.0619  0.1340  0.1313
11804W        W28278   4.117   8.721   1.849  0.5397 -0.2186  0.1758
11805W        W28279  18.433   6.338  11.532  0.2570  0.0998 -0.1621
11806W        W28280  19.292  18.206  10.965  0.3286  0.1862 -0.3329
11807W        W28281  11.510   9.243   0.338  0.0622 -0.0057  0.1368
11808W        W28282  13.960  11.264   4.960  0.1350 -0.0309  0.2874
11809W        W28283  14.204   8.565  13.753  0.0120  0.0811  0.1256
11810W        W28284   9.683   6.404   4.740  0.1137 -0.2350  0.2686
11811W        W28285  17.785   0.958  12.025  0.0061  0.1081 -0.0588
11812W        W28286   6.210   5.637   0.522 -0.1623 -0.0286 -0.1518
11813W        W28287   8.468   1.767   9.702 -0.2539  0.0445 -0.2356
11814W        W28288   9.705   0.080  11.119  0.1322  0.1468  0.3285
11815W        W28289   7.627  13.833  12.533 -0.2023  0.0086 -0.0134
11816W        W28290  12.063   7.570   1.689  0.1912 -0.3371  0.1272
11817W        W28291  14.420  16.917   4.793 -0.0091 -0.2248  0.1457
11818W        W28292  15.198  11.823  13.968 -0.3514 -0.0476 -0.0431
11819W        W28293  15.146   0.644  12.483  0.4057 -0.2314 -0.4467
11820W        W28294   0.165  13.428   3.234 -0.1127  0.1525 -0.1981
11821W        W28295   0.909   6.506  13.650  0.2204  0.2097 -0.0612
11822W        W28296  16.363   9.017   4.148  0.3881  0.1762 -0.0264
11823W        W28297   9.319   3.694   0.512  0.0038  0.0237 -0.1256
11824W        W28298   4.671  10.679   2.382 -0.0485 -0.3851 -0.1401
11825W        W28299  11.019   2.601   1.486 -0.2963  0.2010  0.1296
11826W        W28300   1.488   5.694   1.211 -0.1765 -0.0090 -0.2263
11827W        W28301   7.291  12.988   1.656 -0.2549 -0.1674  0.0606
11828W        W28302  13.046  15.638  14.341 -0.0655  0.0337  0.4007
11829W        W28303  17.610  19.237  13.607  0.0704  0.0508  0.0301
11830W        W28304   3.373  18.859  13.968  0.3850  0.3362 -0.1322
11831W        W28305  18.571  19.376   1.735  0.0397  0.3791  0.1227
11832W        W28306   0.183   0.515  12.359  0.0410  0.1460 -0.1314
11833W        W28307  12.597  17.126   0.205  0.1362 -0.1401  0.5127
11834W        W28308   8.787   4.537   1.610 -0.4996 -0.0717  0.1329
11835W        W28309   4.223  13.542   0.212 -0.1730  0.1827 -0.1017
11836W        W28310  16.750   3.435   2.151  0.1760  0.0560 -0.2705
11837W        W28311  11.790   2.107  13.286  0.3677 -0.0922  0.3414
11838W        W28312   7.886   6.743   1.155  0.1244  0.1657 -0.1544
11839W        W28313  12.523   5.954   0.583  0.0652  0.2247  0.1635
11840W        W28314   7.652   1.403  11.748  0.1088  0.2579 -0.3210
11841W        W28315   5.212   1.006  12.592  0.0820 -0.2367  0.2206
11842W        W28316   2.229   5.057   4.187 -0.2148 -0.0020 -0.2261
11843W        W28317  14.684   6.976  11.504  0.0493  0.1811  0.1789
11844W        W28318   2.918   9.316   1.214 -0.4619 -0.3584  0.0875
11845W        W28319   4.718   0.267  14.506 -0.0863 -0.0174  0.0253
11846W        W28320  10.582  17.057   3.085  0.2661 -0.0489  0.1891
11847W        W28321   9.218  12.157   0.633  0.1418 -0.1017 -0.2363
11848W        W28322   3.278   0.892  12.563 -0.1088  0.0438  0.1571
11849W        W28323  10.016   8.398  13.298 -0.0137 -0.3162  0.2264
11850W        W28324   7.370  19.400   4.835  0.1450  0.0198  0.3113
11851W        W28325  12.503   5.480  11.786 -0.1239  0.1239 -0.0588
11852W        W28326  16.578  16.946   0.323  0.0831 -0.1541  0.1842
11853W        W28327  10.908  12.289  12.116 -0.2575  0.1571  0.1016
11854W        W28328   5.775  17.064  11.242  0.2943  0.2013 -0.1004
11855W        W28329  13.777  13.728  13.436 -0.1370 -0.1205 -0.2343
11856W        W28330   3.547   3.352   3.011  0.0505 -0.3829  0.0442
11857W        W28331  19.335   7.287  12.360  0.0410  0.2048  0.2633
11858W        W28332   6.198  19.397  12.739  0.0760  0.3435 -0.1559
11859W        W28333   6.331   5.138  11.937  0.2069 -0.4533  0.0160
11860W        W28334   2.014   6.548   1.955  0.1037  0.0052 -0.1828
11861W        W28335  12.993   1.881  10.972 -0.2310  0.2848  0.2670
11862W        W28336   6.880  14.860  14.064  0.3217  0.1223 -0.2754
11863W        W28337   7.495   2.471   4.102  0.1688  0.2067  0.0011
11864W        W28338   8.056   3.058  13.714 -0.0982 -0.2917  0.2437
11865W        W28339  18.292   0.541   4.680  0.2603 -0.3139 -0.1449
11866W        W28340  16.899  15.403  12.863 -0.3168 -0.0422  0.0951
11867W        W28341   4.206  12.768  12.544 -0.1102 -0.1611 -0.2233
11868W        W28342   6.558   4.692   1.223 -0.3131  0.1316 -0.0534
11869W        W28343   8.928  16.383  11.280 -0.1112  0.4008 -0.1520
11870W        W28344  14.926  19.532   1.606 -0.0989  0.0168 -0.3949
11871W        W28345   9.606   8.146   1.345  0.0455 -0.2455 -0.4303
11872W        W28346   1.911  16.805   4.359 -0.0117 -0.1437 -0.1302
11873W        W28347   5.599   9.736  10.436  0.0841 -0.0482 -0.0597
11874W        W28348   2.495  10.243   0.102  0.1640 -0.2756 -0.0627
11875W        W28349  15.758   6.864   4.595 -0.1851  0.1061 -0.1008
11876W        W28350   5.266   2.730  14.062 -0.0329  0.2477  0.1000
11877W        W28351  13.993   4.984  13.498  0.2013 -0.0982  0.0332
11878W        W28352  18.212  12.177  14.487  0.0289 -0.0952  0.1732
11879W        W28353   3.291  14.198  14.570  0.0228  0.1627 -0.2960
11880W        W28354   3.992   4.261   1.891  0.2967  0.4239 -0.2282
11881W        W28355  11.155  16.523   0.381 -0.2869 -0.2000 -0.1679
11882W        W28356   9.887   6.936   4.541 -0.0724  0.0670 -0.1807
11883W        W28357   1.439   4.671  10.986  0.0594  0.2178  0.1741
11884W        W28358   5.282  16.857   5.112 -0.0684 -0.2288 -0.0043
11885W        W28359   7.862  10.930  12.719  0.0991 -0.2592 -0.0458
11886W        W28360  15.848   6.580  10.660  0.1047  0.0651 -0.0914
11887W        W28361   0.206  13.795  13.079 -0.1357  0.0114 -0.0480
11888W        W28362   0.717  16.310   2.300  0.1622 -0.0723  0.0161
11889W        W28363  18.628   6.748  11.330 -0.1029 -0.1513 -0.1703
11890W        W28364   8.913   6.752   2.042 -0.1682  0.2822  0.0090
11891W        W28365  10.215   7.841   4.819 -0.1763 -0.2220  0.1091
11892W        W28366  15.418  10.548   3.108 -0.2710  0.0368  0.0353
11893W        W28367  18.734   5.464   2.444 -0.0635  0.1544 -0.1206
11894W        W28368   8.444  15.701  10.634  0.0659  0.3739  0.0916
11895W        W28369   5.352  17.091  12.938  0.5846 -0.0360 -0.0397
11896W        W28370  13.970   9.921  14.120 -0.0493  0.3221 -0.2361
11897W        W28371  13.957   4.731   1.950  0.0991 -0.0956 -0.1121
11898W        W28372   1.101  17.479  11.870 -0.2638  0.0267 -0.3798
11899W        W28373  12.624  12.337  10.084 -0.2122  0.1268 -0.1506
11900W        W28374  13.979   1.964  12.888 -0.1790 -0.0902 -0.2681
11901W        W28375  18.903  12.506   1.564  0.1709  0.1995 -0.1962
11902W        W28376  19.584   3.900   0.333  0.0501  0.0861 -0.1490
11903W        W28377   4.642   2.736   3.503 -0.3134  0.2617 -0.2276
11904W        W28378  19.175  12.812   0.515 -0.0035  0.0866 -0.1282
11905W        W28379  11.051   6.459  13.561  0.0466  0.2359 -0.1436
11906W        W28380  19.185   6.942   1.629 -0.1065 -0.0531 -0.1619
11907W        W28381   2.644  12.897  12.911  0.0651 -0.0334 -0.1481
11908W        W28382   8.488  15.261   3.547 -0.1269  0.1882 -0.2770
11909W        W28383  18.770  12.048  12.580  0.1316 -0.0614 -0.1015
11910W        W28384   8.897   2.469   1.636  0.0210 -0.2938 -0.0965
11911W        W28385  10.064   5.497  11.200  0.0052 -0.0559  0.4676
11912W        W28386   6.205   2.824  12.397  0.0538 -0.0864  0.0961
11913W        W28387   6.257  11.496   1.147  0.1188 -0.1279  0.2876
11914W        W28388   9.159   7.301  13.393  0.0735 -0.4420 -0.1044
11915W        W28389  19.041  17.630   4.342  0.2102 -0.0046 -0.1314
11916W        W28390   7.455   5.626  13.405  0.1576 -0.0517  0.0468
11917W        W28391  17.003  12.511  14.080 -0.1885  0.1976  0.1791
11918W        W28392  10.961  14.080   3.639 -0.2080  0.2363  0.1186
11919W        W28393   3.438   7.133  12.892 -0.2184  0.1145 -0.0379
11920W        W28394  15.010  13.336  14.286 -0.1506 -0.1194 -0.0536
11921W        W28395  18.848  13.041   0.768  0.2043  0.0256 -0.3912
11922W        W28396   0.263   4.672   8.986 -0.2221  0.2021  0.1401
11923W        W28397   2.855  14.507  14.653 -0.1380  0.5252 -0.3344
11924W        W28398  11.886   5.345   0.920 -0.1158  0.0291 -0.1780
11925W        W28399  14.139   8.308   4.745  0.1244 -0.1779  0.0451
11926W        W28400  14.577  12.750   2.165 -0.1194 -0.0016 -0.0114
11927W        W28401   2.299  11.700   9.823  0.0311 -0.0439 -0.0643
11928W        W28402  18.627   2.824  13.840  0.2306  0.0042  0.3700
11929W        W28403  19.381   2.027  12.776 -0.4836 -0.1097 -0.0986
11930W        W28404   3.136   3.822  13.885 -0.0128 -0.1119 -0.3006
11931W        W28405  14.067   8.435   0.402 -0.0315  0.1901 -0.0415
11932W        W28406   5.710   7.288   3.557 -0.0667  0.1572 -0.2023
11933W        W28407  12.827   9.224  11.501  0.0025 -0.1284 -0.2942
11934W        W28408   8.881   4.085   2.467 -0.1885  0.0173  0.1545
11935W        W28409  16.875  10.157   1.130 -0.2006  0.2857  0.0696
11936W        W28410  11.218  10.311   2.657 -0.1673  0.2162  0.2123
11937W        W28411   5.651   0.621   1.773 -0.0248 -0.0151 -0.0599
11938W        W28412  18.066   4.259   0.173 -0.0286  0.1594  0.0800
11939W        W28413  17.903  11.607  13.606 -0.0197  0.1531 -0.0381
11940W        W28414   6.472   0.146  14.151  0.1627 -0.0463  0.1152
11941W        W28415  16.877   6.310   2.815 -0.1338 -0.2007  0.0420
11942W        W28416  14.651   4.121   0.075  0.1037 -0.2092  0.1242
11943W        W28417  18.906   6.657   1.249 -0.3492 -0.0930 -0.1833
11944W        W28418   5.189   5.175   0.360  0.2574 -0.1912 -0.2882
11945W        W28419  14.709   5.742  10.293  0.1315 -0.3632 -0.0332
11946W        W28420   3.863  10.923   0.093  0.1077 -0.3431  0.2887
11947W        W28421   2.655   9.848   3.451 -0.0513 -0.1654 -0.2158
11948W        W28422   5.772  15.602  14.611 -0.3106 -0.0721 -0.2030
11949W        W28423  16.793   2.408  10.120 -0.0085  0.1929  0.0571
11950W        W28424   4.258  14.117  12.744 -0.0372  0.1287  0.2727
11951W        W28425  14.930  11.168  12.933  0.1163 -0.2701 -0.3105
11952W        W28426  12.664  14.133   2.829  0.2129  0.0224  0.0880
11953W        W28427  10.157  10.850   1.662 -0.1049 -0.2715 -0.1670
11954W        W28428  18.829   3.810  14.474  0.2564 -0.2127  0.1617
11955W        W28429  12.158   7.501   0.088 -0.3217  0.2691  0.1430
11956W        W28430   5.817  14.529  10.004 -0.1460 -0.2803 -0.0315
11957W        W28431   5.122   3.483  12.912  0.0219  0.0002 -0.0019
11958W        W28432   3.689   9.174   2.930  0.3279  0.0852 -0.4168
11959W        W28433  12.471   0.362  14.411  0.2301  0.0811  0.4667
11960W        W28434  17.233   4.227   0.876  0.2804  0.2226 -0.0070
11961W        W28435   8.992   0.036  10.020 -0.1994 -0.1980 -0.0925
11962W        W28436   7.830  11.161  13.195 -0.1441  0.0973 -0.2074
11963W        W28437   3.993  14.797  10.641 -0.4281  0.1479 -0.0639
11964W        W28438  19.591  12.570   0.543 -0.1415  0.0573 -0.0336
11965W        W28439  11.644  10.539  10.436  0.0127  0.2271  0.2522
11966W        W28440  14.467   1.633  13.766 -0.0451 -0.2883  0.2981
11967W        W28441   9.855  14.862   0.235  0.1396 -0.0005 -0.0822
11968W        W28442   0.651   7.454   0.364  0.0987  0.2225  0.1460
11969W        W28443  12.534   2.696  13.608  0.0944  0.3669 -0.0102
11970W        W28444   7.996  17.948  13.916 -0.2557  0.0427 -0.0508
11971W        W28445   3.760   2.750  10.069 -0.2120  0.0131  0.0489
11972W        W28446   9.344  13.035   2.697  0.0793 -0.1298 -0.3765
11973W        W28447  11.691   6.727  11.143 -0.2964 -0.1389 -0.2637
11974W        W28448   9.687   2.696   4.405 -0.1136  0.2537 -0.1506
11975W        W28449  12.134  19.056   2.681 -0.0479 -0.0967  0.2263
11976W        W28450  18.137   3.112  13.599 -0.0149 -0.0588  0.1854
11977W        W28451   6.426  18.615  12.787  0.2456 -0.2263 -0.0437
11978W        W28452   7.266   3.512   1.109 -0.1285 -0.1509  0.0582
11979W        W28453  14.055  14.782   2.555  0.0288  0.1557  0.1769
11980W        W28454   5.131  13.898   4.612 -0.0761 -0.1190 -0.3160
11981W        W28455  14.450  14.970  10.764 -0.1758  0.3205  0.1184
11982W        W28456  18.894   6.287  11.667 -0.1495 -0.1467  0.0503
11983W        W28457  12.338  12.285  12.997  0.2301  0.0033  0.4510
11984W        W28458   1.352   3.848  14.037 -0.1091 -0.2319 -0.0851
11985W        W28459   0.706  15.571  10.507 -0.1263  0.0286  0.2409
11986W        W28460   1.498   0.639  12.090 -0.0742 -0.2223  0.0067
11987W        W28461   2.024  10.254  12.552  0.0302  0.2635 -0.1988
11988W        W28462  18.212  10.157   3.609  0.2706 -0.3280  0.2317
11989W        W28463   0.826   9.522   2.307 -0.2035  0.1218 -0.0502
11990W        W28464  17.679   3.258   0.468 -0.1551 -0.2115  0.1764
11991W        W28465   8.064   6.437   4.701 -0.0376 -0.0306 -0.5300
11992W        W28466   2.428  15.258   0.559 -0.1258  0.2458  0.1440
11993W        W28467   0.919  19.569  14.090 -0.2844 -0.1805 -0.1166
11994W        W28468  13.628  10.812  11.665  0.1558 -0.1612  0.1111
11995W        W28469  10.252  13.517   2.996  0.2259 -0.2114 -0.0385
11996W        W28470   1.313   7.417  10.174  0.2379 -0.0726  0.1260
11997W        W28471   7.604   3.086  13.789 -0.0534 -0.2793  0.2347
11998W        W28472   8.289   3.374   2.051 -0.2825  0.1507 -0.2449
11999W        W28473  14.914  17.163  11.878  0.0609 -0.2829 -0.0211
12000W        W28474   5.587  12.984   4.271  0.1384  0.0314 -0.0654
12001W        W28475  14.179   5.706  12.034  0.2402  0.3113 -0.1675
12002W        W28476   0.719   8.757   9.227  0.0858  0.0106  0.0135
12003W        W28477  11.124  17.631  12.047  0.2835 -0.0502 -0.2016
12004W        W28478   3.107  14.842  12.209  0.0621 -0.2040 -0.2074
12005W        W28479   5.363  17.437  10.627  0.0731 -0.0096  0.2200
12006W        W28480   8.665  15.631  14.514  0.0385 -0.1827  0.3545
12007W        W28481   3.021  12.090   3.580 -0.0689 -0.1145  0.0215
12008W        W28482   6.237   6.278   0.729  0.0113 -0.1619  0.2752
12009W        W28483  15.318   6.109   2.976 -0.0165 -0.0345  0.0294
12010W        W28484   9.557  14.433   3.951 -0.2736 -0.2318  0.2044
12011W        W28485  12.942   0.257  13.717  0.1060  0.1067 -0.0379
12012W        W28486  14.199   8.944  11.543 -0.0640  0.1177 -0.0300
12013W        W28487  17.496  12.548  10.777 -0.3325  0.0367 -0.3344
12014W        W28488   7.450  15.328  13.427  0.2768 -0.1281  0.0871
12015W        W28489  16.954  15.258  14.631  0.2661 -0.3666  0.0937
12016W        W28490  10.696  17.703  14.348 -0.0393 -0.0833  0.1732
12017W        W28491   0.644   6.472   0.697 -0.3959 -0.0292 -0.0959
12018W        W28492   1.034   0.520   4.351  0.0269 -0.1317 -0.2681
12019W        W28493   1.581  15.958   2.233  0.0293  0.0310 -0.0591
12020W        W28494   2.942  18.375   2.937  0.0071  0.1764 -0.3472
12021W        W28495   6.639  14.863  13.520  0.2331 -0.1601 -0.0498
12022W        W28496  10.067  18.090   0.156 -0.2529 -0.1791  0.0304
12023W        W28497  16.417  16.518  10.466  0.0107 -0.1523 -0.0942
12024W        W28498   9.770   4.226  13.948  0.0144 -0.2798 -0.2200
12025W        W28499  11.032  14.713   3.266 -0.1268 -0.2325  0.2264
12026W        W28500  13.257  17.648   1.121  0.0641 -0.0158  0.0652
12027W        W28501   3.543   3.906   2.478  0.3188 -0.1163  0.0042
12028W        W28502   7.804   4.762   4.470 -0.1815  0.0018 -0.0261
12029W        W28503   3.482  10.128   2.892  0.0994  0.2712  0.1747
12030W        W28504   3.066  16.422  11.701 -0.1394 -0.0776 -0.1163
12031W        W28505  11.408  11.072  11.417  0.5117  0.0055  0.1525
12032W        W28506   7.552  17.985  13.617 -0.0522 -0.1058 -0.1510
12033W        W28507  14.642   5.944  11.015  0.0845  0.1109  0.1705
12034W        W28508   6.516  15.255  10.793  0.3662  0.1808 -0.3951
12035W        W28509   2.228   1.505  12.026 -0.1567 -0.1615 -0.1600
12036W        W28510  16.353   8.618   0.659 -0.0919  0.1981  0.1677
12037W        W28511   3.604   8.543  13.858 -0.1655 -0.3113 -0.2367
12038W        W28512  13.585   4.376   3.566  0.3081 -0.0351  0.1396
12039W        W28513   6.153  16.184  14.505 -0.1849  0.2128 -0.1444
12040W        W28514  12.271  12.470  12.411 -0.2245  0.3687  0.2285
12041W        W28515   5.710   9.228   0.182  0.3978  0.2095 -0.0949
12042W        W28516   4.082   3.908  13.692 -0.3759  0.1914 -0.0066
12043W        W28517  14.064   0.367   1.982  0.0820 -0.0325  0.1156
12044W        W28518  14.658  16.260  12.237 -0.1807  0.0669 -0.2481
12045W        W28519  11.833  11.134   1.100 -0.0252  0.0803 -0.6721
12046W        W28520   5.112  18.266   2.727  0.0628  0.1891  0.1704
12047W        W28521   8.531   9.096  12.140 -0.1216 -0.3014  0.0842
12048W        W28522  17.489  12.120  13.005 -0.4990  0.1729  0.1983
12049W        W28523   6.001   6.441   3.221 -0.3025 -0.2792  0.0080
12050W        W28524  16.354  13.970  11.797  0.1069 -0.1718  0.1666
12051W        W28525  17.297   5.640  12.185  0.4090  0.0243 -0.0802
12052W        W28526   2.196   5.179   9.503 -0.2541 -0.1505 -0.0982
12053W        W28527  10.600   4.813   2.967 -0.0845  0.0337 -0.4056
12054W        W28528   1.730   5.224   1.338  0.0755 -0.1184 -0.0305
12055W        W28529   6.927  10.885   3.284  0.0881  0.1459  0.1210
12056W        W28530  10.898  16.809   2.673 -0.1521  0.0514  0.0598
12057W        W28531   2.479  13.942  12.801  0.1262  0.0933 -0.1984
12058W        W28532   6.335   2.861  10.065  0.0098 -0.3230  0.3837
12059W        W28533   9.590  16.016   3.232  0.0329  0.0091  0.2155
12060W        W28534   5.752   4.181  14.298  0.0675 -0.2915 -0.0044
12061W        W28535  18.009   9.892  12.790  0.2598 -0.0093 -0.2681
12062W        W28536  10.425   7.375   3.877 -0.1273  0.3402 -0.0442
12063W        W28537  15.771   4.639   4.169 -0.0647  0.0019 -0.0800
12064W        W28538   9.992  13.968   5.806  0.0701 -0.0178 -0.0064
12065W        W28539  15.278   1.459  10.543 -0.0345  0.3771 -0.0153
12066W        W28540   3.657  12.918   5.231 -0.1743  0.0721 -0.2602
12067W        W28541   2.042  10.539   3.415 -0.2809  0.1075 -0.0182
12068W        W28542   0.792   2.269  10.432  0.0173  0.1797 -0.1064
12069W        W28543   8.423  16.847  13.662  0.1038 -0.0413  0.1896
12070W        W28544  10.323   5.646  13.418  0.0304  0.3611  0.1301
12071W        W28545   9.546   1.933   1.269 -0.0260 -0.0426 -0.0404
12072W        W28546   6.437   1.163  11.853  0.0091 -0.0928  0.2038
12073W        W28547   2.475  13.461   2.677 -0.0884 -0.2113  0.0909
12074W        W28548  17.051   6.119   3.864  0.1058 -0.0864 -0.1942
12075W        W28549  18.764   9.365   1.790  0.1623 -0.3154 -0.0272
12076W        W28550   7.870  14.354   3.557 -0.0736 -0.1865 -0.0309
12077W        W28551   4.883   1.116  10.328  0.2033  0.1419  0.0449
12078W        W28552   9.268  15.400   0.384 -0.1751 -0.1105 -0.3915
12079W        W28553   5.459   3.868  13.255  0.0288 -0.1598 -0.1002
12080W        W28554  15.572  12.373  11.185  0.3261  0.0169  0.1453
12081W        W28555  11.255  15.886  13.438 -0.2701 -0.0866  0.0325
12082W        W28556   6.347  12.197   2.815  0.0515 -0.2724  0.3678
12083W        W28557   7.331  12.318   3.866 -0.1282 -0.1656  0.1429
12084W        W28558  16.360  10.737  11.334 -0.1011 -0.1104  0.0655
12085W        W28559   8.797  19.101  13.040  0.1308 -0.1622 -0.2065
12086W        W28560   7.186  15.360  14.400  0.4051 -0.2019  0.1094
12087W        W28561  16.616   4.772  10.867 -0.0844  0.2595 -0.2539
12088W        W28562  18.222   8.975   1.246  0.2300 -0.2018  0.0451
12089W        W28563  14.606  10.486  11.234 -0.2910 -0.1177 -0.1706
12090W        W28564  15.503   1.897   4.405  0.0122 -0.0237 -0.3100
12091W        W28565  11.919   0.449   1.003 -0.2364 -0.1064 -0.0428
12092W        W28566   4.248   4.341   2.348 -0.1276 -0.0588 -0.0685
12093W        W28567  11.227   6.699  11.048  0.0129 -0.0684  0.0173
12094W        W28568   2.395  15.389   1.654  0.0344 -0.2087 -0.3779
12095W        W28569   2.018   8.319   3.049  0.0053  0.1005 -0.0616
12096W        W28570  15.624  19.364  10.832  0.0466  0.2423  0.1288
12097W        W28571   2.635  16.701  11.716 -0.0375  0.2963 -0.0691
12098W        W28572  11.125  14.032   4.632 -0.2410  0.1200 -0.2543
12099W        W28573  16.535   1.953   9.544 -0.0684 -0.1134  0.1614
12100W        W28574  11.785   0.620  13.104 -0.1685  0.0794 -0.0393
12101W        W28575  11.818  11.296  13.566  0.2724  0.1773  0.2415
12102W        W28576   2.817   2.867   4.587  0.1165  0.3382 -0.1484
12103W        W28577  14.570  14.738   0.067  0.2492 -0.0955 -0.2107
12104W        W28578   4.108   0.628   0.842  0.0466 -0.5898 -0.0722
12105W        W28579   9.266   6.082   4.842  0.0525  0.2076 -0.2260
12106W        W28580   1.762   6.418  11.876  0.0650  0.0164  0.3191
12107W        W28581   2.591   6.499  14.333  0.0358 -0.1301  0.0603
12108W        W28582   3.611  18.117  11.316  0.1992  0.2109  0.4381
12109W        W28583  13.879  10.288  11.723 -0.1008  0.1947  0.0435
12110W        W28584   0.353  15.235  14.123 -0.2896 -0.0688  0.0057
12111W        W28585  10.514  18.144  11.723  0.1192  0.0254  0.2151
12112W        W28586   0.542  12.868   4.864  0.2510  0.0826  0.1328
12113W        W28587  10.978   9.344   4.042 -0.0801  0.1367 -0.0959
12114W        W28588   1.214   8.064  12.908  0.0747  0.2229 -0.0897
12115W        W28589   4.231  18.903   0.942  0.0723 -0.0711 -0.0078
12116W        W28590   2.984   1.251  14.190  0.0210  0.1114 -0.0203
12117W        W28591  13.770   9.258   3.146  0.0458  0.0056  0.0877
12118W        W28592  18.677   9.340   1.303  0.2269 -0.0811  0.0023
12119W        W28593   5.754   5.638   4.088 -0.1813 -0.1783  0.1979
12120W        W28594   7.929   3.489  13.972 -0.0124  0.1756 -0.3013
12121W        W28595  14.741   7.163  12.076 -0.0222  0.1998  0.4405
12122W        W28596   3.208   2.104   3.552  0.0872 -0.3602 -0.0425
12123W        W28597  18.528  11.692  10.454 -0.0037 -0.2226 -0.1148
12124W        W28598  13.323  13.556  13.380  0.0630 -0.1547  0.2128
12125W        W28599  12.919  15.650  12.523  0.2597 -0.0819 -0.3485
12126W        W28600  19.162  16.005  14.638 -0.0713 -0.5818  0.1386
12127W        W28601  10.900   9.606  12.976  0.1483  0.1146 -0.2067
12128W        W28602  10.728   8.870  14.660  0.0899 -0.1870 -0.2254
12129W        W28603  16.151  18.586   1.335 -0.0320  0.0118 -0.1801
12130W        W28604  11.484   2.885  13.211 -0.0681 -0.1561 -0.2406
12131W        W28605   7.777   2.512   0.061  0.0498 -0.1472  0.1147
12132W        W28606  12.901  10.286   3.427 -0.1097  0.2194  0.0246
12133W        W28607   2.270   0.719   0.321 -0.1234  0.2866  0.4465
12134W        W28608  19.187   2.500  13.004 -0.1073  0.3704  0.0999
12135W        W28609   9.080  18.305   0.526  0.1401  0.2671 -0.1762
12136W        W28610  18.898  11.551   3.758  0.0779 -0.0495  0.1156
12137W        W28611   6.130  11.518   4.829 -0.3681 -0.0429 -0.4375
12138W        W28612   5.034  18.016   0.653  0.0748  0.0397  0.1307
12139W        W28613  13.056   9.666   4.766  0.1130 -0.1185  0.3174
12140W        W28614   5.267   8.939   3.463  0.2035  0.2064 -0.1578
12141W        W28615  13.443  15.452   4.911  0.0217  0.3598 -0.0294
12142W        W28616  15.097   8.741  11.427  0.2698  0.0711  0.1177
12143W        W28617   3.829   1.192   4.247 -0.3889 -0.2029 -0.2221
12144W        W28618  10.996  17.472  11.240 -0.1265 -0.0673 -0.2585
12145W        W28619  10.554  18.297   1.883 -0.3615 -0.0197  0.1421
12146W        W28620  17.532  16.990   4.066  0.0315 -0.0240 -0.0480
12147W        W28621   1.331   1.391   2.237  0.1391 -0.0429 -0.3160
12148W        W28622  14.993   6.688  10.809 -0.1925  0.0622 -0.0829
12149W        W28623  12.448  14.632   2.121  0.3472  0.2028 -0.0234
12150W        W28624   0.551  11.267   2.867  0.0436  0.1002 -0.2019
12151W        W28625  12.842  14.165  14.215 -0.3227 -0.3355 -0.1027
12152W        W28626   9.519  17.957  12.676 -0.1959 -0.0828 -0.0416
12153W        W28627  17.165  15.140   4.350 -0.0435 -0.1174  0.0159
12154W        W28628   2.125  17.277  11.288 -0.1437 -0.1058 -0.0941
12155W        W28629   5.822   2.744  11.924  0.0688  0.0785  0.3838
12156W        W28630   2.617  12.653  13.744  0.2140  0.2243 -0.0244
12157W        W28631   9.352  17.635  13.006 -0.3525 -0.0190  0.1077
12158W        W28632  19.483   9.778  11.128 -0.1816 -0.1383  0.0122
12159W        W28633   5.829   0.395   0.711  0.0245 -0.0005 -0.2948
12160W        W28634  16.183   7.599  13.566 -0.2292  0.2364  0.2601
12161W        W28635  18.400  15.902   5.141 -0.2727  0.1167 -0.1435
12162W        W28636   7.576   1.717   2.898  0.2716  0.2136 -0.0043
12163W        W28637  14.283  19.576  11.110  0.1587  0.2506 -0.1245
12164W        W28638   4.658   5.742  11.530  0.1872  0.0285 -0.1185
12165W        W28639  18.251  10.543  12.706 -0.0768  0.2430 -0.2283
12166W        W28640   4.728  15.996  10.227  0.0746  0.1494  0.1865
12167W        W28641   9.682  13.004  10.925  0.0659 -0.0174 -0.0373
12168W        W28642   4.943  17.966   3.131 -0.0340 -0.0625 -0.1225
12169W        W28643   9.976   3.331  13.766  0.3187  0.0535  0.2341
12170W        W28644  19.397  11.326  13.048 -0.6241  0.0939 -0.1009
12171W        W28645   3.073  17.236   4.554  0.1624 -0.0151  0.3383
12172W        W28646  15.903   8.004  10.613 -0.1117  0.1846 -0.3221
12173W        W28647  16.768   5.016  12.801  0.4186 -0.0736  0.1786
12174W        W28648   1.390  13.931  14.377  0.0377  0.0654  0.1319
12175W        W28649   0.269  18.034   1.323 -0.0519  0.1569  0.5871
12176W        W28650   4.909   5.240  14.490 -0.0138 -0.1821  0.1742
12177W        W28651  18.769   5.577   1.619 -0.0778 -0.0688  0.1807
12178W        W28652  11.927  15.958   0.500 -0.1414 -0.0147  0.0122
12179W        W28653  13.776   2.146  13.361  0.0496  0.1043 -0.1031
12180W        W28654  17.174   8.515   3.106 -0.0741  0.3669 -0.1519
12181W        W28655   0.931  11.080  12.042  0.2746  0.1957 -0.2553
12182W        W28656   5.382  10.172   4.848 -0.1192  0.1629  0.0617
12183W        W28657  11.343  16.907   5.303  0.0951 -0.1165  0.0047
12184W        W28658  14.873  14.915   2.434  0.1545 -0.0555  0.1253
12185W        W28659  15.390  13.146  12.722  0.1948  0.1073  0.1353
12186W        W28660   9.639   9.584  11.381 -0.1058 -0.0157 -0.0440
12187W        W28661   4.531   7.323   0.880 -0.0897  0.3478 -0.2167
12188W        W28662  19.422  18.893   3.002  0.2657 -0.1335 -0.5270
12189W        W28663  15.926   1.973  10.200  0.0217  0.0714  0.1187
12190W        W28664   6.270   9.645  12.893 -0.0548 -0.0858  0.3607
12191W        W28665  11.134   3.070   1.383  0.1051 -0.2956  0.4076
12192W        W28666  15.192   4.821   1.009 -0.1152 -0.2220  0.0333
12193W        W28667   4.894   0.667  12.982  0.0025  0.0204 -0.0690
12194W        W28668  18.621  13.738   2.610 -0.1133  0.0915  0.0974
12195W        W28669  12.021   8.049  13.001 -0.3252 -0.0867 -0.2579
12196W        W28670  10.907  13.936   1.436  0.1360  0.2318 -0.1450
12197W        W28671  12.083  14.160  11.447  0.3443  0.0427  0.0110
12198W        W28672   3.119   7.671   5.374  0.0270  0.1153  0.2558
12199W        W28673   0.460  16.683  12.064 -0.1609  0.0445 -0.1874
12200W        W28674  10.596   7.458  10.194 -0.0867 -0.0400 -0.3996
12201W        W28675   1.456   0.070   2.026  0.1078  0.4144 -0.1663
12202W        W28676  19.500  18.346  13.638 -0.0958 -0.1853 -0.0286
12203W        W28677  11.719   0.385  14.315  0.1296  0.0883  0.1573
12204W        W28678  17.127  16.113   0.290  0.1456  0.0044 -0.1608
12205W        W28679   2.144  15.431   4.462 -0.0971 -0.3543 -0.2329
12206W        W28680  15.770   3.709  10.723 -0.0587 -0.0245 -0.1665
12207W        W28681  13.730  13.797   4.886  0.1566  0.3604  0.0841
12208W        W28682  17.298  14.291   0.804  0.0316 -0.0279 -0.1230
12209W        W28683   3.868   1.051   1.227  0.0077  0.0585 -0.2341
12210W        W28684   1.437   5.641  13.448 -0.2019 -0.2664 -0.2112
12211W        W28685   1.422   0.071   1.428  0.0783  0.2029  0.1814
12212W        W28686   8.242   4.419  13.860 -0.1011  0.1587 -0.0280
12213W        W28687  17.361   5.167  11.471 -0.4113 -0.0404 -0.1794
12214W        W28688   5.032  12.969  11.986  0.0257  0.2262  0.1304
12215W        W28689  10.011   0.973   9.513 -0.0905  0.1994  0.0422
12216W        W28690  10.295  16.231  11.396 -0.0690 -0.0723  0.1625
12217W        W28691   1.378   9.690   0.530 -0.0019  0.2312  0.1076
12218W        W28692  14.622  16.477  10.498 -0.0861  0.1068  0.1449
12219W        W28693  11.107  10.203   9.618  0.3449 -0.2043  0.0487
12220W        W28694  10.455  18.394   0.314  0.1461  0.1981  0.0710
12221W        W28695  14.644  18.355  11.408  0.0052  0.0400 -0.2716
12222W        W28696  17.263   8.226   0.425 -0.1878 -0.1183  0.0497
12223W        W28697  16.175   3.051   0.024 -0.3636 -0.0913 -0.0017
12224W        W28698   2.149   2.626   3.912 -0.0304  0.2080 -0.2350
12225W        W28699  14.304  17.948   5.442 -0.0116 -0.3075 -0.1624
12226W        W28700  14.107   1.441   0.386  0.1603 -0.0163  0.0938
12227W        W28701  13.976   7.914   3.821  0.2721 -0.0507 -0.0127
12228W        W28702   5.779  16.781   2.536  0.0120 -0.5442 -0.1520
12229W        W28703  18.845   6.277   0.604  0.0684  0.1863  0.2267
12230W        W28704   1.148  10.124   3.029  0.0129  0.1961  0.4550
12231W        W28705   1.987  18.875  14.587  0.0372 -0.2437  0.1441
12232W        W28706   7.876  18.115  12.782 -0.0544 -0.1914 -0.3730
12233W        W28707   7.794  17.646  11.079 -0.4128  0.0420  0.0717
12234W        W28708   1.013  11.348   1.088  0.1962  0.1120 -0.1485
12235W        W28709   0.449   8.303   4.931  0.0332  0.2208  0.0398
12236W        W28710   8.413   6.761  13.735  0.3445 -0.0874  0.1351
12237W        W28711  12.649   2.956   4.059  0.0981  0.3930 -0.2855
12238W        W28712  16.961   0.414   3.080  0.2339  0.0626  0.0873
12239W        W28713  17.380   0.754  11.792  0.0537 -0.2416  0.3419
12240W        W28714   7.874   5.658   4.231  0.2703 -0.1032 -0.2015
12241W        W28715   4.862   2.566   2.149 -0.0989 -0.2313  0.0964
12242W        W28716  11.368   6.353   1.570  0.0715  0.0824 -0.2588
12243W        W28717  14.768   5.933   0.203  0.1577 -0.0152  0.1096
12244W        W28718   5.013  15.291  12.940  0.3275 -0.2025 -0.3301
12245W        W28719  17.766   4.388  12.476 -0.0096  0.3395 -0.1168
12246W        W28720   7.425  10.993   3.217 -0.0018 -0.1428  0.0280
12247W        W28721  18.652   7.441  10.371  0.1622 -0.1280 -0.0156
12248W        W28722  11.925  19.557  10.943 -0.0681  0.3747 -0.1571
12249W        W28723   9.734   2.125   4.546 -0.2058 -0.4578  0.1564
12250W        W28724   5.149   2.380  11.946  0.1680 -0.1637  0.1639
12251W        W28725   4.713   5.339   2.813  0.1030  0.2589  0.2195
12252W        W28726  14.996  17.773  14.479  0.3163 -0.0113  0.1573
12253W        W28727   3.197  11.599   4.585 -0.0116  0.0285  0.0443
12254W        W28728  15.390   5.907  10.304 -0.0845  0.1478 -0.1802
12255W        W28729  10.354   8.044   0.081  0.3033 -0.1318 -0.1835
12256W        W28730   1.930  10.395  11.435 -0.1461 -0.2596 -0.3605
12257W        W28731   6.416  18.528   2.414  0.2634  0.1788  0.3359
12258W        W28732  13.759  15.067  13.367  0.0214  0.3880  0.1960
12259W        W28733  13.380   4.096   5.032  0.0322  0.2544 -0.0722
12260W        W28734  14.644   2.379  10.560  0.1272  0.1771 -0.3278
12261W        W28735  18.068  10.811  10.776  0.1728  0.0508 -0.0704
12262W        W28736  13.333   8.932   0.115 -0.1899  0.3207 -0.2852
12263W        W28737  12.227   5.984  10.507 -0.0073  0.0973  0.0632
12264W        W28738  15.802   3.409  12.300 -0.2117  0.0789  0.3550
12265W        W28739   0.073   5.679  11.278 -0.0693  0.1307 -0.4785
12266W        W28740   2.022   0.614  12.186  0.0406  0.0834 -0.0735
12267W        W28741   3.105   6.767   1.763  0.2562  0.0178 -0.1217
12268W        W28742  11.247  17.636   1.829  0.0819 -0.0170  0.2049
12269W        W28743  16.348  11.797   3.575 -0.1063 -0.1332 -0.0287
12270W        W28744  17.678  19.233   1.695 -0.3348  0.6178 -0.2734
12271W        W28745   7.616  16.621   1.597  0.2277 -0.0188 -0.1619
12272W        W28746   6.402  11.866   0.799 -0.0078 -0.0557 -0.1387
12273W        W28747  19.460  19.252   0.980 -0.0729 -0.1516 -0.1931
12274W        W28748  16.635   9.035  12.371  0.0128  0.0015  0.1287
12275W        W28749   3.354  16.362  12.741  0.2378 -0.1422  0.0980
12276W        W28750  11.912  13.800  12.716  0.1642  0.2729  0.1781
12277W        W28751   4.138  15.931   2.131  0.1534  0.2355 -0.1686
12278W        W28752   8.462  11.805   2.168  0.0188 -0.2105 -0.2047
12279W        W28753  12.893  18.458  13.065 -0.3830 -0.0981 -0.0364
12280W        W28754   6.460   2.117   3.701 -0.2059  0.0436 -0.0674
12281W        W28755   1.020  19.179   4.359  0.1531 -0.4034 -0.1988
12282W        W28756   6.259  19.261  14.013 -0.3902  0.0729 -0.0442
12283W        W28757   1.583  10.021   4.123  0.0774 -0.0523 -0.2500
12284W        W28758  10.593   1.706   1.039 -0.2026 -0.1588  0.0816
12285W        W28759   2.432   2.732   5.062  0.3366 -0.0243  0.1218
12286W        W28760   7.911   9.512  10.083  0.1076  0.1875  0.1689
12287W        W28761   0.037   0.075   0.317 -0.0007  0.0649  0.0113
12288W        W28762   8.724  11.950  12.514 -0.2416  0.1867  0.0374
12289W        W28763   6.248  16.996   2.778 -0.2138  0.3846 -0.2236
12290W        W28764   9.057  16.737   0.672  0.1045  0.0189  0.1700
12291W        W28765  16.876   1.793   4.079  0.0944  0.1067  0.0633
12292W        W28766   5.822   6.505  12.207  0.0595 -0.3449  0.1291
12293W        W28767   2.614   4.446  14.232 -0.2181 -0.1544  0.3696
12294W        W28768   0.955  13.564   3.607 -0.0806 -0.1563 -0.2836
12295W        W28769   9.807   9.427  10.827  0.0802  0.0143 -0.2144
12296W        W28770   7.879  17.861  10.599 -0.2637  0.1000 -0.3468
12297W        W28771   3.978  18.657   0.098 -0.1211  0.0380 -0.1449
12298W        W28772   2.488   3.444   4.308 -0.2131  0.0705  0.0715
12299W        W28773   0.215  12.747  13.228 -0.3783 -0.3077 -0.0352
12300W        W28774   9.365   2.791  10.135  0.1365  0.0344  0.2317
12301W        W28775   5.415  14.135   9.350 -0.1316 -0.1177  0.0579
12302W        W28776  14.541  18.088  12.378 -0.0134  0.3429 -0.0922
12303W        W28777   1.959  18.994  14.018 -0.0483  0.0320 -0.2458
12304W        W28778  17.184   3.465  10.722  0.2863  0.1871 -0.3342
12305W        W28779  16.310  17.361  10.760  0.0175  0.1357  0.1349
12306W        W28780   7.410   6.146  13.120 -0.0308 -0.3383  0.0585
12307W        W28781   9.187  15.260  11.927 -0.3343  0.0293  0.4006
12308W        W28782  11.450  10.911   1.861  0.1380 -0.2345  0.1012
12309W        W28783   7.290   3.593  11.103 -0.2319  0.1021 -0.1383
12310W        W28784  10.211  14.531   4.593  0.0080 -0.1841 -0.1259
12311W        W28785  12.073   4.470   3.048  0.2911 -0.2164 -0.1759
12312W        W28786   5.810  14.453   4.772  0.2835 -0.0419  0.1852
12313W        W28787   0.662  13.151  13.125  0.1917 -0.2520  0.0395
12314W        W28788  10.843   9.828  12.485  0.3811  0.4298 -0.1274
12315W        W28789  13.116   3.424   0.880 -0.0545  0.0702 -0.0689
12316W        W28790  15.015   7.290   4.842  0.0064 -0.0477  0.0761
12317W        W28791  13.653  15.239   3.598  0.1934  0.0656 -0.3037
12318W        W28792   0.603  12.413   0.246 -0.5240 -0.1797 -0.0401
12319W        W28793   9.794  10.962   0.571 -0.1894  0.2046  0.2411
12320W        W28794   2.884   0.607  14.283  0.0097 -0.0763  0.1412
12321W        W28795  18.826   4.928  10.203 -0.0363  0.2548  0.0135
12322W        W28796   8.541  13.630   1.613  0.1912  0.0745  0.1882
12323W        W28797   4.172  12.378   1.408 -0.0854  0.0934 -0.1638
12324W        W28798   5.175   9.152   0.697  0.0052 -0.2782  0.4125
12325W        W28799   2.997  16.230   2.290  0.1589 -0.0410 -0.2973
12326W        W28800  15.345   9.480   4.152 -0.3282  0.0965 -0.3504
12327W        W28801   5.267  13.179   2.080 -0.1464 -0.4057  0.0430
12328W        W28802  17.677  16.441  11.003  0.1390 -0.1795 -0.3326
12329W        W28803  10.689   3.876  10.768  0.1014  0.0572  0.0348
12330W        W28804   2.528   1.256   8.840 -0.0195 -0.2063  0.0149
12331W        W28805   7.314   2.921   9.951  0.4085 -0.1066  0.0823
12332W        W28806  19.340  13.660   3.495  0.2416 -0.2428 -0.2738
12333W        W28807   8.729  14.651  12.559 -0.0537 -0.1128  0.2377
12334W        W28808   6.266  14.637   5.273 -0.1466 -0.1326  0.1442
12335W        W28809  19.578  16.477   2.422  0.0574 -0.1739 -0.1303
12336W        W28810   0.416  16.943   0.586 -0.1608  0.0225  0.1690
12337W        W28811  18.222  17.261   5.277  0.2536  0.2053  0.1150
12338W        W28812   7.170   7.759  12.566 -0.0158  0.0952 -0.0637
12339W        W28813  14.914  18.792   3.298 -0.2529 -0.1510 -0.0725
12340W        W28814  11.280  17.856  11.528  0.1084 -0.0342 -0.2826
12341W        W28815   1.384  18.605   2.776  0.0743  0.0290  0.0387
12342W        W28816  18.401   0.894   0.204 -0.2262 -0.2923 -0.0200
12343W        W28817  14.377  11.769   1.256 -0.0481  0.3150  0.2364
12344W        W28818   0.723  11.577  14.429  0.1916  0.3899  0.0403
12345W        W28819   2.435  16.320  13.640 -0.2229 -0.0314 -0.0426
12346W        W28820  10.130   8.194   4.391  0.1088 -0.0728 -0.0095
12347W        W28821  16.489  19.295   0.046 -0.1250 -0.3636 -0.0223
12348W        W28822   1.904   6.402  12.854  0.0128  0.0378  0.0651
12349W        W28823  11.396  16.907   4.499  0.2125 -0.4336 -0.1423
12350W        W28824   9.547   9.663  10.422  0.2287  0.1632 -0.1171
12351W        W28825   2.475   6.188  10.243 -0.0868 -0.0975  0.1498
12352W        W28826   4.090   0.154   2.604  0.0499 -0.2514  0.1438
12353W        W28827   0.272   0.967  13.532  0.3034  0.0227 -0.2453
12354W        W28828  11.712   8.257   2.170  0.1733  0.1260 -0.1320
12355W        W28829   4.524   6.227   0.959  0.0653 -0.0987  0.1117
12356W        W28830  18.308   0.941  12.196  0.0468  0.1007 -0.0715
12357W        W28831  12.192  12.775  13.998 -0.1228 -0.0306  0.2344
12358W        W28832  18.503   2.648  13.346  0.1287 -0.0964 -0.2612
12359W        W28833   8.181   6.030  10.829 -0.0124  0.0697 -0.0370
12360W        W28834  11.001  10.493   3.488 -0.1757 -0.2789 -0.1841
12361W        W28835  16.651   6.514  13.379  0.1951 -0.1809  0.2988
12362W        W28836  12.370   3.456   0.310  0.0886 -0.2242  0.1999
12363W        W28837  12.366   8.129   4.446 -0.1538 -0.1497 -0.1319
12364W        W28838   2.294  11.798   3.153  0.0186 -0.2108 -0.0871
12365W        W28839  17.555  13.911  13.793  0.1351 -0.1296 -0.2967
12366W        W28840   5.626  13.347   4.824 -0.1091 -0.1244 -0.2614
12367W        W28841  11.455  16.891   0.627 -0.0641 -0.0868  0.1467
12368W        W28842  10.306   3.365  12.979 -0.0858 -0.2124 -0.1799
12369W        W28843  10.517  15.138  14.336  0.1503 -0.0682  0.2345
12370W        W28844   5.099  19.146   2.020  0.2048 -0.1602  0.0822
12371W        W28845  19.565   3.046   0.508  0.1767 -0.1159 -0.1587
12372W        W28846   5.855  17.572   3.026 -0.3903  0.0477  0.0091
12373W        W28847  11.441  18.232  10.818 -0.2782  0.1710  0.0741
12374W        W28848   4.323   9.756  14.576  0.2610 -0.1518 -0.1411
12375W        W28849   7.342  17.985  10.554 -0.0940 -0.1864 -0.1936
12376W        W28850  14.576  10.975  14.621 -0.0610 -0.0549 -0.1639
12377W        W28851  10.268   7.218  14.478 -0.1198 -0.4294 -0.2551
12378W        W28852   8.902   7.628   2.312  0.1129  0.2171  0.1951
12379W        W28853   7.401  13.104  12.240 -0.0849  0.0569 -0.0167
12380W        W28854  17.746   3.120   0.991 -0.1787 -0.0209  0.0748
12381W        W28855   3.322  18.913   2.157  0.2082  0.0810  0.0886
12382W        W28856   1.588  17.653  11.934  0.0596  0.1439 -0.0564
12383W        W28857  13.486  17.965   4.187 -0.0246 -0.3245 -0.0866
12384W        W28858  18.504  10.382  11.963 -0.0725  0.0502  0.1672
12385W        W28859   9.184   1.634  13.306  0.1617 -0.0026  0.0241
12386W        W28860  14.752  14.747  13.413  0.1132 -0.1414  0.0161
12387W        W28861  15.640   3.921  12.174 -0.1706 -0.3499 -0.0315
12388W        W28862  14.536  14.643   2.649  0.0717 -0.2096  0.1519
12389W        W28863  18.340  12.977  10.874  0.0851 -0.1272 -0.2571
12390W        W28864   8.671  15.523  11.499 -0.1551  0.1410 -0.1425
12391W        W28865   9.185   8.334  12.467 -0.0213 -0.1700 -0.0623
12392W        W28866   6.377  13.642   5.059  0.2336  0.2091 -0.4872
12393W        W28867  17.956  15.601  10.602  0.1938 -0.0871  0.3784
12394W        W28868   0.068  19.084   4.916 -0.1248 -0.0061  0.0802
12395W        W28869   7.950   6.555  11.693 -0.2493  0.1401 -0.0186
12396W        W28870   4.407   5.705  11.996 -0.1564  0.3080 -0.2254
12397W        W28871  16.920   9.138  14.081 -0.0367  0.2658  0.2061
12398W        W28872   4.469  13.292  11.949  0.0641 -0.0794  0.1106
12399W        W28873  12.264  12.015  12.173 -0.0221 -0.1821  0.0822
12400W        W28874  17.172  13.463  10.884 -0.1244 -0.0528  0.0965
12401W        W28875   1.729   0.859  10.333  0.1547 -0.2941 -0.1861
12402W        W28876   6.641   1.874   1.983 -0.0600 -0.0250  0.2077
12403W        W28877  10.869  13.655   3.975 -0.2523 -0.3524  0.0031
12404W        W28878   1.805  16.537  14.614  0.0843 -0.1394 -0.2950
12405W        W28879  13.625  16.731   3.706 -0.3370 -0.0207  0.0132
12406W        W28880   0.777  17.836  12.025  0.1836 -0.0784 -0.0180
12407W        W28881  16.703   2.655   2.103  0.0478  0.0936 -0.1117
12408W        W28882  18.739  13.279  11.220 -0.1474  0.3952 -0.4650
12409W        W28883   3.803  12.001  13.336 -0.1118  0.0479 -0.0373
12410W        W28884   0.403  15.702   4.073 -0.1748 -0.0427 -0.1717
12411W        W28885  14.108  12.442   2.202  0.2007  0.0981 -0.1178
12412W        W28886  17.976  15.046   1.100  0.1212 -0.2516 -0.1550
12413W        W28887   7.190   9.664   1.865 -0.0582 -0.0011 -0.1025
12414W        W28888  19.205   0.010  10.318  0.0165 -0.1384 -0.0877
12415W        W28889   7.053  18.862   3.090 -0.0832  0.2268 -0.1520
12416W        W28890   1.310  19.089  11.533 -0.0364 -0.0370  0.2338
12417W        W28891  10.378   3.345  11.578  0.1778 -0.1513  0.0882
12418W        W28892  13.455   1.907   2.029  0.1316 -0.2351  0.1429
12419W        W28893  16.450   9.602  10.916  0.0321 -0.1282 -0.2197
12420W        W28894   0.447   7.793   2.630 -0.0935 -0.1347  0.1113
12421W        W28895  12.266   5.819  13.683 -0.1881  0.0846 -0.0592
12422W        W28896  16.971  13.246  11.974  0.0296 -0.1584  0.3371
12423W        W28897   2.327   7.787   2.159 -0.1046 -0.0485  0.1059
12424W        W28898   0.090   3.587  11.251  0.0593 -0.0581 -0.1210
12425W        W28899   2.922  18.293   4.129  0.2059 -0.0571  0.2363
12426W        W28900   6.639  12.599   0.131  0.0237  0.0325 -0.0125
12427W        W28901   1.261   3.883   3.567 -0.1713  0.1386 -0.2583
12428W        W28902   8.158  19.301  14.109  0.0231  0.0698  0.0562
12429W        W28903  15.546   7.028  12.276  0.2103  0.0111  0.0109
12430W        W28904   8.796   1.582   1.000 -0.2744 -0.0886  0.0399
12431W        W28905   8.576  16.177  14.663 -0.1748  0.2992  0.0348
12432W        W28906   2.118  11.917   1.810  0.1729 -0.2748 -0.0816
12433W        W28907  13.201  17.303   3.093  0.1024 -0.0032 -0.0724
12434W        W28908   9.985  17.007   5.534 -0.2258  0.1736 -0.1406
12435W        W28909  14.248   5.267  12.318 -0.1462 -0.2824  0.0073
12436W        W28910  15.819   4.380   1.963  0.3027 -0.1493 -0.0051
12437W        W28911  17.877   3.372  13.048 -0.0455  0.0099  0.1551
12438W        W28912   3.091   8.564  13.220 -0.1412  0.1008 -0.1009
12439W        W28913  10.246   9.640  12.327  0.0126  0.0637 -0.0381
12440W        W28914  10.886  14.160   4.148 -0.1549  0.1609 -0.1491
12441W        W28915   9.703  13.460   2.979  0.2276  0.2300  0.3011
12442W        W28916  10.343   1.775   3.559 -0.1470 -0.0883  0.4227
12443W        W28917  15.410  12.146  13.530 -0.0557  0.0771 -0.5438
12444W        W28918   4.461   0.349  12.618  0.1024  0.2260 -0.0290
12445W        W28919  16.404  15.019  11.078 -0.0269  0.0629  0.3025
12446W        W28920   1.000   5.735   1.433 -0.3461 -0.0527  0.0023
12447W        W28921   9.171  11.503   0.026  0.0954  0.2481 -0.6122
12448W        W28922   6.753  15.411  13.144  0.0624 -0.1042  0.2052
12449W        W28923   8.867   3.708   8.662  0.1634  0.0948  0.0003
12450W        W28924  12.801   5.334  13.033  0.0550  0.0019 -0.2330
12451W        W28925   6.801  10.475   0.465  0.4345 -0.1406 -0.2859
12452W        W28926  14.095  12.574   9.901  0.0608  0.1771 -0.0583
12453W        W28927  17.416   2.637  14.374  0.2892  0.2346  0.2557
12454W        W28928  12.723   3.678  14.201 -0.0531  0.1831  0.1596
12455W        W28929   4.709   0.510   9.405  0.1048  0.0850 -0.1198
12456W        W28930   9.099  10.936  13.540  0.0319 -0.1383  0.0979
12457W        W28931  12.407   3.479   8.847 -0.0495 -0.2142  0.1336
12458W        W28932  15.361   1.232   0.961 -0.1348 -0.2836 -0.1573
12459W        W28933   2.134   1.038  10.065 -0.1443  0.1930  0.0332
12460W        W28934  15.703   9.904  11.392 -0.2646 -0.1891  0.1069
12461W        W28935  10.794   1.431  13.948 -0.1572 -0.5112  0.1614
12462W        W28936   3.861   8.021   1.502 -0.0566 -0.0083  0.3228
12463W        W28937  14.494  15.521   0.574 -0.1635  0.2288  0.1922
12464W        W28938   3.543  10.777   3.841  0.1507 -0.1663 -0.0128
12465W        W28939   6.034   7.527   3.868  0.4335  0.0367  0.5048
12466W        W28940  10.471   1.536   4.475 -0.1070  0.1133 -0.0699
12467W        W28941  12.145   1.436   4.384  0.2160 -0.2604  0.0342
12468W        W28942   5.925  13.270   3.760  0.2243  0.1638  0.2580
12469W        W28943   2.019   3.551   3.477 -0.1639 -0.2992 -0.0198
12470W        W28944  18.201  14.147  14.248 -0.0739  0.2225 -0.2304
12471W        W28945   5.414  16.579   0.881 -0.0423  0.0329 -0.2447
12472W        W28946  11.206  18.392  14.075  0.1995  0.2710 -0.1359
12473W        W28947   4.327  13.985  14.654 -0.0631  0.0439  0.0891
12474W        W28948   0.435   7.070  11.783 -0.3541 -0.0226 -0.2564
12475W        W28949  15.283   9.508   3.671  0.0383  0.0138 -0.0548
12476W        W28950  15.674   1.216  10.823  0.2966 -0.5049  0.3319
12477W        W28951  18.103  12.796   1.556 -0.2581  0.2026 -0.0179
12478W        W28952  13.014   1.971   3.435  0.0719 -0.1187  0.2878
12479W        W28953  16.786   3.933  11.927 -0.1040  0.0654  0.4456
12480W        W28954   4.870  13.268  11.632  0.0291  0.1361 -0.1268
12481W        W28955  11.469  14.775  11.466  0.0774 -0.2854  0.0831
12482W        W28956   5.404  19.343  13.737  0.1041 -0.0095  0.0172
12483W        W28957  16.536   1.581   4.655 -0.1712  0.0185 -0.0801
12484W        W28958   0.545   7.622  11.358 -0.0085  0.0461 -0.0393
12485W        W28959  13.186   9.860   3.436  0.0132 -0.5326  0.0879
12486W        W28960   5.533  17.061   3.400 -0.0750  0.0966  0.0259
12487W        W28961   9.161   4.235  13.802  0.2161  0.2778  0.2170
12488W        W28962   0.612   9.886   1.004 -0.2876 -0.2542  0.3490
12489W        W28963  14.158  10.672  11.716  0.1679 -0.0364 -0.0893
12490W        W28964  18.241   0.112  10.013 -0.0425  0.2601 -0.0860
12491W        W28965   9.036   6.976  12.445  0.3227 -0.0942  0.0858
12492W        W28966   5.020  15.990   4.054 -0.0127 -0.0656 -0.3182
12493W        W28967   3.724   6.347   2.365 -0.1433 -0.0313 -0.2134
12494W        W28968  12.710  19.546  13.111 -0.2032 -0.0579 -0.1341
12495W        W28969   7.421   2.119   3.230  0.0012 -0.2017  0.0938
12496W        W28970   6.479   4.115  12.097  0.1555  0.1421 -0.0682
12497W        W28971   1.118  11.498   4.114  0.0234 -0.0265  0.1962
12498W        W28972   0.606  15.150   2.780  0.0463 -0.1485 -0.1846
12499W        W28973   1.368   8.900  11.542  0.3570  0.2071 -0.3956
12500W        W28974  10.152  15.079   4.359 -0.0511 -0.1458  0.0057
12501W        W28975  12.578   1.866   8.928  0.2351  0.1411 -0.3226
12502W        W28976   6.773  10.322   3.847  0.1523  0.0831 -0.1081
12503W        W28977   1.519  16.049  12.232  0.0430  0.4250 -0.2201
12504W        W28978   7.992  18.382   2.161  0.2045 -0.2568  0.0529
12505W        W28979   2.774  19.496   9.453 -0.3787  0.1466 -0.2438
12506W        W28980  11.678  10.800   2.296  0.0016 -0.0314  0.0495
12507W        W28981  12.916  13.113   1.958  0.2451 -0.0064  0.3435
12508W        W28982  14.826   9.667   2.653 -0.3706 -0.3211 -0.2001
12509W        W28983   9.135   0.534   5.020 -0.0657  0.0234 -0.1928
12510W        W28984   3.258  19.605   9.932 -0.0115  0.0318  0.1066
12511W        W28985  19.439   5.890   2.969  0.0226 -0.3169 -0.1035
12512W        W28986   3.043   3.394   0.725  0.3748  0.0938  0.0638
12513W        W28987   6.097  17.124  14.575 -0.0543 -0.2719 -0.0743
12514W        W28988  13.810   7.189   1.388  0.0656 -0.2930 -0.1368
12515W        W28989   2.483  16.742  13.890 -0.0467 -0.1640  0.1754
12516W        W28990   5.195   6.462  13.858  0.0304 -0.2391  0.0405
12517W        W28991   3.612   2.183  12.876 -0.1806 -0.0914  0.2423
12518W        W28992  16.729  16.850  13.732  0.1446 -0.0266 -0.3301
12519W        W28993   4.568   0.980   2.784  0.1739  0.6181  0.0907
12520W        W28994  12.771  19.288   2.301  0.2300  0.3552  0.2161
12521W        W28995   8.787  17.384   1.590  0.2684 -0.0310  0.1195
12522W        W28996   0.493   8.569   9.697 -0.0818 -0.0141  0.2317
12523W        W28997  17.794  13.587  13.179 -0.0518  0.0528  0.0497
12524W        W28998  15.587   6.766   3.383  0.1828  0.0577  0.1714
12525W        W28999   8.521   5.895   9.461  0.0814  0.3182  0.3663
12526W        W29000   6.074   3.039  11.452  0.0243  0.2381 -0.3039
12527W        W29001   4.658   3.015   2.164 -0.1435 -0.1709  0.0670
12528W        W29002  15.633  15.128   0.505  0.1660 -0.1694  0.0288
12529W        W29003  18.712  17.094  13.174 -0.1185  0.1598 -0.1192
12530W        W29004  13.691   3.701   9.501 -0.0054  0.0481 -0.0520
12531W        W29005   2.981   9.919  12.585  0.0915  0.1366  0.2206
12532W        W29006   1.926   7.029   2.196  0.1626  0.4262  0.1970
12533W        W29007   3.166  18.801  14.650 -0.0157 -0.0288 -0.0678
12534W        W29008   0.155   4.333   1.461  0.1223  0.0199  0.0584
12535W        W29009  16.437   0.005  10.369  0.1022 -0.0734 -0.1057
12536W        W29010  13.579   4.473   2.712 -0.0473  0.0293 -0.3024
12537W        W29011  15.226   9.523   0.250  0.4078  0.2758  0.2885
12538W        W29012   4.750  12.712  14.262  0.2160  0.0357 -0.3068
12539W        W29013  10.094   2.149   2.959 -0.0657 -0.0573  0.0448
12540W        W29014  11.350   6.728   2.512 -0.1728  0.0162 -0.0392
12541W        W29015  14.238  18.912   9.898  0.1604 -0.2644 -0.0808
12542W        W29016   4.168  13.685  13.810 -0.0744 -0.3131  0.0428
12543W        W29017  17.676   4.694   9.324 -0.0651 -0.0827  0.2890
12544W        W29018  15.179   8.892  14.093 -0.1129  0.3308  0.1915
12545W        W29019  10.071   4.622  10.699 -0.1310 -0.0330  0.1832
12546W        W29020  10.493   9.389   5.076 -0.0197 -0.0675  0.0079
12547W        W29021  11.763   9.906   0.242 -0.2374 -0.0780  0.2097
12548W        W29022   9.109   9.089   0.802 -0.0655  0.3337 -0.0697
12549W        W29023   1.597   0.162  10.506 -0.2711 -0.0363  0.2098
12550W        W29024   8.879  15.861   2.483  0.0004 -0.1751 -0.0840
12551W        W29025  19.578  12.182  12.818  0.1600  0.1732  0.1353
12552W        W29026   7.619  12.870  11.778 -0.0633  0.0763 -0.0178
12553W        W29027   4.454  19.429   5.201  0.2806 -0.0819  0.1694
12554W        W29028  12.757  15.043  11.188 -0.4220  0.0095 -0.3399
12555W        W29029   9.890   4.196  11.239  0.0528  0.1774 -0.1528
12556W        W29030   4.912  18.517  13.357  0.1736  0.1376 -0.0663
12557W        W29031   0.171   2.161   3.094  0.2129  0.2834  0.1347
12558W        W29032  13.841  17.541   0.333  0.0318  0.0165 -0.2102
12559W        W29033  19.288   0.888   2.673  0.0538 -0.2746 -0.1588
12560W        W29034  16.615   3.106   2.617  0.0200  0.1036 -0.1597
12561W        W29035  19.572  17.131   3.843 -0.1502 -0.0367  0.0305
12562W        W29036   6.887  13.855  12.196 -0.0941  0.3102 -0.0950
12563W        W29037  12.950   4.448   1.696  0.1067  0.1067 -0.1035
12564W        W29038   6.226   1.922  12.560 -0.0888 -0.0115  0.3896
12565W        W29039  13.078   1.859   4.401  0.1318  0.0790 -0.0535
12566W        W29040   9.135   2.258   2.055  0.0726 -0.0973  0.1191
12567W        W29041   8.724  15.031   4.475 -0.2128 -0.3966 -0.3561
12568W        W29042  17.392   5.797  10.766  0.1055 -0.1269 -0.0705
12569W        W29043   5.885  12.207   4.764  0.4227  0.1403 -0.2301
12570W        W29044   4.233  13.496  13.016  0.1179  0.3698 -0.1282
12571W        W29045   8.981  17.350   2.480  0.0890  0.0309 -0.0390
12572W        W29046   4.077   7.023   3.065 -0.1487  0.0641  0.0760
12573W        W29047   9.489  19.180   3.969 -0.1602 -0.0911  0.3275
12574W        W29048  11.508   2.722  11.226  0.0204  0.1286  0.3503
12575W        W29049  12.290   8.589  13.454 -0.0176 -0.1205  0.1736
12576W        W29050  15.006  18.133   4.650 -0.3390  0.2107  0.0230
12577W        W29051   5.277   1.478  14.555 -0.2820 -0.0889  0.4152
12578W        W29052  10.892  14.867  14.488  0.3315  0.1263 -0.1539
12579W        W29053   2.010  12.689  10.800  0.1978 -0.1757 -0.1990
12580W        W29054  18.177  11.161  14.431  0.1004 -0.1238 -0.2907
12581W        W29055   1.071   1.901  10.445 -0.2855  0.2075  0.1273
12582W        W29056   2.526  18.505  11.673 -0.1052  0.1050 -0.2620
12583W        W29057  14.374   0.799  11.371 -0.0737 -0.1782 -0.3951
12584W        W29058   2.245   3.126   3.679  0.2567 -0.0485 -0.2345
12585W        W29059  11.439   5.279   3.033 -0.0720  0.2850 -0.2010
12586W        W29060  15.154   1.883  10.834 -0.0252  0.0661  0.2005
12587W        W29061   1.260  16.951   0.407  0.0363  0.0539  0.3422
12588W        W29062   3.772   9.656   4.768  0.1167 -0.2601  0.1834
12589W        W29063   1.960  19.423   1.663 -0.5231 -0.1470  0.2496
12590W        W29064   3.935   4.772  12.098  0.0132 -0.0443 -0.0887
12591W        W29065   8.631  11.430   0.382 -0.0361 -0.1929  0.2083
12592W        W29066  10.560  13.233   2.695 -0.2174  0.4725  0.0228
12593W        W29067  16.038   3.014   1.774  0.3199 -0.1976  0.1813
12594W        W29068   7.333   7.052   1.988  0.0356 -0.1996  0.0095
12595W        W29069  16.827   8.039   5.239  0.0359  0.0186  0.0657
12596W        W29070   4.329  16.067  11.089 -0.3155 -0.1068 -0.2193
12597W        W29071  15.772   7.703  11.133 -0.0693  0.1811  0.0585
12598W        W29072   6.916   2.285  13.712  0.0175  0.2043  0.1758
12599W        W29073  16.740   3.714   9.633  0.1585  0.1745 -0.3086
12600W        W29074   8.371  18.618   5.008  0.0414  0.2211 -0.1251
12601W        W29075  19.223   3.644  13.181  0.3216 -0.5088  0.1490
12602W        W29076   0.840   3.176   1.872  0.1324 -0.0582  0.2054
12603W        W29077   3.098   4.863  12.647  0.1056  0.3513  0.1634
12604W        W29078  19.446   0.449   5.239  0.0817 -0.0098 -0.2508
12605W        W29079  13.558  15.702  14.253  0.0420  0.0452  0.4304
12606W        W29080  12.063  16.122  14.406 -0.4681 -0.0853 -0.0603
12607W        W29081   8.259   5.369   5.546  0.0539  0.1156 -0.1610
12608W        W29082  17.608  16.714  12.717  0.0814  0.1138  0.1208
12609W        W29083  17.397   8.874   2.103 -0.1448  0.0749 -0.0145
12610W        W29084  17.777   4.965   2.730 -0.1072  0.1565 -0.3314
12611W        W29085   5.473   6.997   2.957  0.0079 -0.4204  0.1055
12612W        W29086   9.293   0.332   3.540 -0.2411  0.0631  0.2639
12613W        W29087  18.111   8.956  12.282 -0.1463  0.1509  0.2615
12614W        W29088   3.474  17.884  12.182 -0.1244  0.0527 -0.2269
12615W        W29089   6.035   1.368   3.666 -0.1117  0.0726  0.1545
12616W        W29090  12.546  10.253   3.010 -0.0545 -0.3830 -0.1782
12617W        W29091   5.290  14.943  13.456 -0.1313 -0.0618  0.1947
12618W        W29092  15.972   2.714  12.662 -0.1358 -0.1354 -0.1493
12619W        W29093  17.457  18.940   4.011  0.3821  0.0689  0.1410
12620W        W29094  11.977  13.017   3.285 -0.0515  0.0150  0.1816
12621W        W29095   6.683  14.794  12.336 -0.1002 -0.0711  0.3611
12622W        W29096   5.157   8.423   3.487 -0.0583 -0.3126  0.1714
12623W        W29097  15.999   1.491  10.548  0.1527 -0.1487  0.0096
12624W        W29098   0.198  10.324   8.913  0.0528 -0.3661  0.0084
12625W        W29099  11.864  12.175   4.375  0.2816 -0.1230  0.3730
12626W        W29100  16.517   6.850   2.796  0.0029 -0.1049 -0.0067
12627W        W29101   6.109   6.859   0.010 -0.4333 -0.3750 -0.3128
12628W        W29102   5.676   8.732  11.889  0.0732  0.1016 -0.2649
12629W        W29103   2.543   7.934   0.416  0.4251  0.2481 -0.2168
12630W        W29104   6.850  17.099  10.763  0.1413  0.1318  0.0601
12631W        W29105   2.232   9.099   3.057 -0.1256 -0.1309  0.0922
12632W        W29106   1.632  15.776   2.903  0.1302 -0.0762  0.0198
12633W        W29107   8.444  19.079   1.998  0.3169  0.2228 -0.0487
12634W        W29108   0.062   0.428   2.579  0.1228 -0.1148  0.1086
12635W        W29109  15.914  11.290  13.688  0.0417  0.1709 -0.0885
12636W        W29110  11.650   0.745  12.640 -0.0910  0.3816 -0.0488
12637W        W29111   0.037   0.037   0.838  0.2532 -0.2881  0.0545
12638W        W29112  15.191   1.985  13.948  0.1380  0.2476  0.2224
12639W        W29113  19.089  11.630   9.802 -0.2008 -0.0784  0.1040
12640W        W29114  13.166  15.118   3.274 -0.2319 -0.1031  0.1384
12641W        W29115  17.009   9.945  11.225 -0.3207 -0.0297  0.1234
12642W        W29116  10.935  11.422   3.795 -0.0209  0.1750 -0.1234
12643W        W29117   9.589   8.047   0.441 -0.3516 -0.4125 -0.1739
12644W        W29118   6.709   0.562   4.469 -0.1395  0.1685  0.1838
12645W        W29119  12.790   7.219   2.355 -0.1958 -0.2763  0.1239
12646W        W29120   2.050  17.810  13.073 -0.2025  0.0643 -0.2515
12647W        W29121   7.236   3.097  11.647 -0.0674 -0.1317 -0.4133
12648W        W29122  14.636   6.477  12.293 -0.0562 -0.2387  0.1190
12649W        W29123   7.917   2.347   4.319  0.0150  0.0097  0.1501
12650W        W29124  15.526   7.747   1.849 -0.4400  0.3848  0.0465
12651W        W29125  18.464  18.831  14.536  0.3554 -0.2358 -0.0699
12652W        W29126  17.227   6.747  14.407  0.0443  0.2113 -0.0182
12653W        W29127  19.183   5.841  14.175 -0.1732 -0.2294  0.0253
12654W        W29128   6.032  15.194  11.960 -0.0733 -0.0542 -0.0371
12655W        W29129   2.275   9.567  13.138  0.0044  0.0001  0.5008
12656W        W29130   5.156   5.908  10.353 -0.1233  0.0543  0.1825
12657W        W29131   9.136   6.940   0.617  0.0981 -0.2924  0.4117
12658W        W29132   8.339  14.757   0.405  0.0260  0.3134 -0.0308
12659W        W29133   1.695  14.600  11.674 -0.1435 -0.2636 -0.1473
12660W        W29134   1.598  16.469  10.948 -0.0738  0.0694 -0.1017
12661W        W29135  19.171   7.553  10.421  0.3564  0.0219  0.2635
12662W        W29136  16.907   1.027   3.724 -0.0632 -0.0040  0.1271
12663W        W29137  10.607   6.975  14.209 -0.0258  0.0427 -0.0017
12664W        W29138   6.711  13.623  11.740 -0.1022  0.3312 -0.3120
12665W        W29139  16.432   5.516   1.310  0.1287  0.1507  0.4093
12666W        W29140  11.563   2.775   2.199 -0.1761  0.1133  0.2433
12667W        W29141   7.454  15.968   0.047  0.0140 -0.2570  0.1786
12668W        W29142   3.475   0.381   2.932  0.1737  0.0546 -0.1800
12669W        W29143   4.549  10.136   2.209  0.1457 -0.0754 -0.2122
12670W        W29144  13.449  12.123   5.796 -0.0286  0.3081  0.0023
12671W        W29145   7.108   3.892  12.562 -0.1028 -0.0622 -0.1337
12672W        W29146  15.492   9.026   2.015 -0.1105  0.0960 -0.0664
12673W        W29147  17.891   5.393  11.346  0.3411  0.3126  0.3659
12674W        W29148  15.237  19.137  14.061  0.3457  0.1008  0.0707
12675W        W29149   2.595   0.360   3.225 -0.2787 -0.0425 -0.0996
12676W        W29150  15.608   5.423   2.753 -0.2262 -0.4337  0.0904
12677W        W29151   0.384  11.721   2.594 -0.0929 -0.0792 -0.3604
12678W        W29152  18.760   7.576  13.395  0.2569  0.1953  0.2432
12679W        W29153  17.439   6.591   4.867 -0.4605  0.2892  0.2831
12680W        W29154  14.741   4.401  13.773  0.1597  0.0288  0.3182
12681W        W29155   2.429   1.267   0.772  0.0549  0.1312  0.3343
12682W        W29156   5.075  12.748  13.402 -0.2277  0.3669  0.0947
12683W        W29157  15.162  16.540  10.590 -0.1132  0.0397 -0.1747
12684W        W29158   8.137  11.812  11.637  0.2119  0.3030  0.2343
12685W        W29159   3.757   7.921   0.332  0.1952 -0.2611 -0.2374
12686W        W29160   8.316   4.222  10.574  0.1079  0.1092 -0.2962
12687W        W29161   7.131   0.105  12.473  0.0799  0.1717  0.0197
12688W        W29162   3.044   3.670  14.418 -0.2350  0.1418  0.1738
12689W        W29163  19.054  11.997  14.538  0.2208  0.2271 -0.2419
12690W        W29164  15.628  17.603  12.586 -0.0078 -0.0698  0.1810
12691W        W29165   6.219  18.866  10.931  0.0442 -0.3311  0.3885
12692W        W29166  11.769  11.596  12.163 -0.0571 -0.0260 -0.0806
12693W        W29167  14.139   8.135  10.476 -0.0682  0.0590 -0.1676
12694W        W29168   9.904   4.986   0.071  0.1924  0.1832 -0.1464
12695W        W29169  13.275   2.821   2.300 -0.1506 -0.0329  0.2272
12696W        W29170  13.891   1.228  12.997  0.0190  0.1424 -0.0679
12697W        W29171  15.003  16.594   2.101 -0.0960 -0.0009  0.1611
12698W        W29172  10.251   5.360   0.232 -0.2883  0.1061  0.1751
12699W        W29173   2.365   0.014   2.364 -0.2238 -0.0729  0.1117
12700W        W29174  16.755  19.426  10.091 -0.2838  0.2115 -0.2132
12701W        W29175  14.543   7.689  13.531 -0.0395  0.0362  0.1168
12702W        W29176  18.921  13.665  11.473 -0.2386  0.0851  0.0654
12703W        W29177   0.659  14.570  11.971  0.1428  0.0350 -0.0615
12704W        W29178   1.629  10.107  11.688  0.0869  0.2683  0.1867
12705W        W29179   9.858   7.070  10.721 -0.2136  0.0708 -0.2145
12706W        W29180   1.466  17.861   1.197  0.0601 -0.2011 -0.0852
12707W        W29181   2.444  13.159  10.762 -0.2102 -0.0750  0.1297
12708W        W29182  19.489  10.367   3.800  0.3571  0.0116  0.2034
12709W        W29183  14.875   8.272   0.025  0.0703  0.2546  0.0908
12710W        W29184  19.560  10.488   1.184  0.3185  0.2188 -0.1303
12711W        W29185  13.109  15.841   4.008  0.1869 -0.2062  0.0606
12712W        W29186  12.859   0.807  13.827  0.1038 -0.2876  0.2336
12713W        W29187   3.430  17.667  13.036  0.2410 -0.2897  0.1533
12714W        W29188  14.055  11.690  12.846  0.0161  0.1187  0.0523
12715W        W29189   4.422  13.193  12.686  0.0011 -0.1245  0.1328
12716W        W29190  13.867   6.529  12.141  0.0389  0.0619  0.2075
12717W        W29191  15.996   2.172   5.212  0.2944  0.2028 -0.2468
12718W        W29192   8.415   7.566  13.165 -0.0253 -0.0642 -0.3330
12719W        W29193   6.755   5.142  13.951  0.0180 -0.0559 -0.2434
12720W        W29194  17.708  10.010   0.970  0.2093  0.2827 -0.4235
12721W        W29195  19.370   8.988  11.609 -0.1601 -0.1473  0.1187
12722W        W29196   6.816  12.225  12.770  0.0041 -0.0289  0.0164
12723W        W29197   8.346  13.214   3.212 -0.2206  0.1676 -0.2218
12724W        W29198   4.342   0.892   2.295 -0.0300  0.0217 -0.1875
12725W        W29199  13.853   0.731  13.374  0.1894 -0.1987 -0.0518
12726W        W29200   8.469  11.633   9.635  0.0109 -0.0539 -0.0695
12727W        W29201  10.065   0.723   5.009 -0.0134  0.0674  0.1900
12728W        W29202  17.039   2.411   0.252  0.0291  0.1381  0.0437
12729W        W29203  14.472  13.598   4.344 -0.2679 -0.2280  0.1765
12730W        W29204  14.581  12.711  11.045 -0.3525 -0.1768  0.1031
12731W        W29205  15.820  11.322   0.277 -0.1557 -0.1607  0.1749
12732W        W29206   3.536   8.592   9.805 -0.0460 -0.0321 -0.2036
12733W        W29207  15.892  10.482   2.436 -0.2444  0.1752 -0.2539
12734W        W29208  13.784  10.883   0.282  0.3894  0.2000 -0.1963
12735W        W29209  16.441  18.717  11.188  0.0517  0.0209  0.0414
12736W        W29210   8.607   9.078   3.677 -0.0655 -0.2669 -0.0434
12737W        W29211  13.389   9.569   3.107  0.1316  0.3635  0.4330
12738W        W29212  12.089  11.513   0.037 -0.3561  0.0425  0.1896
12739W        W29213  12.496   6.310   2.665 -0.0800  0.0596  0.2624
12740W        W29214  16.534   4.755  11.360 -0.0376 -0.1300 -0.1009
12741W        W29215   7.239   4.343  12.847  0.0275  0.3685 -0.1652
12742W        W29216   3.204  12.062  10.301  0.2159  0.0919  0.0262
12743W        W29217  11.764  18.309  13.381  0.3163 -0.0215  0.1600
12744W        W29218   8.983   5.463  14.117  0.3204 -0.2330  0.2247
12745W        W29219  12.065  14.549  11.030  0.0811 -0.1618  0.4296
12746W        W29220  18.953   8.930   4.237 -0.0252  0.0477 -0.0052
12747W        W29221   0.878   5.936  13.929  0.3397 -0.2557 -0.2539
12748W        W29222   7.549  13.758   2.901 -0.1413  0.1662  0.4573
12749W        W29223   9.244   8.907   2.607 -0.0083  0.0333 -0.1684
12750W        W29224  11.292   8.918   9.695 -0.1722 -0.1934 -0.1051
12751W        W29225   1.884  12.444  14.610 -0.0275  0.0844  0.0577
12752W        W29226   0.564   8.679  11.471 -0.2900 -0.0261  0.1010
12753W        W29227  16.621   4.783   1.861  0.1904  0.0864  0.0823
12754W        W29228   4.270   0.231   3.036 -0.1130 -0.1598 -0.2358
12755W        W29229  13.909  18.825  13.700 -0.0108  0.2042  0.0783
12756W        W29230  11.814   5.018   3.991 -0.2692  0.1341 -0.0987
12757W        W29231   4.036   4.655  12.676  0.3185 -0.0296  0.1935
12758W        W29232  15.504  14.558  11.819  0.0731 -0.0290  0.0529
12759W        W29233   6.773   2.778   2.131  0.2135 -0.0477 -0.1378
12760W        W29234  12.926  16.687   5.743 -0.0998  0.0112 -0.0875
12761W        W29235  16.316   5.938  12.080 -0.1340  0.0125 -0.4152
12762W        W29236   8.103   0.975   4.995 -0.0842 -0.0346 -0.3211
12763W        W29237  13.425  10.600   4.319 -0.0560 -0.0827 -0.2628
12764W        W29238   1.417   6.799   2.253 -0.2080  0.4008 -0.1059
12765W        W29239  14.307  17.820   4.188  0.2480  0.0786  0.0270
12766W        W29240   0.919  13.045   0.904 -0.0812 -0.5298  0.0208
12767W        W29241   1.030  14.842  14.146 -0.1067 -0.0015  0.2379
12768W        W29242   8.332  16.133  11.936 -0.2674  0.0941 -0.0686
12769W        W29243  14.633   0.431   0.581 -0.6560  0.0160  0.0228
12770W        W29244   0.268  14.075   2.506 -0.1999  0.2574  0.0819
12771W        W29245  10.961  14.248   5.779  0.5021 -0.4244  0.4274
12772W        W29246  18.142   9.803   2.620 -0.1005 -0.1542  0.0381
12773W        W29247  14.063   8.182   3.329  0.2734 -0.0638  0.1039
12774W        W29248  13.509   7.811  12.501  0.0217 -0.1099  0.0901
12775W        W29249  10.494   5.650   9.883 -0.0655  0.1187 -0.1176
12776W        W29250  16.985  19.546   0.741  0.0358  0.0807 -0.1780
12777W        W29251   8.478   3.231  14.579  0.3509  0.1008  0.2025
12778W        W29252   3.965  12.622  13.853  0.2289  0.2415  0.0982
12779W        W29253  17.560   8.202   0.851  0.3706 -0.0254  0.5224
12780W        W29254   3.160  16.482   3.216  0.0213  0.1203 -0.2909
12781W        W29255   7.880  15.612  14.014 -0.0226 -0.0292 -0.1642
12782W        W29256  10.839  13.904  12.143 -0.1768  0.5710  0.2615
12783W        W29257  12.841  18.926   0.028 -0.0080 -0.2212  0.1397
12784W        W29258  17.635  17.927  11.485 -0.1862  0.1027 -0.1936
12785W        W29259   5.964   6.730   4.938 -0.0448  0.1213 -0.2091
12786W        W29260  14.225   1.911  12.479  0.2433  0.1283 -0.2150
12787W        W29261   9.371   8.301   2.925 -0.0152  0.2213  0.2246
12788W        W29262  13.430   8.339   2.125  0.0654 -0.0586  0.1184
12789W        W29263  18.810  11.098   0.618 -0.3758  0.1918  0.1532
12790W        W29264   6.365   9.588  13.382 -0.1963  0.3185 -0.1519
12791W        W29265  17.587  11.285   4.994  0.1845  0.1564 -0.1482
12792W        W29266   5.903  12.095  14.261 -0.1436  0.0877  0.3058
12793W        W29267   9.520   5.124   4.432 -0.0312 -0.0927 -0.1618
12794W        W29268  19.617   3.260  13.697  0.2416  0.0532  0.3264
12795W        W29269  11.106  16.321  14.554 -0.1365 -0.0612  0.2058
12796W        W29270  12.219  15.867   4.041  0.2779 -0.2995 -0.1255
12797W        W29271   1.018   7.663   2.545 -0.1809  0.2639  0.2369
12798W        W29272  17.050   2.404  10.810  0.2511 -0.3793  0.0847
12799W        W29273   9.276   6.030  14.047 -0.2026 -0.2418 -0.2040
12800W        W29274  18.069   6.920   1.387  0.0350  0.0830 -0.0112
12801W        W29275   8.178   1.861   4.318  0.1320  0.1562 -0.1019
12802W        W29276   5.662   7.206  10.647 -0.0648 -0.0625 -0.2019
12803W        W29277   8.637   8.494   1.477 -0.1412 -0.0852  0.0699
12804W        W29278   6.516   0.463   3.064  0.1208  0.0045  0.0220
12805W        W29279   9.677   7.964   3.929  0.2419 -0.2061 -0.1197
12806W        W29280   7.160  14.011  12.588 -0.0125 -0.0573  0.1609
12807W        W29281  18.739  10.023  14.500  0.0583  0.0601 -0.0163
12808W        W29282   3.917   4.700   3.894 -0.0884  0.1965  0.0997
12809W        W29283   4.362  17.680  13.647  0.0785 -0.1906  0.1904
12810W        W29284   5.348   4.390   0.085  0.3116 -0.1319  0.3706
12811W        W29285   1.445  13.095   4.573  0.1123  0.0816 -0.3589
12812W        W29286   7.399  18.763  12.434  0.0672  0.0652 -0.0591
12813W        W29287  12.733   8.260  12.409 -0.0862  0.2468  0.0945
12814W        W29288  12.289   3.429  11.109  0.0029  0.6489  0.1537
12815W        W29289  17.595  14.719  11.443  0.3194 -0.2462 -0.2193
12816W        W29290  11.974  18.580   4.728  0.1926 -0.0320  0.0056
12817W        W29291   0.368   9.644  12.854  0.1694 -0.0937  0.1373
12818W        W29292  19.147  16.761   2.555 -0.3320 -0.1470 -0.0884
12819W        W29293   5.870   8.647   2.303  0.0029  0.0032 -0.2642
12820W        W29294  17.369   9.641   1.073 -0.1253  0.3601  0.2329
12821W        W29295   1.324   8.763   4.594  0.2317  0.0478 -0.2518
12822W        W29296   9.146   4.220  12.695 -0.1635 -0.1338  0.2380
12823W        W29297   7.275  16.156  10.784 -0.0675 -0.1867  0.0395
12824W        W29298   3.973   3.721  10.397  0.1100  0.1420  0.1532
12825W        W29299   4.422  12.797   1.633  0.1053  0.2794 -0.0203
12826W        W29300   4.763  18.098  10.649 -0.1464  0.3563 -0.0454
12827W        W29301  18.859  15.294  12.906 -0.0146 -0.3323  0.2742
12828W        W29302  18.272  18.317   3.424 -0.0675 -0.2091 -0.3110
12829W        W29303   3.663  12.654  12.844  0.4001 -0.0396 -0.3818
12830W        W29304  16.799   1.806   0.443 -0.4288 -0.1382 -0.5748
12831W        W29305  11.513  11.176  14.384  0.1209 -0.1743  0.0552
12832W        W29306   9.871   1.041  10.836 -0.0587 -0.0842  0.0553
12833W        W29307   7.545   1.635   3.617  0.0594 -0.0928 -0.1269
12834W        W29308  15.339  14.282  14.491 -0.0118  0.2337  0.2089
12835W        W29309   2.476  18.606   2.676 -0.0728 -0.3952 -0.1373
12836W        W29310  19.265   8.180  14.501  0.2885 -0.1222  0.1422
12837W        W29311   5.243  12.677  14.154  0.0634  0.3604 -0.1067
12838W        W29312  17.455  18.268   0.885 -0.0681 -0.3361 -0.0109
12839W        W29313  11.862  12.033   2.615  0.0948 -0.2828 -0.1491
12840W        W29314   5.835   2.829   3.206 -0.1147 -0.0874  0.0302
12841W        W29315   7.875  14.888  12.568  0.5247 -0.1877 -0.2037
12842W        W29316  17.304   3.021  13.762  0.1824 -0.0639 -0.2944
12843W        W29317  16.568   7.535   3.413  0.1657  0.3719  0.1000
12844W        W29318   8.469   3.206   0.738 -0.2297  0.0591 -0.1852
12845W        W29319   4.347  10.527   4.895 -0.1849 -0.0504 -0.1314
12846W        W29320   8.295   6.134  13.906 -0.1114 -0.1099 -0.0076
12847W        W29321  19.054  14.447   1.524 -0.2585 -0.1770  0.0912
12848W        W29322   5.741  13.481  13.301  0.1216  0.4744 -0.2218
12849W        W29323   6.776   7.558   4.096 -0.0872 -0.0844 -0.0196
12850W        W29324   5.534   6.945  14.575 -0.0407  0.0269  0.0211
12851W        W29325  14.884   0.574   1.259  0.1465  0.0544 -0.0421
12852W        W29326   4.979   6.140   9.520  0.1361  0.0552  0.1382
12853W        W29327   3.683   1.753   1.970 -0.2951  0.1919  0.0424
12854W        W29328  17.263   2.129  13.555  0.1639 -0.1193  0.3386
12855W        W29329  11.180   8.687  12.362  0.2454  0.2174 -0.0008
12856W        W29330  13.372  11.966  11.750 -0.1040 -0.0109  0.0765
12857W        W29331   0.056  13.501   1.996 -0.3278  0.1633  0.0862
12858W        W29332   5.103  18.293  11.066  0.1194  0.1141 -0.0121
12859W        W29333  19.592  13.899  11.702  0.0949 -0.3687 -0.2578
12860W        W29334   5.390  14.878  14.094  0.4813 -0.2839 -0.1682
12861W        W29335   5.864   0.301  10.751 -0.1860  0.0502  0.2288
12862W        W29336   2.520  10.401  10.241  0.1702 -0.1125  0.0684
12863W        W29337   8.831   8.166   2.862  0.0402  0.2249 -0.3193
12864W        W29338  13.285   3.050   1.308 -0.2689  0.1476 -0.1099
12865W        W29339   2.974   8.871  11.991 -0.0229  0.3648 -0.2754
12866W        W29340  13.748  11.565  12.404 -0.3591 -0.1097 -0.0515
12867W        W29341  10.878  17.071  14.111  0.1122  0.1731 -0.2125
12868W        W29342   5.859   1.062  10.181  0.1954 -0.1120 -0.2462
12869W        W29343  13.869   9.766   0.439  0.1696  0.2046 -0.0676
12870W        W29344   2.998   0.525   3.462 -0.0677  0.1496 -0.0174
12871W        W29345  12.625  10.297  10.822  0.2544  0.0276 -0.2351
12872W        W29346  11.851   2.116   3.882 -0.2154 -0.1369  0.2132
12873W        W29347   7.873   2.712   3.444  0.5730 -0.1045 -0.3963
12874W        W29348   9.122  18.107   3.503 -0.0685  0.2561 -0.1724
12875W        W29349  16.368   2.973  11.359  0.4478 -0.1524 -0.0677
12876W        W29350   4.489   4.954  14.436  0.0673 -0.0955 -0.2590
12877W        W29351  17.455   6.472  11.878 -0.3752 -0.0715 -0.2338
12878W        W29352   9.255   7.334   0.049 -0.1244  0.0285 -0.4711
12879W        W29353  12.478   0.801   9.930 -0.0713  0.1567  0.0734
12880W        W29354  10.274   3.235   1.284  0.0937 -0.0139 -0.1087
12881W        W29355  17.597   5.690   2.170  0.1592  0.1909  0.0067
12882W        W29356   3.334  15.381   4.639  0.1137 -0.0420 -0.1019
12883W        W29357  15.250  15.196   3.953 -0.0271 -0.1566 -0.0356
12884W        W29358   3.763  10.350   4.065  0.1073  0.0986  0.1415
12885W        W29359   6.720   1.757   2.978 -0.0534 -0.2282 -0.1860
12886W        W29360   5.655   2.248   1.967 -0.0017  0.0352 -0.0666
12887W        W29361  14.745  16.810  12.712  0.4522 -0.4326 -0.0652
12888W        W29362   9.300   1.740   4.464  0.0333  0.0265  0.0251
12889W        W29363  11.210  15.202  12.317 -0.5952 -0.0724  0.1654
12890W        W29364  11.943   2.655   1.245 -0.3376 -0.1988  0.2362
12891W        W29365   5.254   5.676   0.321 -0.4729 -0.2343 -0.0969
12892W        W29366  11.817  17.770  10.854 -0.0953  0.0506  0.0346
12893W        W29367  12.095   0.641   1.461 -0.2032  0.0440  0.1357
12894W        W29368   5.900  15.980   1.943  0.0327  0.3582 -0.3577
12895W        W29369  17.603   2.577   3.674 -0.3767  0.0061 -0.0646
12896W        W29370  13.764   7.018  12.518 -0.0368  0.0283  0.2782
12897W        W29371  17.408   8.239   3.934  0.0425 -0.2535 -0.1058
12898W        W29372   0.632   4.104  11.103 -0.4137  0.0621  0.1268
12899W        W29373   9.722   3.529   0.053 -0.0578  0.3170 -0.2610
12900W        W29374   6.534  18.094   0.979  0.1614  0.0339  0.0834
12901W        W29375   4.715  10.026   3.668  0.1763  0.0613  0.1451
12902W        W29376   0.208   4.265   0.035 -0.0038  0.2758  0.1952
12903W        W29377  16.305   3.073  10.292 -0.1288 -0.3244 -0.2285
12904W        W29378   6.709  10.708  12.209  0.1434 -0.2469 -0.2758
12905W        W29379  16.870  13.890   1.554  0.2338 -0.0111 -0.0619
12906W        W29380  16.452   5.862   9.475  0.2008 -0.0384 -0.0797
12907W        W29381   1.987   4.943  11.511 -0.2587  0.1727  0.0476
12908W        W29382   5.321   7.496   2.964 -0.0983 -0.0356 -0.1440
12909W        W29383   6.977  18.159   5.439  0.1234  0.1517 -0.2481
12910W        W29384  13.703   0.091   0.498 -0.1064 -0.0768  0.1080
12911W        W29385   1.423   2.504   1.544  0.0401  0.1672  0.0608
12912W        W29386   0.596  10.021   4.141 -0.1441 -0.5057 -0.3263
12913W        W29387   7.609  14.775   3.767 -0.2741  0.3808 -0.6687
12914W        W29388  12.042   6.305  14.481 -0.0360  0.0720  0.3709
12915W        W29389  10.727  13.593  13.792  0.3384  0.2750  0.2308
12916W        W29390  10.206  13.279   5.096 -0.0285 -0.1503  0.1874
12917W        W29391  12.444  17.297  11.994 -0.0473  0.1023  0.1351
12918W        W29392  16.601   6.390   3.802  0.2389 -0.1468  0.0643
12919W        W29393  15.480   9.560   3.227  0.0517  0.1830  0.0592
12920W        W29394   6.380  16.527   4.219 -0.2801  0.1712 -0.1264
12921W        W29395   4.163   0.560  12.249 -0.2861  0.0547 -0.3099
12922W        W29396  12.093   9.805  11.998 -0.0206  0.1294 -0.2227
12923W        W29397  11.085   4.599   3.033  0.1007  0.4450 -0.3481
12924W        W29398  10.153   8.240   1.568 -0.3009  0.0607 -0.1791
12925W        W29399  16.187  11.342   5.032 -0.1932  0.2432  0.3826
12926W        W29400  12.924  14.109   4.238 -0.3814 -0.2676  0.0511
12927W        W29401  11.602   4.537  11.637 -0.1936  0.0881  0.1712
12928W        W29402   7.057  15.722  13.469  0.0378 -0.1963 -0.1008
12929W        W29403  11.204  13.478  11.594 -0.2377 -0.4753 -0.1050
12930W        W29404  10.757   8.475  11.966 -0.1391  0.2845  0.0132
12931W        W29405  13.577  13.226   4.067  0.1845 -0.0481  0.0265
12932W        W29406  16.739  12.973  11.552  0.0726 -0.1806 -0.1538
12933W        W29407   1.836  16.862  13.202  0.0042  0.3002 -0.1581
12934W        W29408  10.853  11.843   0.003  0.2059  0.1604 -0.1481
12935W        W29409   8.746   8.926  12.863 -0.1428  0.1948 -0.4124
12936W        W29410   2.079   5.366  10.736  0.0765  0.0174  0.2343
12937W        W29411   0.827  16.349  12.987  0.0835  0.1084 -0.2661
12938W        W29412   5.556  11.232  14.487  0.0707  0.1705 -0.0568
12939W        W29413  16.237   7.911   3.260 -0.2849 -0.0492 -0.1298
12940W        W29414  10.203   7.132   5.283  0.4539  0.1987  0.1472
12941W        W29415  11.105  19.285   3.007  0.3194 -0.1531 -0.0236
12942W        W29416  17.171  16.558  10.220  0.2376  0.1156 -0.0527
12943W        W29417  12.034   3.964   0.022  0.0605  0.0482 -0.0687
12944W        W29418  19.050  16.191  12.958  0.0725  0.2776  0.0709
12945W        W29419  16.907   9.709   0.706  0.2335 -0.2726 -0.1056
12946W        W29420  13.748  17.742   3.761 -0.0515 -0.0080 -0.1246
12947W        W29421   7.864   0.585   3.551  0.0985  0.0630  0.1176
12948W        W29422  15.664   1.967  12.633  0.4407  0.3808 -0.2641
12949W        W29423  16.188  17.198   2.391  0.1643  0.2985  0.1330
12950W        W29424  15.385  13.102   2.249 -0.1271 -0.2486 -0.2138
12951W        W29425   5.046   1.450  12.205  0.0667 -0.0627  0.0497
12952W        W29426  18.814  17.980   5.193  0.2398 -0.1785 -0.1482
12953W        W29427  19.063  10.093  13.681 -0.1333 -0.1448  0.1434
12954W        W29428  14.295  18.652   2.520 -0.1283 -0.1392 -0.2054
12955W        W29429   2.561   3.272   0.583 -0.2823  0.3965  0.1808
12956W        W29430  13.599   6.419   1.675  0.0321  0.0212 -0.3138
12957W        W29431   2.532  12.645   1.818 -0.2633  0.0409 -0.1099
12958W        W29432  14.795   1.185  14.538  0.1133  0.0614 -0.0443
12959W        W29433  12.847  16.366   0.923  0.2407  0.1262  0.3363
12960W        W29434   7.094   5.719   2.601  0.0093  0.0069 -0.0386
12961W        W29435   4.317   3.912   0.984  0.0850 -0.0468 -0.0265
12962W        W29436   2.840   4.230  11.482  0.1213  0.3369 -0.2083
12963W        W29437  16.215   9.976  14.256  0.4972  0.0691  0.1774
12964W        W29438  15.294  17.545   4.206  0.3347  0.1891  0.2177
12965W        W29439   1.178  17.790   4.077 -0.1607 -0.3069 -0.1195
12966W        W29440  16.125   4.945   4.311  0.0472  0.1624  0.2036
12967W        W29441   8.828   7.700  13.458 -0.0491  0.0962 -0.0204
12968W        W29442  15.116   8.172  11.408  0.2324 -0.2029 -0.3285
12969W        W29443  14.685  11.051  13.643  0.1892 -0.0886  0.3124
12970W        W29444  12.373   3.359   9.374  0.2542 -0.0723  0.1001
12971W        W29445  17.512  12.422   9.970  0.0872 -0.1940 -0.1170
12972W        W29446  11.591   7.815   4.121  0.0617 -0.1309 -0.0988
12973W        W29447  18.690  17.987   4.443  0.0435 -0.0833 -0.0224
12974W        W29448   6.290   1.053   0.468 -0.0051 -0.3135  0.0979
12975W        W29449   2.854   3.609   1.299 -0.1232  0.2753  0.2287
12976W        W29450  14.649   7.499   4.458 -0.1161  0.0075  0.1097
12977W        W29451   5.906   3.927   4.618  0.1928  0.1182  0.0908
12978W        W29452  12.807  10.620  12.202  0.2020  0.0396 -0.0120
12979W        W29453  11.560  14.948   4.733 -0.0837 -0.0111 -0.1505
12980W        W29454  15.296   8.140  12.564  0.0806  0.0488  0.1259
12981W        W29455   2.888   5.416   3.625  0.2501 -0.1408 -0.0105
12982W        W29456   8.186   9.674   1.574 -0.2022 -0.1686  0.0655
12983W        W29457   1.115   6.970   2.596 -0.0593 -0.1168 -0.0012
12984W        W29458   7.179   1.613  12.124 -0.0356 -0.1734  0.0893
12985W        W29459   1.851   4.663  10.177  0.0970 -0.1143  0.0369
12986W        W29460   7.826   5.820  13.733 -0.0873  0.0286  0.0536
12987W        W29461  16.388   1.081  12.559 -0.2528 -0.0840  0.0922
12988W        W29462  16.384   8.137  11.831 -0.1505  0.3049 -0.1202
12989W        W29463   2.261  19.479   4.078  0.2354 -0.3109  0.0503
12990W        W29464   5.271   9.609   1.715 -0.3726 -0.1319  0.0591
12991W        W29465   5.753   5.484   0.237 -0.2649 -0.1076 -0.1434
12992W        W29466   3.126   9.293  14.598 -0.2154  0.0996  0.0826
12993W        W29467  13.484   5.139  11.719 -0.0010  0.1266 -0.0440
12994W        W29468   5.145   7.872  11.699 -0.0454  0.2523 -0.0179
12995W        W29469   7.230  15.532  13.893  0.0029  0.1706 -0.0259
12996W        W29470  18.074  15.421  12.568  0.3516  0.0958 -0.1310
12997W        W29471   0.173  13.623   4.442  0.2481  0.0747 -0.1196
12998W        W29472  14.229   2.955  11.626 -0.1675  0.2707 -0.3065
12999W        W29473  17.021   2.787   3.757 -0.0357 -0.0695  0.2864
13000W        W29474   7.107   8.280   9.606 -0.0767  0.2398  0.1716
13001W        W29475   7.765   2.098   5.644  0.0701  0.0609  0.2055
13002W        W29476  10.518   5.447  11.553  0.2653  0.1233 -0.0475
13003W        W29477  13.139   0.562  10.974  0.2785 -0.0744 -0.0505
13004W        W29478   3.069   8.132   2.616 -0.4294  0.1391  0.2120
13005W        W29479  19.359   9.269  13.421  0.1687 -0.0051  0.1198
13006W        W29480  18.217   2.181  14.444  0.1677 -0.1626 -0.0837
13007W        W29481  17.700   5.309  12.377  0.2895  0.1084 -0.1687
13008W        W29482   6.112   1.255  13.387  0.2347  0.2810 -0.0993
13009W        W29483  17.992  16.773   5.259  0.2630  0.0468 -0.0983
13010W        W29484   4.562  17.662  13.159 -0.1180  0.1551 -0.1918
13011W        W29485  14.646  10.713   4.752  0.1828 -0.0042  0.0889
13012W        W29486   7.204  18.075   2.222 -0.0547  0.0550  0.1310
13013W        W29487   8.494   2.393   1.211 -0.1781  0.4061 -0.0604
13014W        W29488   9.595  16.644   3.518 -0.1526  0.1979 -0.4245
13015W        W29489  15.353   7.380   2.167 -0.1632  0.2583  0.1665
13016W        W29490  12.527   8.715  12.383  0.0495 -0.0195 -0.0034
13017W        W29491  10.255  17.953  12.938  0.0124  0.2421  0.2748
13018W        W29492   3.604  18.705   9.940  0.0183  0.0320 -0.1457
13019W        W29493   5.355   9.301  12.714 -0.1928 -0.0786 -0.1572
13020W        W29494  12.017   0.635  11.715 -0.1463 -0.0824 -0.3305
13021W        W29495  16.883   5.127   2.112 -0.0438 -0.0408 -0.1068
13022W        W29496   7.892  18.669   0.477 -0.2611  0.1409  0.0612
13023W        W29497   7.657  19.576   0.247  0.0903  0.0378  0.1015
13024W        W29498   2.449   3.320  13.325 -0.0220  0.0478 -0.1495
13025W        W29499  13.438   5.702  14.426  0.1768  0.1916 -0.3456
13026W        W29500  12.397  18.144   3.624  0.1716 -0.0290  0.0296
13027W        W29501   5.533   1.565  10.910 -0.2350 -0.0360  0.3925
13028W        W29502   3.334  11.459  14.135 -0.4253 -0.0437 -0.2950
13029W        W29503   9.809   2.479  10.099  0.1349 -0.0107 -0.1879
13030W        W29504  16.671  15.538  14.255 -0.0671  0.2664 -0.0849
13031W        W29505   2.822   8.797  11.374  0.1415  0.4535 -0.1844
13032W        W29506  18.914   2.666   0.238 -0.1426  0.0414  0.2117
13033W        W29507   3.042   7.445  12.219 -0.0512  0.1798 -0.2524
13034W        W29508   8.586   9.610   0.555 -0.0324 -0.2218 -0.0455
13035W        W29509   1.364  10.288   2.207  0.1533 -0.1686  0.2781
13036W        W29510   7.492  15.749   1.952  0.1481  0.2018 -0.3999
13037W        W29511   4.201  18.694  14.330  0.2007 -0.0061  0.0295
13038W        W29512   4.356   8.219  12.169  0.1825 -0.1693  0.3901
13039W        W29513   6.478  14.796   0.250  0.2200  0.0110 -0.3346
13040W        W29514  10.528  15.308   1.166 -0.0341  0.3766  0.1606
13041W        W29515   6.745   8.108  12.532  0.2660 -0.0218  0.0412
13042W        W29516   4.160  11.397  11.774 -0.0903  0.3806  0.2014
13043W        W29517   6.616   5.061   1.540 -0.1083 -0.0457  0.1274
13044W        W29518  13.939  12.752   2.963 -0.2221 -0.2682 -0.1249
13045W        W29519  10.270   8.760  13.036  0.1835  0.0500  0.0352
13046W        W29520   9.328  10.341  12.298  0.1013  0.0480 -0.1143
13047W        W29521  12.957  16.898   4.811  0.0488  0.1264  0.5037
13048W        W29522   2.897  15.332  12.333  0.0751 -0.0886  0.1752
13049W        W29523   3.876  19.054   9.846  0.2004 -0.0663 -0.0673
13050W        W29524  14.345  11.839  13.229 -0.1286 -0.1960  0.1407
13051W        W29525   9.643   2.412  14.623  0.2316  0.1154 -0.2237
13052W        W29526  11.856  14.118  13.138  0.1649  0.0930 -0.2502
13053W        W29527   8.968   9.006  11.083 -0.3019  0.3447  0.0881
13054W        W29528  10.479  10.191   0.616  0.3452 -0.0608 -0.1306
13055W        W29529  18.834   8.791  11.118  0.1805  0.0415 -0.2590
13056W        W29530  19.522  13.573   2.449 -0.2333 -0.3153 -0.2519
13057W        W29531   7.073  16.291   0.153  0.1600  0.2475  0.0197
13058W        W29532   4.724  19.171  12.935 -0.1438 -0.0628 -0.0220
13059W        W29533   4.329  11.012  12.419 -0.0394  0.1209 -0.1040
13060W        W29534  16.154   4.515  14.502  0.2523  0.2151  0.2375
13061W        W29535  11.048   3.843   3.295 -0.3050 -0.2637 -0.1464
13062W        W29536  12.684   4.639   4.372  0.2021 -0.2718  0.0109
13063W        W29537   8.347   2.457   5.892  0.0287  0.1215 -0.0106
13064W        W29538  17.584   5.149   2.318 -0.0207 -0.1969  0.3239
13065W        W29539  18.431   5.327   1.899 -0.2264  0.0220  0.0186
13066W        W29540  10.951   0.970   0.002  0.1872  0.3220 -0.0461
13067W        W29541  17.362  14.392  11.876  0.2019 -0.2785  0.1450
13068W        W29542  16.688   5.935   1.613 -0.1053 -0.1862  0.3256
13069W        W29543  16.595  13.032  14.511  0.0083 -0.0234  0.3153
13070W        W29544   8.552  13.914   3.479 -0.1545 -0.0838 -0.0426
13071W        W29545   8.771   7.814   4.547  0.1873  0.1321  0.1292
13072W        W29546   6.529   4.036   2.062  0.1964 -0.1858  0.3721
13073W        W29547   5.114  10.502   9.770  0.0190 -0.0641  0.0260
13074W        W29548   4.906   0.228  10.663  0.4245 -0.1536  0.5463
13075W        W29549   2.857  16.418  12.676  0.2148 -0.1378  0.1940
13076W        W29550  19.608   6.459  12.818  0.0122 -0.3755  0.3120
13077W        W29551   2.037  13.339   2.755 -0.0790 -0.2815  0.3612
13078W        W29552  17.205  19.618   3.018 -0.0121  0.2778 -0.0997
13079W        W29553   5.700  10.298   4.403  0.1392 -0.1599  0.1890
13080W        W29554  16.764  13.425   5.573  0.0918  0.1448  0.1015
13081W        W29555  14.824  11.685  14.270  0.1619 -0.0058 -0.4990
13082W        W29556   7.187   1.958  12.868 -0.1133  0.3353  0.0439
13083W        W29557   2.268  14.215   3.235 -0.0738  0.1613 -0.0649
13084W        W29558   0.303  11.234   4.136 -0.0019  0.3202  0.1387
13085W        W29559   8.727  16.159   0.930 -0.2348 -0.1030 -0.0196
13086W        W29560   5.428   5.802  10.755  0.0891 -0.0556 -0.2335
13087W        W29561   6.079  19.425  11.467 -0.2220 -0.2969 -0.0055
13088W        W29562  10.108   7.366   4.861 -0.2954  0.0015  0.2340
13089W        W29563   0.639   9.058  13.653  0.1060 -0.3254  0.2009
13090W        W29564  17.634   2.074  11.804  0.1176  0.1100 -0.0368
13091W        W29565  12.753   7.516  14.048 -0.3877 -0.1683 -0.0943
13092W        W29566   3.202  13.126   3.844 -0.0004 -0.1085  0.1420
13093W        W29567   5.499   3.289   0.733 -0.3101  0.2673  0.0986
13094W        W29568   6.330  14.937  14.225  0.0234 -0.2674  0.1823
13095W        W29569  11.353   1.800  10.209  0.3582 -0.4003 -0.1730
13096W        W29570   8.982  16.383   1.939 -0.0714 -0.1972 -0.1617
13097W        W29571  16.508  14.266  13.172  0.2860 -0.1792 -0.1530
13098W        W29572  13.352   9.369   2.640 -0.1156  0.1650 -0.1453
13099W        W29573   9.280   4.952   0.468 -0.0469  0.4235  0.0116
13100W        W29574   2.288  16.386  12.682  0.0735  0.1012  0.1018
13101W        W29575   7.284  17.572  13.947  0.0441 -0.4193  0.0742
13102W        W29576  10.162  19.513  13.500 -0.0838  0.1499 -0.3094
13103W        W29577   9.309   8.762   4.237  0.1270 -0.1428 -0.0534
13104W        W29578   0.600  16.141  11.475  0.2787 -0.4079  0.1805
13105W        W29579  13.889   0.026  10.752 -0.2289  0.2960 -0.0463
13106W        W29580  17.161   1.646  13.744 -0.2997  0.3569  0.0573
13107W        W29581  17.563  10.735   3.794 -0.1746  0.0675  0.2071
13108W        W29582   9.856   7.961  13.055 -0.0064 -0.1086 -0.1757
13109W        W29583  16.078   7.941   4.548 -0.0897  0.0143  0.0287
13110W        W29584   6.714   3.625  13.450 -0.2321  0.0699 -0.0630
13111W        W29585  18.435   3.000   5.399  0.3068 -0.4387  0.0297
13112W        W29586   7.339   6.202   1.510  0.2502 -0.2031 -0.0953
13113W        W29587   4.644  17.589   3.627  0.0063  0.0255 -0.4392
13114W        W29588   6.149   1.987   1.961 -0.0504  0.1844 -0.0994
13115W        W29589   0.406   6.220   4.433 -0.2260  0.2831  0.0991
13116W        W29590   1.403  18.046   2.180  0.2207  0.0534 -0.2021
13117W        W29591  18.295  13.954   1.619 -0.1911 -0.2215 -0.3195
13118W        W29592  13.992  16.127   2.740  0.1421 -0.0573 -0.0383
13119W        W29593   7.974  14.529  10.641  0.2824 -0.0863 -0.0749
13120W        W29594   6.872   5.925   2.207  0.0990 -0.0720 -0.2543
13121W        W29595  16.104  14.680  13.543 -0.0933  0.0152 -0.2589
13122W        W29596  16.190   4.098  13.532 -0.1311  0.0346 -0.1465
13123W        W29597   1.464  15.709   4.225  0.0278 -0.4130 -0.2055
13124W        W29598   8.990  18.570  12.574  0.5197  0.2473  0.1927
13125W        W29599  13.893  16.744  11.583  0.0352  0.1283 -0.1275
13126W        W29600  12.516  13.462   2.919  0.3464 -0.1081 -0.1209
13127W        W29601   4.206  16.483   1.843 -0.1633  0.1362  0.1545
13128W        W29602   6.832   3.760   3.590  0.1598 -0.0161  0.2827
13129W        W29603  12.616  18.059  11.556  0.3203 -0.0076  0.0829
13130W        W29604   7.451  18.124   2.894  0.0649  0.0200  0.1819
13131W        W29605   8.774  14.410  12.018  0.0299 -0.2136  0.0833
13132W        W29606  16.576  11.619  14.285 -0.1642 -0.0891  0.4397
13133W        W29607   3.247   1.283   4.958  0.1600 -0.0204  0.0658
13134W        W29608  11.350  19.356   0.911 -0.0326 -0.3357  0.1706
13135W        W29609  11.979   9.036   3.113  0.0895  0.0573  0.2029
13136W        W29610   0.956  16.310  10.216  0.0260  0.1173  0.2909
13137W        W29611   9.896  12.659  13.884 -0.4937 -0.0741 -0.2628
13138W        W29612  12.629  10.342   0.154 -0.3812 -0.1009  0.0319
13139W        W29613  15.439   4.928   2.077  0.3572  0.2445  0.2160
13140W        W29614  16.588   3.921  12.422 -0.1447 -0.1687  0.0416
13141W        W29615   1.342  18.984  12.176 -0.2552 -0.2701  0.0249
13142W        W29616  17.336  14.381  10.946 -0.1033  0.0195  0.3119
13143W        W29617  13.224   5.103   1.544  0.1070  0.0654  0.3005
13144W        W29618  13.031   5.442  11.598  0.0920  0.0827 -0.1192
13145W        W29619   1.782   3.603  12.119  0.1510 -0.1679  0.1979
13146W        W29620  17.828  15.828   4.435  0.0413  0.1899 -0.2643
13147W        W29621   8.423  14.680   5.490 -0.3969  0.0474  0.1672
13148W        W29622   2.303   5.539   4.272  0.0297 -0.0656 -0.1882
13149W        W29623  10.463  18.233  12.570 -0.0101  0.0650 -0.0455
13150W        W29624   4.014  18.218  10.879  0.0140 -0.0985 -0.0494
13151W        W29625  16.479   9.147  14.343  0.0358 -0.0486 -0.0296
13152W        W29626   4.202  17.583   4.433  0.0439  0.2479  0.2710
13153W        W29627   2.509  18.523  10.209  0.0102 -0.2031  0.0542
13154W        W29628  10.488  11.725  14.307 -0.2730  0.2855 -0.2560
13155W        W29629   9.354   6.087   0.374  0.0424 -0.0193 -0.2897
13156W        W29630  16.052  13.977  12.413  0.1832  0.2344 -0.2622
13157W        W29631  16.730   3.020  12.823  0.3310 -0.3174  0.2272
13158W        W29632  15.895   1.045  12.337  0.1527  0.1697 -0.0420
13159W        W29633   0.285  10.429   2.971 -0.1088  0.0335 -0.0808
13160W        W29634   2.232   4.854   2.004 -0.2453 -0.0384 -0.0588
13161W        W29635   5.287  14.365  10.341 -0.0094  0.0588 -0.0932
13162W        W29636   2.843  12.423  14.253 -0.1339  0.2584 -0.2504
13163W        W29637   0.281  10.583   0.260  0.0639  0.3365  0.2082
13164W        W29638  16.818  10.779   2.704  0.1717  0.1567  0.1255
13165W        W29639  15.607  11.943  13.005  0.2445  0.0736  0.1722
13166W        W29640  19.406   6.277   3.811 -0.2714  0.1698 -0.5830
13167W        W29641   5.859  17.570   1.558 -0.1320 -0.0706 -0.1082
13168W        W29642  17.408  11.907  12.401 -0.0363 -0.1552  0.0676
13169W        W29643   8.747  16.720  13.311 -0.0829 -0.2193  0.0648
13170W        W29644   5.819  11.376  13.109 -0.1678  0.3785 -0.1474
13171W        W29645   9.073  18.692   2.245 -0.1768  0.0116 -0.1516
13172W        W29646   7.570   4.811  10.418 -0.2503 -0.1313  0.1182
13173W        W29647   2.132  13.704  13.176  0.1100  0.2806 -0.2066
13174W        W29648   1.658   6.935  13.392 -0.0147 -0.2522 -0.1034
13175W        W29649   4.665  16.782  14.512 -0.3847  0.3356 -0.1851
13176W        W29650   5.869   9.317  12.031 -0.1988  0.1389 -0.6008
13177W        W29651  16.993  17.029  11.594  0.1591  0.1700  0.2574
13178W        W29652  10.915  16.064  11.547  0.0904  0.0627  0.2126
13179W        W29653   8.947   1.607   0.530 -0.0922 -0.0306  0.4605
13180W        W29654  18.939   0.822  11.859  0.1397  0.0418  0.1093
13181W        W29655  14.750   9.832  14.090  0.1548 -0.1026 -0.1789
13182W        W29656  19.000   9.610  13.674  0.0718  0.0411 -0.0017
13183W        W29657   4.886   3.704  10.825 -0.0105  0.0076  0.1581
13184W        W29658   4.130  14.238  10.690  0.1432  0.3356 -0.2250
13185W        W29659   4.814   4.207   3.086 -0.1688  0.3746 -0.1773
13186W        W29660   1.749   2.310   3.268  0.3512 -0.0071 -0.1027
13187W        W29661  19.005  14.070   0.991 -0.1950  0.2806 -0.2609
13188W        W29662   2.613  16.833  12.553  0.0265  0.4042 -0.0224
13189W        W29663  11.040   2.628   3.481 -0.0818  0.0598  0.0394
13190W        W29664  17.982  10.012  13.731  0.0479 -0.0409 -0.0037
13191W        W29665   4.507   1.150  11.160 -0.1622  0.1959 -0.0728
13192W        W29666  10.784  13.482  11.204 -0.3805 -0.2517 -0.2886
13193W        W29667   8.851   9.184   2.813  0.0608 -0.2395  0.0344
13194W        W29668  11.916   1.315   2.138  0.0149 -0.1971  0.0104
13195W        W29669   2.331  12.069  12.557  0.1400  0.3682  0.3279
13196W        W29670   7.956   2.440  12.055  0.0235 -0.2350 -0.2963
13197W        W29671  14.523   0.150   1.307 -0.1282 -0.0526  0.0448
13198W        W29672  11.563   6.489  12.848 -0.0265 -0.1231  0.3347
13199W        W29673   4.609   9.645   9.993 -0.1765  0.0353 -0.0787
13200W        W29674   2.875   8.217  14.085  0.1330 -0.1857 -0.2517
13201W        W29675   6.666   9.785  12.339  0.0616 -0.2802  0.2962
13202W        W29676  10.349   7.795   3.478 -0.0946 -0.0829  0.1134
13203W        W29677   8.192   6.795   1.598  0.0480  0.1201 -0.2135
13204W        W29678  19.524   0.313   2.031  0.1924  0.1073 -0.1327
13205W        W29679   7.205  12.107  11.925 -0.3788  0.0816 -0.3201
13206W        W29680  12.243  16.460  12.729  0.0010 -0.0356  0.2037
13207W        W29681   4.644   0.462  12.135  0.1061 -0.1421 -0.1084
13208W        W29682  12.084   7.141  11.840  0.0233  0.1687  0.2091
13209W        W29683   4.042  14.651   2.353 -0.3702 -0.2400  0.0426
13210W        W29684   8.453  16.000   0.535  0.3695  0.2032  0.0169
13211W        W29685  10.468  14.061  14.643 -0.1215 -0.2232  0.0913
13212W        W29686   7.711   6.741   4.760  0.0190 -0.0241  0.3093
13213W        W29687  15.374  11.262   5.130  0.0899 -0.3042  0.1128
13214W        W29688   4.825  13.734  12.058  0.0341  0.0811 -0.0703
13215W        W29689  13.813  12.166   4.656  0.3294 -0.2528  0.0060
13216W        W29690  19.413   6.956  12.039 -0.0416 -0.2772 -0.0053
13217W        W29691   0.746   1.215   2.150 -0.0967 -0.1133 -0.1236
13218W        W29692  18.238   7.936   0.516  0.0753  0.2640  0.1969
13219W        W29693   0.264   1.613  13.495 -0.4281  0.1630  0.1483
13220W        W29694  12.984  17.367   0.527 -0.3190 -0.0074 -0.2564
13221W        W29695   7.617  19.048  14.090 -0.0931 -0.0076  0.0099
13222W        W29696   5.537  11.214   2.628  0.2005 -0.0729 -0.0125
13223W        W29697   1.113   8.161  11.964  0.2509  0.2793 -0.1418
13224W        W29698  11.987  18.468   2.858  0.3649 -0.4467  0.0946
13225W        W29699  13.870  14.408   3.181  0.0162  0.0438 -0.1676
13226W        W29700  12.483  13.021   5.512  0.2554  0.0573 -0.0593
13227W        W29701   2.282  14.571  12.969 -0.1013  0.1693  0.3070
13228W        W29702  12.623  19.083  11.634 -0.1500 -0.1784  0.1097
13229W        W29703   2.812  17.606   2.685  0.4698  0.1575  0.2347
13230W        W29704   7.925  15.086  13.899 -0.0825 -0.0105  0.2437
13231W        W29705   6.317  13.442   3.484 -0.1635 -0.1353 -0.1018
13232W        W29706   1.733   7.889   2.106  0.1391 -0.3156 -0.2684
13233W        W29707  17.968   0.068  11.154  0.2549  0.0895 -0.0620
13234W        W29708  17.306   1.456  10.996 -0.3328  0.2314 -0.1619
13235W        W29709  18.362   8.703   0.839  0.2884 -0.3003  0.2619
13236W        W29710  11.370   5.278   1.677 -0.3794 -0.1233  0.1589
13237W        W29711  14.126  19.440   1.268 -0.3215 -0.1489  0.0688
13238W        W29712  10.656  17.982   4.523 -0.0097 -0.0712  0.2728
13239W        W29713  17.633   4.481  13.810  0.2382 -0.0140  0.4613
13240W        W29714   7.899   1.159  13.019 -0.0016 -0.5627 -0.0925
13241W        W29715   6.858  16.886  10.240  0.0268 -0.1971 -0.0517
13242W        W29716   0.376   2.839  14.354 -0.1386  0.1126 -0.1320
13243W        W29717   1.500   7.428  13.591  0.1764  0.2513 -0.1034
13244W        W29718  12.919  13.068  14.008 -0.0054 -0.0313  0.0306
13245W        W29719   5.986  11.912   1.137 -0.0206 -0.2482 -0.4029
13246W        W29720  11.632   7.087  11.551 -0.3140  0.0711 -0.0213
13247W        W29721   7.741  19.357  10.669 -0.0533  0.0033 -0.1078
13248W        W29722   1.705  10.991   2.025  0.0694 -0.0050  0.0467
13249W        W29723  16.608   3.106   1.775 -0.1498 -0.1153 -0.3141
13250W        W29724  10.049   3.704  13.289 -0.0298  0.1042 -0.3108
13251W        W29725   5.230   2.057  12.386 -0.1999 -0.0543  0.4775
13252W        W29726  14.919   6.838   4.557  0.3073 -0.2316  0.0634
13253W        W29727   2.965  15.815   1.913 -0.1074 -0.2555 -0.1552
13254W        W29728   6.962   7.262   4.456 -0.1166  0.2706 -0.1553
13255W        W29729  11.071  13.115   0.693 -0.0478  0.0447  0.0278
13256W        W29730   9.254   0.956  14.236  0.1301  0.5056 -0.0527
13257W        W29731   0.466   9.177  10.639  0.1349 -0.0883 -0.2233
13258W        W29732  15.548   6.759  13.780 -0.0601  0.0040  0.0250
13259W        W29733  15.484  15.554  13.525  0.1104  0.2656  0.3467
13260W        W29734  15.120   0.539  11.819 -0.1519 -0.0419  0.3410
13261W        W29735   2.849   5.802   1.862  0.0287  0.0712 -0.0827
13262W        W29736  10.064  14.678  11.651  0.0077 -0.1242  0.1070
13263W        W29737  12.369   4.051  13.962  0.2791 -0.5244  0.1215
13264W        W29738   9.841   4.988   3.272  0.1983 -0.1692  0.2821
13265W        W29739  11.228   1.700   1.647 -0.2593 -0.1118  0.0012
13266W        W29740  11.927   8.905  13.359 -0.0432  0.1930 -0.1256
13267W        W29741  10.422  10.119   0.137 -0.1958 -0.0397  0.1603
13268W        W29742   4.210   0.622   3.617  0.0362 -0.0843 -0.1915
13269W        W29743  13.639   4.117   9.950  0.1626  0.0128 -0.1927
13270W        W29744   3.312   4.479  10.373  0.1699  0.2166  0.1750
13271W        W29745  12.517   7.764   1.727 -0.1769 -0.0802  0.3007
13272W        W29746  10.533  16.155   3.607  0.3294 -0.3887  0.2494
13273W        W29747   9.109   5.141   4.131  0.1645  0.2585  0.3329
13274W        W29748  14.922   2.552  13.336  0.0214 -0.0714 -0.2680
13275W        W29749   3.078  11.724  10.675 -0.0151  0.1486  0.1907
13276W        W29750  10.438   5.804  12.046  0.0170 -0.0594  0.0740
13277W        W29751   8.356  17.609   3.356 -0.2409 -0.1729 -0.2973
13278W        W29752  13.577  14.768   2.406 -0.3252  0.2629  0.1766
13279W        W29753  18.621   0.456  12.362 -0.0258 -0.1801 -0.3343
13280W        W29754  10.831  18.625   5.481 -0.2488 -0.1614  0.1392
13281W        W29755  13.491   6.528  12.595 -0.0850 -0.3594 -0.1150
13282W        W29756  13.964   0.571   0.665  0.0420  0.3550 -0.1138
13283W        W29757   1.021  17.260   2.385 -0.0673 -0.0945  0.0041
13284W        W29758  12.388  12.456   0.133  0.2534 -0.1811 -0.1697
13285W        W29759   5.509   3.339   4.107  0.3285 -0.4121  0.3729
13286W        W29760  19.375   5.911  10.884 -0.1645 -0.0013 -0.1654
13287W        W29761   1.296   3.438  14.313  0.1026  0.0539 -0.0810
13288W        W29762  13.010   3.088   9.790  0.1898 -0.2480  0.2732
13289W        W29763   3.360   7.805  12.299 -0.0116 -0.0012 -0.0357
13290W        W29764  15.950   4.748   2.378  0.1554 -0.2133  0.3923
13291W        W29765  18.276  10.052   0.788  0.0336  0.1152 -0.0364
13292W        W29766  18.969  10.384  11.573  0.0613 -0.1507 -0.1338
13293W        W29767  14.549   5.012   0.175 -0.1372 -0.3293  0.2218
13294W        W29768  12.195  13.445   0.292 -0.2879  0.1537 -0.1292
13295W        W29769   2.215   7.088   2.605 -0.0739  0.0258  0.0161
13296W        W29770   7.511   3.832  12.841 -0.2124  0.4087  0.0972
13297W        W29771  14.102  18.599  14.086 -0.0275  0.3264  0.2419
13298W        W29772  10.948   0.218  14.056  0.0573 -0.1820  0.1394
13299W        W29773  17.370  17.991   1.670 -0.0535  0.0945 -0.1137
13300W        W29774   4.779   7.526  13.280 -0.0353 -0.0489  0.0532
13301W        W29775   9.590   2.428   0.462  0.2862  0.0509 -0.0977
13302W        W29776  11.893   3.682   4.029  0.2726  0.0598 -0.1945
13303W        W29777  10.259  15.144  12.744 -0.1261 -0.0054 -0.0784
13304W        W29778  12.308  17.946   1.275 -0.1810  0.3080 -0.1729
13305W        W29779   8.164   1.156   3.588  0.0318  0.1353  0.0838
13306W        W29780  11.394   3.681  11.945  0.0652  0.2576  0.1696
13307W        W29781  18.446  18.249  11.353 -0.0780 -0.0083 -0.1737
13308W        W29782  17.465   7.858   1.192 -0.0966 -0.1194  0.2857
13309W        W29783   7.129   2.020   2.805  0.2029 -0.1819 -0.1381
13310W        W29784   3.794   3.415   3.518 -0.1382 -0.1404 -0.1039
13311W        W29785  13.614   8.873   0.482  0.2854 -0.1203  0.1646
13312W        W29786   8.905  17.740   1.182  0.2483 -0.1786 -0.1599
13313W        W29787  19.168   1.500   4.222  0.1081 -0.0829  0.0238
13314W        W29788  16.688  14.942   4.949  0.2747 -0.1986  0.1563
13315W        W29789  12.154  13.811   2.863 -0.0360 -0.0639  0.1040
13316W        W29790   1.781   7.648  14.568 -0.1674  0.0194 -0.1613
13317W        W29791  12.187  16.041   3.147  0.0670  0.3247  0.1222
13318W        W29792  16.007  14.298  10.967  0.2295 -0.1224  0.3378
13319W        W29793  13.384   1.126  12.984  0.0572  0.1165  0.2585
13320W        W29794  10.285   2.904   3.866  0.2170 -0.0357  0.0082
13321W        W29795  12.618   9.582  11.192 -0.2357  0.2482  0.0983
13322W        W29796   8.006  13.568   2.730 -0.2028  0.0400  0.1060
13323W        W29797   4.794   8.576   5.352  0.3529 -0.1038 -0.3745
13324W        W29798  16.347   6.240  13.741  0.0748 -0.3074  0.0110
13325W        W29799   4.703  13.779   4.277 -0.3253 -0.0162  0.1450
13326W        W29800  13.052  19.305   1.679 -0.1209 -0.1733 -0.0759
13327W        W29801  16.777   1.820  12.130 -0.0407  0.0588  0.0830
13328W        W29802   0.959   3.532  12.800 -0.2778  0.2698  0.1192
13329W        W29803   6.385   9.870  11.852  0.3457  0.1929  0.0146
13330W        W29804   6.306  10.197   5.072  0.2401 -0.1306 -0.1231
13331W        W29805   9.572   1.393   3.509 -0.1671 -0.1502 -0.0141
13332W        W29806  19.076  16.613  11.000  0.1025 -0.2880  0.0351
13333W        W29807  15.369  18.986   0.540  0.2541 -0.1766  0.1791
13334W        W29808  12.774  18.386   2.126  0.0587 -0.1033 -0.2485
13335W        W29809  18.194  13.023   2.018 -0.2588 -0.0666 -0.1170
13336W        W29810  18.802   6.437   3.752  0.0034 -0.1325  0.0164
13337W        W29811  11.269  12.801   2.743  0.0019 -0.0268 -0.0159
13338W        W29812   6.321  14.459  14.409  0.1671 -0.1355 -0.0900
13339W        W29813  17.144  10.043  13.816  0.1898  0.1439 -0.1207
13340W        W29814   6.270   1.590   2.257 -0.0454  0.2236 -0.1102
13341W        W29815  11.215   0.894   2.796 -0.2042  0.1338  0.1752
13342W        W29816  14.439   0.632   0.992  0.0285  0.1851 -0.0929
13343W        W29817  14.210   8.090   4.220 -0.0980 -0.2007  0.2350
13344W        W29818   6.719   7.750   2.937  0.0831  0.1554  0.2775
13345W        W29819   2.097  10.052   9.143  0.0220 -0.0767  0.1932
13346W        W29820  15.398  16.581   0.900 -0.1299  0.4155 -0.0047
13347W        W29821  16.201   1.931   1.230  0.0850  0.0326 -0.0248
13348W        W29822  18.123   2.988   0.398  0.0414  0.2139  0.1236
13349W        W29823  13.193   0.650  10.447  0.1691 -0.3277 -0.0375
13350W        W29824   6.729   7.715  12.845 -0.3555  0.1099 -0.0363
13351W        W29825   6.629   9.062   2.297  0.0302 -0.0070  0.1174
13352W        W29826  14.307   6.995  13.965  0.2441 -0.1568  0.1744
13353W        W29827   4.043  17.957  12.378 -0.2601 -0.5792 -0.0646
13354W        W29828   4.499  13.517  11.024 -0.2224 -0.2138  0.1625
13355W        W29829  14.752  16.326   2.422  0.0498 -0.2540 -0.2105
13356W        W29830   1.957   0.152   2.044  0.1056  0.2805 -0.0768
13357W        W29831   3.187  11.962   0.311 -0.1220  0.1132  0.1308
13358W        W29832  10.179   4.399  10.221  0.3100  0.1109  0.1790
13359W        W29833   3.950  17.746  14.640 -0.0426  0.0373 -0.0187
13360W        W29834  15.265  12.768  13.483  0.0282  0.0416  0.0726
13361W        W29835  15.301  10.274   1.580 -0.0959  0.0557  0.0286
13362W        W29836  18.807  15.665   3.458 -0.0266 -0.1409 -0.0908
13363W        W29837  16.147   7.742  11.548 -0.1208 -0.1015  0.0607
13364W        W29838   2.259  11.011  13.526  0.1515 -0.3886  0.1742
13365W        W29839  14.341   6.133   5.171  0.5185 -0.0712 -0.0991
13366W        W29840  19.057  19.145  13.925  0.2037 -0.0430  0.0111
13367W        W29841  14.810  12.878   2.786 -0.1841  0.0754  0.1459
13368W        W29842   2.997   6.782  14.552  0.0110 -0.2860 -0.2802
13369W        W29843   6.470  14.573  11.235  0.1717  0.3551  0.1125
13370W        W29844   1.112   4.344  13.971  0.4287 -0.2252 -0.0558
13371W        W29845  10.183   8.869   3.786  0.0256 -0.4955  0.2768
13372W        W29846   7.038   2.845   3.427  0.4018  0.0021 -0.0780
13373W        W29847   0.235   2.645  12.125  0.1558  0.1238  0.0320
13374W        W29848   9.185   1.619  11.086  0.3017 -0.0323 -0.2161
13375W        W29849   5.390  19.042  10.262  0.2183  0.1996  0.3398
13376W        W29850   4.878   3.704   9.589  0.0670  0.1523  0.2039
13377W        W29851  16.300   1.063  12.023 -0.0912  0.1209  0.1276
13378W        W29852  14.652   1.765  11.296 -0.0667 -0.1134 -0.2305
13379W        W29853  15.482   0.154  10.390 -0.1521 -0.1810  0.0039
13380W        W29854  15.214  15.239   5.374  0.2988  0.1116  0.0101
13381W        W29855   8.994   9.452  11.358 -0.1671 -0.1773 -0.1443
13382W        W29856  17.862  12.991  13.704 -0.0349  0.2294  0.1954
13383W        W29857   1.729   3.082  10.164 -0.1518  0.2533  0.0965
13384W        W29858   4.681   3.129   3.850 -0.1159 -0.0341 -0.1720
13385W        W29859   8.546  16.119   3.080  0.0339  0.1487 -0.0296
13386W        W29860  13.018  16.539   2.080 -0.1691  0.1918  0.1672
13387W        W29861  14.850   6.127   1.984 -0.2199  0.1265 -0.1457
13388W        W29862   7.116  18.575   0.290 -0.3617  0.0122  0.0812
13389W        W29863   3.840   3.785  12.849 -0.0138 -0.0299 -0.0004
13390W        W29864   3.754  11.248   3.829 -0.4084  0.1718 -0.5040
13391W        W29865  13.030   3.575   2.917 -0.3755  0.1745 -0.1670
13392W        W29866  19.487   6.785   3.909 -0.2102  0.2830  0.2111
13393W        W29867  10.850   2.783   1.945  0.4140  0.0235 -0.0725
13394W        W29868  12.752   1.851  10.402 -0.0783 -0.1486 -0.0196
13395W        W29869  10.730   8.404   0.304 -0.0539 -0.4774  0.0217
13396W        W29870   7.645  15.784  10.919  0.0273  0.0255  0.3701
13397W        W29871  14.248   7.554  14.048  0.2974 -0.1066  0.2594
13398W        W29872   3.210   6.464   2.592  0.3439  0.1626 -0.2070
13399W        W29873   8.325   7.225  11.199 -0.0103 -0.0491 -0.0663
13400W        W29874   7.941  18.761   5.300  0.0049  0.3578  0.1070
13401W        W29875  11.053   1.749   2.790 -0.1190  0.2173  0.0626
13402W        W29876  16.736  17.456  11.268  0.0734  0.1979 -0.0708
13403W        W29877   7.012  14.322   3.049  0.1032 -0.2232  0.3737
13404W        W29878   9.358  16.457  12.688 -0.0302 -0.0855  0.1488
13405W        W29879   3.974  17.952  13.550 -0.4241 -0.1061 -0.3837
13406W        W29880  10.278   8.926   1.173 -0.1073  0.1058 -0.1783
13407W        W29881   4.689  13.429   2.960  0.1571  0.1462 -0.1067
13408W        W29882  10.858   2.401   3.068  0.0674  0.2776 -0.1052
13409W        W29883  18.508   0.180  11.089  0.0480  0.0925  0.0334
13410W        W29884   4.218   2.083  13.855  0.1908  0.1726  0.0790
13411W        W29885  17.902   4.995   0.851  0.0242  0.3868 -0.1135
13412W        W29886  15.186   8.014   1.542 -0.5312  0.3111 -0.3019
13413W        W29887   5.777   1.690   1.100 -0.1406 -0.2466  0.2059
13414W        W29888   4.027   9.624   3.008 -0.1112 -0.1066 -0.1958
13415W        W29889  17.952   7.943  14.346 -0.0212 -0.1278  0.0439
13416W        W29890  13.228   2.351   3.165 -0.1023  0.1395  0.4793
13417W        W29891   7.849   4.387  13.508 -0.0309 -0.0897 -0.1159
13418W        W29892  10.980  17.631  13.077  0.1330  0.2793  0.2078
13419W        W29893  18.005  10.774   2.358  0.0334 -0.1618  0.0833
13420W        W29894   9.566   3.485  13.488  0.3191 -0.0919  0.2151
13421W        W29895  10.291  12.455   0.511 -0.1089  0.3090 -0.3679
13422W        W29896  12.195   3.601   0.970 -0.0053  0.1783  0.2356
13423W        W29897   2.422   2.133   0.802 -0.0738  0.0461 -0.1408
13424W        W29898  11.747   2.400  10.952  0.2085  0.1186 -0.2479
13425W        W29899   2.136   7.900   0.757 -0.4607  0.1108 -0.0026
13426W        W29900   2.298   5.908  13.015  0.0640 -0.2393 -0.1056
13427W        W29901   3.237   4.657   5.195 -0.0967 -0.0682 -0.1293
13428W        W29902   3.599  15.642  12.008  0.0739 -0.1085  0.3203
13429W        W29903  10.071  19.417  12.860  0.0203 -0.1618 -0.1411
13430W        W29904   3.818   6.979   0.063  0.1287  0.0461  0.0124
13431W        W29905  17.008  18.862   4.836  0.1340  0.3796  0.0380
13432W        W29906  13.974   4.554  13.114 -0.2307  0.0535  0.1287
13433W        W29907   1.789   9.817  12.586 -0.2565 -0.0609 -0.2557
13434W        W29908   7.381   4.547  13.764  0.0780 -0.1838  0.2438
13435W        W29909   6.002  17.373   2.003  0.2091 -0.1982 -0.4031
13436W        W29910  15.941  13.252   2.262  0.2435  0.0977 -0.1943
13437W        W29911  12.958   7.659   2.501 -0.0720  0.1061  0.1755
13438W        W29912  14.744  15.577   2.547 -0.1105  0.1933  0.1603
13439W        W29913  17.631   7.701  12.483  0.0337  0.2230  0.2067
13440W        W29914  17.097   0.630   1.358 -0.0292  0.1132  0.1149
13441W        W29915  13.679   3.058   2.507 -0.1603 -0.1175  0.2053
13442W        W29916   8.746   4.969  13.416 -0.0491  0.0239  0.0700
13443W        W29917   4.627  12.458   9.781 -0.0244 -0.3092  0.2122
13444W        W29918  14.146   6.830  13.503 -0.3481  0.1628  0.0027
13445W        W29919  18.042  14.693   5.938  0.0374  0.1812 -0.0775
13446W        W29920  16.527   3.229   3.107 -0.4508  0.0602  0.3039
13447W        W29921  12.845  17.042   3.362 -0.0496 -0.0181 -0.3185
13448W        W29922   3.973   8.632   4.858  0.1127  0.2798 -0.1375
13449W        W29923   7.029   3.458   2.664 -0.0159  0.0933 -0.0340
13450W        W29924  18.161  15.125   0.575  0.1089 -0.2000 -0.4595
13451W        W29925  16.100   7.289  12.354  0.1302  0.1255  0.4634
13452W        W29926   6.699  16.186  13.895 -0.1831  0.0764 -0.1104
13453W        W29927   5.899   4.524   3.456  0.2351  0.0492  0.1453
13454W        W29928   8.917   5.493  13.259  0.1674  0.2409 -0.1735
13455W        W29929  17.587   9.667   0.027 -0.1124 -0.0517 -0.2430
13456W        W29930   2.243   1.831  10.618 -0.0270  0.0953 -0.0779
13457W        W29931   3.405  10.835   4.876 -0.0887  0.0483  0.3439
13458W        W29932  10.704  18.034   1.217  0.1103  0.1545  0.2412
13459W        W29933  17.064   2.949   1.919  0.0819  0.4713  0.0956
13460W        W29934   1.333  10.021  12.504 -0.0903  0.2653 -0.0873
13461W        W29935  10.900   9.928   1.514 -0.2137 -0.0880  0.0369
13462W        W29936  16.874  17.752  12.094 -0.1045  0.0752 -0.0491
13463W        W29937   6.412  17.821   4.660  0.0828 -0.0601 -0.1485
13464W        W29938   2.037   1.711  12.478 -0.0756  0.3718 -0.1040
13465W        W29939   8.860  11.561   3.542  0.0030  0.3080  0.1699
13466W        W29940   0.633   6.113  13.443  0.1185  0.2055 -0.2255
13467W        W29941  19.027   4.734   9.407  0.0203 -0.2800 -0.3637
13468W        W29942   2.481  16.243   2.296 -0.1617  0.2883 -0.0893
13469W        W29943   0.654   1.972  12.728 -0.2938 -0.2390 -0.3606
13470W        W29944   4.452  15.141   1.243 -0.2811  0.0452  0.1524
13471W        W29945   7.519  17.350   5.260  0.2386  0.0959  0.1164
13472W        W29946   3.536   6.782   3.949  0.0433 -0.1321 -0.0541
13473W        W29947  14.525   5.640  11.479  0.0195 -0.2216  0.3328
13474W        W29948   0.982  16.153   4.607  0.0844 -0.0533 -0.1639
13475W        W29949   9.532  10.017   0.719  0.5083 -0.0302  0.1564
13476W        W29950   3.519  10.453  10.313  0.2763 -0.0798  0.1835
13477W        W29951  17.447   2.158   1.375 -0.2974  0.0556  0.4036
13478W        W29952  11.355  10.588  11.234  0.0296  0.0073 -0.0288
13479W        W29953  17.801   2.920  13.344  0.1829 -0.0448  0.3074
13480W        W29954  17.279  10.783  10.802 -0.0797  0.1199  0.0728
13481W        W29955   0.097   9.714   2.275  0.0879  0.0160  0.2157
13482W        W29956   4.297  11.700   0.379  0.1411  0.2077  0.0254
13483W        W29957  18.472   6.145  13.464 -0.2673 -0.0893 -0.0254
13484W        W29958   6.463   2.386  10.013 -0.0544 -0.1450  0.0673
13485W        W29959  17.949   0.472  11.990  0.1477  0.4278 -0.0991
13486W        W29960   8.973   3.437  10.634 -0.0794  0.0388 -0.0312
13487W        W29961  18.477  15.557  14.385  0.3873 -0.4462  0.1121
13488W        W29962   6.736   2.128   5.106  0.0380 -0.1881  0.1109
13489W        W29963   6.211  17.532  13.787 -0.1013  0.0146 -0.1903
13490W        W29964  15.890  18.077  14.432  0.0421  0.2876  0.3978
13491W        W29965   4.345  17.195  10.673 -0.2478  0.0747 -0.0237
13492W        W29966  10.405   9.736  12.785 -0.1602  0.1103 -0.2912
13493W        W29967  19.545  10.037  12.954  0.0508  0.2363 -0.0994
13494W        W29968  15.939  11.735  11.535  0.0687 -0.3656 -0.0646
13495W        W29969  13.470  13.408  12.296  0.1823 -0.0264 -0.2262
13496W        W29970  17.053  14.689   0.540  0.1803 -0.1050  0.0148
13497W        W29971   4.510  14.526  10.536 -0.3070  0.1854  0.3265
13498W        W29972   8.411  12.617  10.637 -0.2742 -0.0512  0.0384
13499W        W29973  18.021  14.609   2.303 -0.2076 -0.0614  0.2903
13500W        W29974  17.083   4.588  10.508 -0.1171  0.0727  0.1338
13501W        W29975   3.386   1.300  10.989 -0.2990  0.1657  0.0272
13502W        W29976  10.211   2.064  12.906  0.1625 -0.0378 -0.1045
13503W        W29977  11.715  10.757   0.509 -0.0620  0.0192 -0.0829
13504W        W29978   7.699   0.015  11.277 -0.2011 -0.2880  0.0108
13505W        W29979  14.995  19.607   1.016  0.0194 -0.1767 -0.1192
13506W        W29980   2.283   7.960  11.141 -0.2254  0.1477  0.3232
13507W        W29981   1.603  19.419  12.435 -0.2297  0.0071  0.1220
13508W        W29982  16.585   3.885  11.387  0.1098  0.2129  0.0851
13509W        W29983  18.605   9.923   3.809 -0.0003  0.0536 -0.2043
13510W        W29984   1.056   9.500  12.339  0.0784  0.1504 -0.0734
13511W        W29985  15.221   6.771   3.763  0.1063 -0.0164  0.2483
13512W        W29986   5.888  12.616   1.839 -0.2558 -0.0047  0.2667
13513W        W29987  17.380  12.446  12.627 -0.1677 -0.4256 -0.0478
13514W        W29988  15.754  14.147  13.751 -0.0494 -0.0905  0.0150
13515W        W29989  11.200   8.690  14.588  0.0283 -0.1526 -0.0075
13516W        W29990  14.778  10.590   5.612  0.3645  0.2596 -0.3398
13517W        W29991   5.873   2.378   4.545 -0.2601  0.0101  0.0198
13518W        W29992   7.959   9.843   0.612 -0.0625  0.0106  0.1874
13519W        W29993  12.792  17.542   1.968  0.0018 -0.1864 -0.1795
13520W        W29994  11.312  18.664   0.647 -0.0122 -0.3371  0.1324
13521W        W29995   6.031   1.872   3.679  0.0615 -0.1081 -0.1849
13522W        W29996   3.551   9.245  14.357  0.2112 -0.3369  0.1735
13523W        W29997  15.303  17.618  13.094  0.0597  0.2003  0.0432
13524W        W29998   9.677   2.069  12.375 -0.0360  0.0817 -0.0168
13525W        W29999   7.865  15.249   0.940 -0.2196 -0.1053 -0.2813
13526W        W30000  13.762  16.347   0.837 -0.1301  0.0919 -0.2076
13527W        W30001   9.388   5.668  14.418 -0.0313 -0.0208  0.1835
13528W        W30002   6.449   3.340  11.645 -0.3875  0.0372 -0.0729
13529W        W30003  15.898   3.384  10.202  0.1745 -0.0408 -0.1715
13530W        W30004  18.939   1.287  11.722 -0.2219 -0.1049  0.0855
13531W        W30005  19.396  18.622  14.535  0.1728  0.0468  0.1025
13532W        W30006  15.310  14.701   2.007  0.1668  0.3681  0.0685
13533W        W30007   7.984   7.544   2.293  0.0382 -0.2972  0.0429
13534W        W30008  17.813   5.755  13.116 -0.0042  0.0866 -0.1607
13535W        W30009  18.292   6.493   1.304 -0.1751  0.2204  0.2216
13536W        W30010  10.112   2.621   5.283  0.0637  0.0744  0.0209
13537W        W30011   2.425   0.827   2.990 -0.1063 -0.0063 -0.0992
13538W        W30012   0.686   4.726  12.385  0.0143 -0.5336  0.0124
13539W        W30013  13.818   2.035   4.652  0.1085  0.0642  0.2294
13540W        W30014   0.765  11.210   5.477 -0.0068 -0.0759  0.2031
13541W        W30015   3.800   3.341  10.763 -0.0934 -0.1868 -0.2913
13542W        W30016  19.592   1.340   0.968 -0.0014 -0.8202 -0.1178
13543W        W30017   6.095  12.822  10.793  0.1938 -0.1395 -0.0922
13544W        W30018   0.485   7.764  14.076  0.3124  0.1948 -0.3523
13545W        W30019  15.060  14.041   0.507 -0.1039  0.0159 -0.0316
13546W        W30020   8.175   3.131  10.480  0.1571  0.1250 -0.1677
13547W        W30021  15.726   7.590   0.850 -0.0782  0.1661  0.2428
13548W        W30022   7.631  18.952   2.858 -0.1566  0.3958 -0.1900
13549W        W30023   6.498   0.945  14.232  0.0293  0.0683  0.1170
13550W        W30024   3.611   9.540   9.748 -0.0478  0.1629  0.0825
13551W        W30025  18.357   2.161  13.358  0.1259  0.1691 -0.2188
13552W        W30026   9.953  11.699   4.267 -0.2639  0.3323  0.2026
13553W        W30027  18.786   0.840   2.477 -0.0976 -0.0251 -0.0797
13554W        W30028  19.338   7.413  11.810  0.0752 -0.0925 -0.2330
13555W        W30029   6.155   6.880   5.530  0.2136 -0.0122  0.1676
13556W        W30030  11.810   6.716  11.861 -0.2868  0.1264 -0.2902
13557W        W30031   8.749   8.203   2.380  0.0702  0.0166 -0.3194
13558W        W30032   4.249   1.432  10.846  0.1477 -0.1093 -0.2597
13559W        W30033   4.315  12.298  14.502  0.0385  0.0388 -0.0333
13560W        W30034   8.869  18.628   4.112  0.0140 -0.2876  0.0158
13561W        W30035   7.697   1.797  12.160 -0.0193  0.0836 -0.1304
13562W        W30036  18.645   3.354   2.086 -0.0929  0.0063  0.4721
13563W        W30037   3.378   8.331   0.500  0.1565 -0.0682  0.1038
13564W        W30038  12.964  15.604  11.262 -0.1046  0.1384 -0.2313
13565W        W30039  15.409   2.208  12.242  0.0768 -0.0316  0.0243
13566W        W30040   9.382  15.699   4.523  0.1341  0.0817 -0.0170
13567W        W30041   7.822  19.423   0.714 -0.0574 -0.2724 -0.3116
13568W        W30042   4.719   0.973   3.736  0.2685 -0.1293 -0.2735
13569W        W30043   0.516   0.815  12.142 -0.0781  0.0585  0.1621
13570W        W30044  17.174  18.934  13.975  0.0139 -0.0932  0.4238
13571W        W30045  19.339   3.282  10.432  0.0384  0.2644 -0.1734
13572W        W30046   3.557   5.546   3.232 -0.0939  0.0913  0.3781
13573W        W30047   3.399  13.610  12.696 -0.1873 -0.4268  0.3164
13574W        W30048  14.272   5.648   5.034 -0.0578  0.2264  0.0750
13575W        W30049   6.424   1.112   2.259  0.0675 -0.0350  0.2115
13576W        W30050   9.002  18.583   1.492  0.1996  0.2538 -0.0774
13577W        W30051   3.875  13.763   2.438 -0.2012 -0.1820 -0.2226
13578W        W30052  15.476   0.999   2.537 -0.3164  0.0338 -0.1107
13579W        W30053  13.720  14.289   4.790 -0.2673  0.0282 -0.1043
13580W        W30054   1.619  16.458   4.490 -0.0894 -0.0400 -0.2873
13581W        W30055   3.117   7.790   3.587  0.2578 -0.0264  0.0397
13582W        W30056  19.471  10.189  13.440 -0.2875  0.0536  0.1428
13583W        W30057  15.210   2.621   0.685 -0.0911  0.0617 -0.3671
13584W        W30058   9.951   4.635  11.560 -0.3573  0.0175  0.2385
13585W        W30059  12.932   4.844  13.889 -0.1818 -0.1533  0.2411
13586W        W30060  19.044   1.918  11.813 -0.1216 -0.0998  0.0803
13587W        W30061   7.062   2.086  11.928  0.1915 -0.0400 -0.3009
13588W        W30062   5.967   6.922  10.046  0.0000 -0.3674  0.1670
13589W        W30063  12.336   1.412  10.432 -0.1245 -0.1934  0.1310
13590W        W30064  14.304   0.490  13.442  0.3752 -0.0789 -0.1685
13591W        W30065  18.637  17.049  10.844  0.3156 -0.1884  0.1055
13592W        W30066   6.272  19.549   2.187  0.2427  0.0070  0.1425
13593W        W30067  10.078   4.481  12.039  0.4264 -0.1485 -0.0113
13594W        W30068  10.634   4.195   1.649  0.1849  0.1350 -0.2186
13595W        W30069  10.725   0.780  12.797 -0.0187  0.0459  0.3040
13596W        W30070   9.580  13.289   4.593  0.1340 -0.1965 -0.1041
13597W        W30071   9.685  13.462   9.380 -0.0985 -0.2873  0.0810
13598W        W30072   0.907  11.352  12.520 -0.4229 -0.0793  0.0108
13599W        W30073   9.223  12.170   2.217  0.2816  0.1826 -0.1080
13600W        W30074  15.674  14.607  10.350 -0.0794  0.0530 -0.3667
13601W        W30075  12.787  10.078  12.929  0.2030  0.1247  0.0302
13602W        W30076  14.307   8.496   2.400  0.0121 -0.1803 -0.2279
13603W        W30077   7.324   8.657  14.567  0.0456  0.5529  0.3843
13604W        W30078  19.541  14.589  11.196 -0.1394 -0.0147 -0.4178
13605W        W30079  16.698  15.086   2.817 -0.2978 -0.2088  0.3401
13606W        W30080   0.092  11.093  12.111 -0.2482  0.1479 -0.2493
13607W        W30081   7.308   4.381  12.267  0.1426  0.3447 -0.2000
13608W        W30082  10.559   1.770  12.671  0.0198 -0.2590 -0.0636
13609W        W30083  10.800  19.618   4.811 -0.1059  0.1401  0.1762
13610W        W30084   3.959  12.868   4.842  0.3541  0.0809  0.2647
13611W        W30085  13.055   4.948   9.845  0.3430 -0.1647  0.1472
13612W        W30086  15.552   7.318   4.783  0.6957 -0.1005 -0.4036
13613W        W30087  12.102  13.631  11.163  0.0271 -0.2200  0.1471
13614W        W30088   0.964  13.592   9.442  0.0945 -0.2412  0.1149
13615W        W30089   9.481   0.494   1.694 -0.0993 -0.1658  0.1744
13616W        W30090  16.669  19.618   4.296 -0.0093  0.0163 -0.0614
13617W        W30091   7.531   5.344   2.324  0.0036 -0.0766 -0.2078
13618W        W30092   5.110   6.560   2.238 -0.0874 -0.3124  0.0643
13619W        W30093   2.045  12.860  14.282 -0.0458 -0.0807  0.2254
13620W        W30094  16.068  17.685  14.173 -0.0720  0.0894  0.0480
13621W        W30095  13.278   5.098   4.140  0.0543  0.1318 -0.0072
13622W        W30096  11.024   7.453  12.706  0.2583  0.0682  0.0691
13623W        W30097  13.840  11.341   3.753 -0.2419  0.1882 -0.0005
13624W        W30098  13.553  19.102  12.869  0.0575 -0.0536 -0.1408
13625W        W30099  18.707   1.963   5.493  0.2393  0.2016  0.2941
13626W        W30100  15.108  17.328  12.669 -0.0355 -0.1209  0.1438
13627W        W30101   5.310  13.063   0.265  0.1597  0.1900 -0.2611
13628W        W30102   2.679   9.723   1.740 -0.2276  0.0988 -0.0732
13629W        W30103  19.354   7.910   2.134 -0.3056  0.2990 -0.1776
13630W        W30104  11.533   8.887   0.767  0.0991  0.0507 -0.3084
13631W        W30105   6.132   4.847  10.388 -0.1885  0.1941 -0.0903
13632W        W30106   1.899   7.031   3.748 -0.0319 -0.2118 -0.0650
13633W        W30107  19.456   2.265  10.585  0.3680 -0.1465 -0.1753
13634W        W30108   7.843  17.031   1.133  0.1484 -0.0721 -0.2047
13635W        W30109   3.961   0.720   4.277 -0.4583 -0.5400  0.0831
13636W        W30110   4.260   8.396   4.487  0.1057  0.0515  0.3890
13637W        W30111  10.688  16.068  13.310 -0.4251 -0.2490 -0.0862
13638W        W30112   0.834  18.989  11.533 -0.2052  0.2086  0.0078
13639W        W30113   7.051  13.089   0.607 -0.4013  0.0818  0.1476
13640W        W30114  12.908   0.913  12.281 -0.2208 -0.1871  0.1119
13641W        W30115  14.282  13.129  11.469  0.0376  0.1640  0.1618
13642W        W30116  12.587   7.001  12.359 -0.1524 -0.3136  0.1424
13643W        W30117  11.516   3.571   3.201  0.0996  0.2525 -0.2923
13644W        W30118   6.310   1.588   0.571  0.2635  0.2575 -0.0191
13645W        W30119  10.604   6.894   0.983  0.1904  0.5193 -0.4186
13646W        W30120   6.439  10.701   0.126 -0.0670  0.2787  0.0276
13647W        W30121  15.057   5.769   9.040  0.0502 -0.1072  0.0350
13648W        W30122   0.045   3.792  14.527 -0.2342 -0.0116  0.2671
13649W        W30123   7.541  13.572  11.274 -0.1476 -0.1594  0.0571
13650W        W30124  17.486  18.406   3.909 -0.1303 -0.2310 -0.0236
13651W        W30125  12.942   3.473   1.505  0.2874  0.0632  0.1634
13652W        W30126   1.995   7.305  10.932  0.0694 -0.2426  0.0634
13653W        W30127   4.884   5.644  13.865 -0.3526 -0.0634  0.1171
13654W        W30128   6.655  19.610   1.137  0.0471 -0.0964  0.2810
13655W        W30129  18.189  12.086   3.512  0.0091  0.0173  0.1645
13656W        W30130  11.469  18.502   4.833 -0.1595  0.1085  0.0515
13657W        W30131   3.242  19.289   9.561 -0.5465 -0.3475  0.1554
13658W        W30132  11.406  12.164   3.296 -0.0837 -0.0204  0.0997
13659W        W30133  13.674   6.665  14.594  0.1877 -0.0437  0.0627
13660W        W30134  19.127   3.334   2.192  0.1137  0.2783  0.1121
13661W        W30135   5.014   1.167   1.692 -0.2113  0.2218  0.0107
13662W        W30136   9.261   2.808   3.086 -0.0761  0.0614 -0.1288
13663W        W30137  13.762  18.162   9.558 -0.0243 -0.1769  0.1445
13664W        W30138  17.776   2.090   4.632 -0.0402  0.1813 -0.1574
13665W        W30139   2.311  14.276   3.737 -0.1687  0.1680  0.2350
13666W        W30140   7.353  12.319  10.171 -0.3110  0.0310 -0.0904
13667W        W30141  19.069  10.929  13.338  0.0248 -0.2295 -0.0249
13668W        W30142   6.531  10.489  10.244  0.0737 -0.0181 -0.0987
13669W        W30143   8.163   8.235   4.150  0.3401 -0.3293  0.0533
13670W        W30144  18.541  11.019   1.819 -0.2440 -0.1461  0.4524
13671W        W30145  19.096  14.046   5.054  0.2591 -0.0160  0.1398
13672W        W30146   0.722  17.998   4.099  0.1782  0.1068  0.0580
13673W        W30147   5.896  18.113  10.534 -0.1181 -0.1333 -0.1360
13674W        W30148   8.592  15.188   0.036 -0.1887 -0.2461 -0.0911
13675W        W30149  18.608   7.251   4.261  0.1639 -0.2157  0.0543
13676W        W30150   4.737  13.361  13.060 -0.0925 -0.0525  0.1997
13677W        W30151  15.665   6.091  13.189 -0.0508 -0.0407  0.3450
13678W        W30152  19.457   1.338   3.589  0.2881  0.2080  0.0251
13679W        W30153   5.740  15.606   5.411  0.1556 -0.1220 -0.0541
13680W        W30154  16.849  14.650   3.611 -0.0606  0.0546 -0.1019
13681W        W30155  10.423   1.135   1.817 -0.3309 -0.0851 -0.2017
13682W        W30156   0.635  10.709  13.118 -0.1258  0.0539  0.1125
13683W        W30157  12.328  18.269   4.651 -0.4672  0.1937  0.3924
13684W        W30158  16.510   4.615   1.208 -0.0309 -0.0136  0.2604
13685W        W30159   3.568  10.354   3.586  0.2281 -0.0661 -0.1118
13686W        W30160  11.102  17.874   9.579  0.1380  0.1473  0.0939
13687W        W30161  14.025   4.400  10.672 -0.0584 -0.0162  0.0199
13688W        W30162   0.087   0.219   4.178 -0.2598  0.0751  0.1977
13689W        W30163   3.168   6.340  13.565 -0.0168 -0.2278  0.0682
13690W        W30164  13.747  14.709  14.341 -0.1726 -0.1245  0.3548
13691W        W30165  16.035   9.782  11.780  0.1249  0.1710  0.0895
13692W        W30166   5.766   4.845   1.466 -0.3903 -0.0800 -0.0305
13693W        W30167   8.499   0.670   3.994  0.1321  0.1664  0.2799
13694W        W30168   1.358   7.003   3.797  0.0571  0.1140 -0.0295
13695W        W30169  19.459   7.152   5.591 -0.1088  0.0800 -0.2579
13696W        W30170  12.474   4.401   3.328  0.0166  0.3568 -0.0002
13697W        W30171   8.717  14.596   4.151  0.0798 -0.0462  0.0339
13698W        W30172   8.834  15.008  13.740  0.2142  0.2060  0.1719
13699W        W30173   0.932   5.105  11.578  0.2638 -0.1076  0.0194
13700W        W30174  14.302   4.151  12.912  0.0317  0.1346  0.2228
13701W        W30175   0.021  11.775  11.081  0.0308 -0.0353  0.0407
13702W        W30176   9.011   3.339   0.648  0.3809 -0.0949  0.3800
13703W        W30177  18.445   2.833  10.050 -0.0007  0.0872  0.2903
13704W        W30178   8.604   5.199  13.896 -0.1563 -0.1279 -0.0789
13705W        W30179  10.118   5.533  13.884  0.0022 -0.2497  0.1329
13706W        W30180  18.163  14.439  10.075  0.1067 -0.0184  0.0300
13707W        W30181  16.283  15.225  12.922  0.2165 -0.0547 -0.2658
13708W        W30182   3.965   1.414   3.841 -0.1425  0.1188  0.1376
13709W        W30183   0.362   7.032  10.208  0.1607  0.0503 -0.4373
13710W        W30184  18.366  14.698   1.939  0.3815 -0.0911  0.0162
13711W        W30185  16.605  12.867   0.331  0.2233 -0.0873  0.1504
13712W        W30186  13.685  15.950  11.698  0.1215  0.1197  0.1677
13713W        W30187  10.838  17.564   1.155 -0.2880  0.3226  0.2128
13714W        W30188   0.550   4.560   0.561  0.5714 -0.0238 -0.1671
13715W        W30189   1.183   4.281  11.703 -0.0354  0.0987  0.3268
13716W        W30190   5.258   7.339  11.408  0.0233  0.1587  0.1224
13717W        W30191  10.764   9.342  12.589  0.1200 -0.1747 -0.1234
13718W        W30192  16.004   3.378  12.977  0.1027  0.2162  0.0931
13719W        W30193  10.333  17.379   5.480  0.0015  0.2038  0.2422
13720W        W30194  11.687  12.145  12.282 -0.1637 -0.0484 -0.4767
13721W        W30195   8.562  18.069  14.616  0.1865  0.2851  0.1253
13722W        W30196   7.145   2.848  13.021  0.1336  0.2113 -0.0900
13723W        W30197   5.598  15.269  13.918 -0.0559 -0.0140  0.0883
13724W        W30198   5.294  18.389  13.619  0.1107  0.0876  0.3562
13725W        W30199   3.228  12.183   1.647 -0.1921  0.5207  0.1860
13726W        W30200   1.693  10.188  10.267  0.1132  0.0173 -0.1376
13727W        W30201   3.144  17.140  14.380 -0.0263  0.0880 -0.2686
13728W        W30202  10.420  18.799   1.077 -0.1707 -0.1471  0.1525
13729W        W30203  18.861   9.465  10.990 -0.1507 -0.0566  0.0659
13730W        W30204   9.053   3.708  11.718 -0.3453  0.0415  0.3930
13731W        W30205   3.256  14.433   2.805  0.2042 -0.1282  0.2986
13732W        W30206   8.206  18.416  13.915  0.0795  0.0167  0.0605
13733W        W30207  13.321  17.079   0.864  0.3565  0.1477  0.1388
13734W        W30208   6.318   6.936  12.810  0.0257 -0.2753  0.0271
13735W        W30209  19.338  15.966   1.560 -0.2079 -0.0821  0.0184
13736W        W30210  17.242   1.125   1.152 -0.1142 -0.0464  0.5016
13737W        W30211  13.815   5.523   3.452  0.3079  0.4524 -0.4543
13738W        W30212   2.361   2.430  11.797  0.2275  0.1546 -0.1591
13739W        W30213   8.686   8.489  13.951 -0.1051 -0.1464 -0.4841
13740W        W30214   7.622  15.509   3.028  0.1706 -0.2616 -0.1332
13741W        W30215   1.430  17.613  13.464  0.1749  0.1254 -0.3068
13742W        W30216  13.552   6.830  11.534  0.1039 -0.1575 -0.0386
13743W        W30217  13.838  15.119  12.737 -0.2126  0.4327  0.3764
13744W        W30218  19.109   0.623   2.124 -0.2642  0.1651  0.0740
13745W        W30219  13.050   2.062   1.324  0.2870 -0.2313 -0.0131
13746W        W30220  14.201  19.195   2.658  0.0368 -0.1263  0.0274
13747W        W30221  15.831  17.984  13.842  0.0079  0.2093  0.1579
13748W        W30222  16.885   0.332   2.158  0.2044  0.1420 -0.0257
13749W        W30223   3.471   3.395  14.005 -0.0321 -0.4196 -0.1113
13750W        W30224   8.316   4.706  10.331  0.5359 -0.1645  0.2379
13751W        W30225   3.881   3.970  10.826 -0.1774 -0.1621  0.0942
13752W        W30226   3.874  12.003   1.178  0.2725 -0.0588 -0.1071
13753W        W30227  11.868   6.380  10.501 -0.1897 -0.1024 -0.2404
13754W        W30228  13.461   7.560  13.484  0.0511  0.2869 -0.3847
13755W        W30229  10.937  18.753   1.304  0.1889  0.0922 -0.0247
13756W        W30230  16.580   2.647   0.304  0.4796  0.0391  0.0289
13757W        W30231  17.888  16.633   2.553 -0.0948 -0.2720  0.2082
13758W        W30232   1.820  10.548   2.298  0.1159 -0.0728  0.0516
13759W        W30233   5.383   6.220   1.128  0.3098  0.2776 -0.1076
13760W        W30234  14.788  19.454  12.262  0.4113  0.0966 -0.3179
13761W        W30235  16.412   9.818  12.463  0.1077 -0.0265  0.2915
13762W        W30236   0.791   5.822  12.906  0.3082  0.3577  0.1770
13763W        W30237   4.321  10.090   1.723 -0.1226  0.1774  0.0812
13764W        W30238   3.863   8.226  13.522 -0.0889  0.2718 -0.3346
13765W        W30239   3.910  16.739  12.460  0.0666 -0.1630  0.0522
13766W        W30240  18.781  10.862  10.725 -0.1481 -0.3021 -0.0145
13767W        W30241  11.565   3.888  14.534  0.0190  0.0123 -0.3503
13768W        W30242   1.520  11.111   1.164  0.1188  0.0236 -0.0109
13769W        W30243   7.821  12.648   2.001 -0.0282  0.1535  0.1562
13770W        W30244   1.518   6.250   4.596  0.0229  0.0317 -0.2556
13771W        W30245  14.026  11.881   3.086  0.2640  0.2244 -0.2034
13772W        W30246   3.865   9.712  12.947  0.0451  0.0015  0.1684
13773W        W30247  10.304  17.631  11.737 -0.3285  0.1432  0.0837
13774W        W30248   9.056   7.609   1.851 -0.0239 -0.1110 -0.0096
13775W        W30249   6.756  19.313  14.094 -0.2640  0.1915 -0.3785
13776W        W30250   3.990   0.676  10.515 -0.0083  0.2436  0.1194
13777W        W30251  18.076   7.767  11.127 -0.2421 -0.2492  0.4558
13778W        W30252  18.319   7.685   2.677  0.1493  0.1294  0.1836
13779W        W30253   0.677   0.339  12.318  0.0197 -0.1687  0.0997
13780W        W30254  16.140   2.703  11.892  0.1453  0.0248  0.1266
13781W        W30255  17.898   6.013   0.809  0.1975  0.0039  0.0499
13782W        W30256  15.079   7.591  10.830  0.0618 -0.2742 -0.0669
13783W        W30257   3.934  12.286  11.479 -0.0727 -0.0829  0.1691
13784W        W30258  16.546   5.179  11.655  0.0445 -0.0292  0.1969
13785W        W30259   2.767   1.251  11.216  0.1462 -0.0411 -0.0443
13786W        W30260  12.228  13.779   1.531 -0.1738  0.0591  0.1634
13787W        W30261   6.795   0.980   1.055 -0.2612  0.0518  0.2269
13788W        W30262   5.946   4.640   8.728 -0.1931 -0.4487  0.1349
13789W        W30263   4.376  14.884   0.763 -0.0283  0.0219 -0.1467
13790W        W30264  19.109  10.141   3.452 -0.2339 -0.1398  0.1050
13791W        W30265  12.773  11.171  11.426 -0.2061  0.4207 -0.1955
13792W        W30266   6.559  17.653   2.894 -0.0683 -0.1475  0.1738
13793W        W30267   1.736   0.058   3.507 -0.1451 -0.2240  0.0050
13794W        W30268  16.372  18.928   2.071  0.1870 -0.0044  0.0429
13795W        W30269  10.147   4.533   2.890  0.2028  0.1052  0.1624
13796W        W30270  13.526   0.502   0.218 -0.0780  0.0162 -0.1999
13797W        W30271   7.411  13.714   0.023  0.1497 -0.3846  0.2786
13798W        W30272  16.882   0.095  12.970  0.1343 -0.1029 -0.2524
13799W        W30273   2.706   6.386  13.005  0.0131  0.0468 -0.1191
13800W        W30274   6.022   8.156   2.054 -0.1075  0.0870 -0.1422
13801W        W30275  18.501   7.319  12.725 -0.1283 -0.0592 -0.0214
13802W        W30276  17.019  17.826   3.269  0.0939  0.1899  0.2879
13803W        W30277   5.793   6.920   0.409  0.0605 -0.0092 -0.1116
13804W        W30278   2.339   4.703  13.246  0.0183 -0.0244  0.0983
13805W        W30279   6.271  11.853  10.324  0.0356  0.1002 -0.3241
13806W        W30280  12.551   5.601   0.982 -0.2193 -0.0892 -0.0858
13807W        W30281  18.333   5.681  12.260  0.0839 -0.0100  0.2409
13808W        W30282   8.030   1.313   1.767  0.1031  0.1861 -0.1196
13809W        W30283   4.576   6.545  11.475 -0.0938 -0.0849  0.1158
13810W        W30284   8.858  18.033  11.890 -0.0096 -0.0900  0.0950
13811W        W30285  12.987   2.558   1.366 -0.0829  0.0756 -0.2650
13812W        W30286   3.567   0.472   3.937 -0.0133 -0.0794 -0.1543
13813W        W30287  10.196  10.511   2.009 -0.1864  0.3089 -0.0505
13814W        W30288  10.282  17.786   1.971  0.1554  0.1650 -0.0734
13815W        W30289  16.069   6.955   2.929 -0.0210 -0.1158  0.2528
13816W        W30290   1.752  17.260   4.549  0.0352 -0.1047 -0.1612
13817W        W30291  17.263  12.584   1.597 -0.3157 -0.1500 -0.0808
13818W        W30292  12.826  11.443  10.490  0.0794 -0.2264 -0.2205
13819W        W30293   3.514   3.899  14.313 -0.1783 -0.2372 -0.0188
13820W        W30294   0.374   9.247   1.051 -0.2829  0.0908 -0.0678
13821W        W30295  13.613  13.804  12.547 -0.0202 -0.2044 -0.0869
13822W        W30296  11.781   6.285   3.637 -0.2847 -0.1253  0.4466
13823W        W30297   8.144   5.288   3.935  0.0440  0.2153  0.0039
13824W        W30298   1.161   5.762  12.530 -0.1707  0.1101 -0.2380
13825W        W30299   0.017  16.313  10.468 -0.3312 -0.0955 -0.2312
13826W        W30300   5.853  12.313  10.676  0.0121  0.0811 -0.4555
13827W        W30301   9.401  18.615   3.909 -0.1458 -0.4386  0.0197
13828W        W30302  11.408   5.304   0.117 -0.0511 -0.0134 -0.3432
13829W        W30303  11.151   7.555   0.185 -0.1056 -0.3705  0.1336
13830W        W30304  17.358  15.133  11.187  0.1072  0.0132 -0.3301
13831W        W30305   6.238  16.389  12.514 -0.2582  0.2204  0.2862
13832W        W30306   6.878   0.097  12.080  0.1131  0.1027  0.3130
13833W        W30307   1.938  16.809   0.407  0.1368 -0.2830 -0.2008
13834W        W30308  14.885   4.734   4.109 -0.2661 -0.1653 -0.1382
13835W        W30309   7.376   2.659   0.281  0.0835  0.0786 -0.1770
13836W        W30310  12.258   9.391  13.968 -0.3258  0.2156  0.0725
13837W        W30311   4.033   7.003   4.575 -0.0129 -0.1569  0.3594
13838W        W30312  11.342   2.982  14.301 -0.2218  0.0130  0.0949
13839W        W30313   7.500   6.674  13.357  0.0386 -0.2514  0.1747
13840W        W30314  15.451  14.476  12.691 -0.1247 -0.0747 -0.0088
13841W        W30315  11.227  12.591  11.716 -0.3804  0.1248  0.1870
13842W        W30316  11.411  11.195  13.231  0.0056 -0.2141  0.2168
13843W        W30317   3.565   2.690  13.632 -0.2428 -0.1855 -0.1885
13844W        W30318  13.087  14.736   2.346  0.0486  0.2476  0.2207
13845W        W30319  16.733   3.645   4.427 -0.1654 -0.1427  0.1080
13846W        W30320  17.599   6.544   5.737  0.0173  0.1578  0.2442
13847W        W30321   1.212  18.959  13.298  0.0542 -0.1105  0.2002
13848W        W30322   2.094   7.952   3.460 -0.0724 -0.0102  0.2786
13849W        W30323   4.611  12.562   2.938 -0.1007  0.0004  0.0045
13850W        W30324   3.297   5.139   3.530  0.1049  0.1416 -0.0452
13851W        W30325   4.659   9.645   0.561 -0.1362 -0.2934 -0.1013
13852W        W30326   4.966  10.927   3.355  0.0874  0.0123 -0.3121
13853W        W30327   2.725   9.229  11.226 -0.0376  0.2524  0.2037
13854W        W30328  14.591   3.400   2.179  0.0740 -0.1338  0.1226
13855W        W30329   7.339   2.436  13.933 -0.2085 -0.2038  0.0730
13856W        W30330   4.019  17.501  10.334  0.1139 -0.0039 -0.1136
13857W        W30331   2.668  15.051  14.393  0.0387  0.2416 -0.1431
13858W        W30332   5.586   3.498   3.510  0.2076  0.0106 -0.0020
13859W        W30333   9.346  14.123   0.317  0.0738  0.0927  0.3997
13860W        W30334  17.875  12.088  13.330  0.0011 -0.0232  0.0517
13861W        W30335  16.080  18.568  12.628 -0.2382 -0.0681  0.0512
13862W        W30336  17.233   6.904   2.160  0.0076  0.2175 -0.4676
13863W        W30337   7.398   3.840   1.961  0.3810  0.0503 -0.1364
13864W        W30338  19.414  19.058  12.898  0.3346 -0.2293 -0.0727
13865W        W30339  17.090  19.408  13.869 -0.0795  0.0047 -0.1078
13866W        W30340   7.931   7.120  11.599 -0.2428 -0.2637 -0.0901
13867W        W30341   8.364  11.239  14.050 -0.0759 -0.0392  0.1104
13868W        W30342   0.317  12.659   3.907  0.1863 -0.1451 -0.3057
13869W        W30343   0.295  14.708   1.039  0.0665 -0.1612  0.1183
13870W        W30344   7.031  14.365  12.175 -0.4651  0.0058  0.0515
13871W        W30345   5.280   6.814  11.182  0.0693  0.0509  0.2690
13872W        W30346  17.696  14.685  12.573  0.1620 -0.2248  0.3059
13873W        W30347   7.151   9.784  11.182 -0.0706  0.0653  0.1730
13874W        W30348   0.654  13.599   3.172  0.1677 -0.1350  0.2606
13875W        W30349  11.203  10.500  12.920  0.0081  0.1909 -0.2439
13876W        W30350   0.584  10.586  12.597 -0.2328  0.1507  0.2685
13877W        W30351   5.044   4.497   0.983  0.0517 -0.0200  0.3007
13878W        W30352   4.222   6.895   1.306  0.0573  0.3919 -0.0820
13879W        W30353   6.061   6.976   4.155 -0.3438 -0.1267 -0.0701
13880W        W30354  12.960   0.791   0.670  0.1807 -0.3071 -0.1980
13881W        W30355   2.836   0.381  11.170  0.0376  0.0740  0.0835
13882W        W30356  17.188  19.205   1.651  0.0918  0.1351 -0.1862
13883W        W30357   5.337  16.726   3.841 -0.2160 -0.2519  0.0263
13884W        W30358  18.240   5.108  12.885  0.1782 -0.2015 -0.2626
13885W        W30359  13.101   3.577  13.743 -0.0066 -0.3268 -0.0854
13886W        W30360  17.504   9.679  11.098  0.0380 -0.1957  0.1720
13887W        W30361   6.640   3.524   4.394 -0.0617 -0.1317  0.2383
13888W        W30362  13.048  13.608   5.600  0.2173  0.2118  0.0659
13889W        W30363  14.448  12.031  12.766  0.3952 -0.3802  0.2216
13890W        W30364   3.460   5.280  14.158 -0.0235  0.0734 -0.0357
13891W        W30365  17.402  17.877   1.227  0.3170  0.2465  0.1193
13892W        W30366   3.471   1.318  10.389  0.1686 -0.1151 -0.0770
13893W        W30367  15.579   8.368  11.423 -0.1292 -0.0485  0.0981
13894W        W30368  11.943   8.381  11.567  0.1786 -0.1417 -0.1893
13895W        W30369   3.994  13.517   3.545 -0.2286  0.1485  0.0218
13896W        W30370  18.601   5.001   4.310 -0.0816 -0.1383 -0.3772
13897W        W30371   4.502  11.661   4.978 -0.3679  0.2691  0.0594
13898W        W30372   9.444  11.358   0.694 -0.2483  0.1108 -0.1288
13899W        W30373  15.240   5.755   1.064 -0.3688 -0.0910  0.0032
13900W        W30374  13.435  10.722   2.692 -0.1030  0.3906  0.0177
13901W        W30375   3.232  16.202   3.991 -0.0268  0.1861 -0.1770
13902W        W30376   3.235  16.390   2.717  0.0234  0.1367 -0.0382
13903W        W30377   0.033   0.158  11.970 -0.5149  0.2100  0.4484
13904W        W30378   9.783   6.550   4.240  0.0044  0.1708  0.0053
13905W        W30379  11.493  11.035   5.650 -0.1480 -0.1773  0.0254
13906W        W30380  14.418   7.904   3.079  0.4555  0.4072  0.4664
13907W        W30381  11.697  19.110  11.080  0.0671  0.0555  0.1303
13908W        W30382  15.802   5.958  11.786  0.0313  0.1371 -0.0768
13909W        W30383   3.551   4.439  12.134  0.4386  0.1821  0.0043
13910W        W30384   7.347   6.026  13.744  0.0774 -0.2275 -0.4584
13911W        W30385   2.572  10.794  13.878 -0.1619  0.1769 -0.2036
13912W        W30386   2.671   5.619   0.026  0.2512  0.1670  0.0460
13913W        W30387   9.725   1.653  10.246  0.3576  0.1118 -0.1907
13914W        W30388  11.929  17.335   3.832  0.2633 -0.1359  0.2662
13915W        W30389   1.638  10.029   1.854 -0.1253 -0.1034  0.1837
13916W        W30390   5.751  15.751  14.111 -0.1147 -0.1315  0.1065
13917W        W30391  13.633   6.263   2.914 -0.1830  0.1764 -0.1707
13918W        W30392   4.823   7.509   4.355 -0.1995 -0.1234  0.0854
13919W        W30393   4.228  12.278   0.387 -0.0396  0.0690  0.1809
13920W        W30394   3.224  15.536   2.270  0.1626  0.0472  0.1802
13921W        W30395  16.675   7.741   0.149  0.0984 -0.0342 -0.1443
13922W        W30396   2.109  14.366   4.602  0.0696  0.0613 -0.0637
13923W        W30397   5.088   1.380   3.736  0.2841  0.1388  0.1448
13924W        W30398   2.736  15.383   2.134  0.1333 -0.2629 -0.0275
13925W        W30399   0.524  13.455  12.725  0.0871  0.0750  0.0133
13926W        W30400   9.858   5.481   3.650  0.2263  0.0993 -0.0632
13927W        W30401   2.018   2.871  11.844  0.2993 -0.0591 -0.0046
13928W        W30402   3.910   4.514   3.415  0.3036  0.1275  0.1675
13929W        W30403  16.383   0.340  12.966 -0.1891 -0.0691  0.3326
13930W        W30404   7.056   7.598   4.904 -0.1105  0.1124  0.0136
13931W        W30405  12.336  18.093  10.619  0.0860 -0.0255  0.0206
13932W        W30406  13.009  18.717   2.422 -0.2827  0.1514  0.1914
13933W        W30407   2.975   1.580  10.892 -0.2253  0.1049  0.3678
13934W        W30408  18.284  17.490   1.185  0.3290 -0.1389 -0.2031
13935W        W30409   8.196  16.730   0.951  0.2920 -0.0426 -0.3223
13936W        W30410  15.379  13.039  10.382 -0.0250  0.0033 -0.2745
13937W        W30411  12.684   5.412   3.459 -0.0934  0.1234  0.2562
13938W        W30412  12.918  11.040   0.425 -0.1564 -0.2998 -0.1075
13939W        W30413   8.820  16.244  14.152 -0.0517  0.1053  0.0961
13940W        W30414  12.234  15.035  13.276  0.3107  0.1210  0.1176
13941W        W30415  13.217   0.990   1.143  0.0925  0.2886  0.0643
13942W        W30416  13.809  15.021   0.976 -0.0106 -0.0999 -0.0040
13943W        W30417  17.302  11.146  10.428  0.2076  0.2772  0.2056
13944W        W30418   2.162  18.270  10.480  0.1334  0.0407  0.0063
13945W        W30419  12.122  11.609  13.810 -0.1980 -0.0940  0.1215
13946W        W30420  12.843   2.927  11.510 -0.0579  0.1801 -0.2327
13947W        W30421   1.698   7.408   1.989 -0.1247 -0.2247 -0.0663
13948W        W30422  15.839  15.016   4.551  0.2098 -0.0026 -0.1042
13949W        W30423   3.375  12.980   2.429  0.0407  0.1013  0.2209
13950W        W30424  11.862   2.089   5.092 -0.1991 -0.0322  0.2302
13951W        W30425  18.393   4.653   1.259 -0.1251 -0.1650  0.0901
13952W        W30426   8.319  16.331   3.950 -0.0079 -0.3036  0.2887
13953W        W30427   3.269  16.865   5.545 -0.0396 -0.1533 -0.0856
13954W        W30428   4.856  10.028  10.566  0.3361  0.1879 -0.0202
13955W        W30429  15.746  17.711  10.683 -0.1868 -0.3643  0.2673
13956W        W30430  19.173   5.161   0.070  0.1381  0.1105  0.0458
13957W        W30431  11.859   5.232   2.040 -0.2791  0.3305 -0.3578
13958W        W30432   3.215   3.377   3.876 -0.1756  0.0271 -0.4770
13959W        W30433   9.329   6.870   2.818  0.1158  0.0057  0.0490
13960W        W30434  16.741   0.490   1.664 -0.0359  0.0738 -0.1261
13961W        W30435   3.910  10.927   3.311 -0.1041  0.1470 -0.0332
13962W        W30436  18.653   1.757  13.380 -0.2209 -0.2628  0.2343
13963W        W30437  15.016  16.327   0.667 -0.3033 -0.1084 -0.1718
13964W        W30438   2.244  16.730  11.421  0.1764 -0.3958 -0.1271
13965W        W30439  19.592  12.248   1.498  0.0729  0.0349 -0.2513
13966W        W30440  12.791  16.299   0.403  0.4280  0.1736  0.0401
13967W        W30441   1.442   1.431   3.368  0.1710 -0.0164 -0.2800
13968W        W30442  10.641   5.086  13.238 -0.2757 -0.1039 -0.1280
13969W        W30443   4.309  10.678   0.911 -0.0821  0.0080  0.1020
13970W        W30444  16.993  14.728   4.593 -0.2745 -0.1367  0.1572
13971W        W30445   7.565   0.443   2.070 -0.0696 -0.2201  0.2931
13972W        W30446  16.707  18.217  11.895 -0.0890  0.0695 -0.1123
13973W        W30447   9.666  16.517  13.438  0.0201  0.3714 -0.0311
13974W        W30448  10.859  19.451  11.788  0.2413 -0.0920 -0.2802
13975W        W30449   1.205  10.242  10.127  0.1145 -0.2765 -0.1612
13976W        W30450   0.635   3.317  10.519 -0.1540  0.1155 -0.0116
13977W        W30451  10.548   2.432   4.533  0.0206 -0.0155  0.1102
13978W        W30452  15.719  12.512   4.693 -0.0979  0.0020 -0.1206
13979W        W30453   9.272  15.048  10.968 -0.4286 -0.3912  0.1665
13980W        W30454  17.380  11.602   2.769 -0.0609 -0.1165  0.0203
13981W        W30455   1.597   1.293   4.281  0.2499  0.0496  0.0781
13982W        W30456  19.074   5.238  12.828  0.3302 -0.4561  0.3050
13983W        W30457  12.806   1.292   3.278  0.2249  0.0540  0.0784
13984W        W30458  15.556  13.981  12.504  0.0105 -0.0649 -0.1631
13985W        W30459   1.109  19.163  11.094  0.1335 -0.3340 -0.2197
13986W        W30460  13.678   1.237   4.291  0.1908 -0.1329  0.1388
13987W        W30461   6.373  14.552   4.024 -0.3341  0.0776 -0.2768
13988W        W30462   9.652   7.387   1.761  0.0779  0.0838  0.0713
13989W        W30463  10.994   1.033   3.847 -0.2205 -0.0809 -0.1689
13990W        W30464   1.026   0.013   1.792  0.1773  0.0072  0.0288
13991W        W30465   4.840   2.102   2.379  0.0106  0.3105 -0.0511
13992W        W30466   6.544  11.433  13.532 -0.2190  0.0714 -0.3237
13993W        W30467  18.335   9.504  14.258  0.1932  0.2835 -0.2153
13994W        W30468   1.705   7.087   4.257 -0.1212 -0.1185 -0.0142
13995W        W30469  17.141   1.956   9.762  0.3979  0.0494  0.3802
13996W        W30470  14.692  19.437  11.509  0.0868 -0.0374 -0.0392
13997W        W30471   1.183  15.832  11.349  0.3819  0.1348 -0.0764
13998W        W30472   3.099   9.151   1.734  0.0666  0.0108  0.0219
13999W        W30473   0.754   3.602   2.144 -0.1282  0.2077 -0.1260
14000W        W30474  11.449   3.668   4.272  0.4316 -0.2082  0.0285
14001W        W30475  17.447   3.730  10.355 -0.1527  0.2244 -0.0153
14002W        W30476  16.235   1.699   5.387 -0.0224 -0.1272 -0.1455
14003W        W30477   1.617  10.452  10.632  0.1457 -0.0097  0.1078
14004W        W30478  11.104  18.745  11.540 -0.2961  0.2358  0.1947
14005W        W30479   4.499  15.484   9.988  0.0988 -0.0068 -0.0999
14006W        W30480  10.758   7.222  11.208 -0.4156  0.2469  0.3167
14007W        W30481   6.461   5.583   2.309 -0.1050 -0.2551 -0.2708
14008W        W30482   1.853   8.371  13.248 -0.0186  0.1598  0.0908
14009W        W30483  10.104   8.757  11.489 -0.0876 -0.0063 -0.1439
14010W        W30484  12.106   2.596  13.971  0.0379 -0.1095 -0.3023
14011W        W30485   4.706   4.768  13.601 -0.0943 -0.2448 -0.1201
14012W        W30486  10.856   3.325  12.064  0.1926  0.4296  0.3324
14013W        W30487  13.559   5.462   3.928 -0.0010 -0.0177  0.0202
14014W        W30488  17.192   9.712  11.624  0.0149 -0.1202 -0.0549
14015W        W30489  12.237  15.564   5.136 -0.1079 -0.1632  0.2223
14016W        W30490  11.178  18.403   4.132 -0.1649 -0.1297 -0.0772
14017W        W30491   8.065   5.695   3.655  0.2984 -0.1052 -0.3498
14018W        W30492   5.481   8.054   4.114 -0.1984 -0.1778  0.1138
14019W        W30493  16.148  18.426  13.638 -0.0664 -0.1495  0.2121
14020W        W30494   3.431   5.061   4.541  0.1346 -0.2855  0.0550
14021W        W30495   9.011  10.586   4.387 -0.1351 -0.0381  0.0835
14022W        W30496   4.192  12.857  14.392  0.0193 -0.1299  0.0253
14023W        W30497   4.749   2.536  13.078 -0.0562 -0.2837  0.0848
14024W        W30498  11.184   2.359  11.015 -0.1457  0.1929 -0.1255
14025W        W30499  10.997  14.347  11.856 -0.1907  0.1207 -0.2347
14026W        W30500   9.466   5.045  12.241 -0.0280 -0.1065  0.0403
14027W        W30501   5.651   3.919  13.725 -0.1555 -0.0357  0.0416
14028W        W30502   2.180   9.272  11.010  0.2506 -0.3669 -0.1735
14029W        W30503   9.467  10.102   4.767 -0.3411  0.1844 -0.0814
14030W        W30504  14.173  12.748   0.841  0.2333  0.1445  0.1369
14031W        W30505  11.238   5.921   3.037 -0.0774 -0.1488 -0.1180
14032W        W30506   0.533   4.424   2.853  0.2632  0.1386  0.1723
14033W        W30507   1.097  14.296  11.959 -0.1306 -0.1271 -0.0471
14034W        W30508   5.224  10.138   1.746 -0.0716 -0.1879  0.0949
14035W        W30509  18.472  15.117  12.681  0.1001  0.1055  0.1469
14036W        W30510   8.534  19.559  10.233 -0.5244 -0.2390  0.1344
14037W        W30511  14.360   1.239   1.102 -0.1237  0.1053  0.0643
14038W        W30512  11.499  15.689   2.620  0.0013 -0.3944  0.1163
14039W        W30513   0.009  19.339  10.399 -0.1529 -0.1478 -0.2106
14040W        W30514  15.802  14.423  12.346 -0.2697  0.4084 -0.2676
14041W        W30515  19.475  11.078   4.377  0.3223  0.1078  0.0807
14042W        W30516  12.111   5.404  11.522  0.0747 -0.1014  0.1207
14043W        W30517  13.798  18.325   1.523  0.2924 -0.1461 -0.2152
14044W        W30518   1.855   0.840   2.875  0.0094  0.1096  0.2418
14045W        W30519  10.750   4.685  10.149  0.1259 -0.1897 -0.1609
14046W        W30520   7.257  16.280  12.763  0.1880  0.1783  0.0912
14047W        W30521   8.375   2.456  13.310 -0.0996  0.0424  0.1006
14048W        W30522   7.332   8.971  12.722 -0.0301  0.0871  0.1028
14049W        W30523  10.731   1.557   4.044 -0.0886 -0.1045 -0.2090
14050W        W30524   4.273  19.144   3.588 -0.1687 -0.0285  0.4574
14051W        W30525  13.880  19.558  12.117  0.5240  0.0563  0.1446
14052W        W30526   4.988   0.307   0.534  0.1566  0.0531 -0.0959
14053W        W30527   1.464  16.171   0.879 -0.0747 -0.1677  0.2456
14054W        W30528  18.863  10.223   4.358  0.0769 -0.3623  0.1351
14055W        W30529   2.747   0.245   0.954  0.1430 -0.0199 -0.1065
14056W        W30530   3.179   8.219   4.561 -0.0921 -0.0894  0.5221
14057W        W30531   7.884  13.561  13.002  0.1322 -0.1646  0.1769
14058W        W30532  15.561   4.019   5.408 -0.0095  0.1971  0.1007
14059W        W30533  12.757   6.923  13.963  0.1511  0.0453 -0.2370
14060W        W30534   8.308  13.130  12.503  0.0030  0.5911 -0.1118
14061W        W30535   8.128   7.326  14.174  0.1927 -0.2781 -0.2648
14062W        W30536  15.184  18.405   0.449 -0.0915  0.2984  0.1740
14063W        W30537   6.491  16.561   9.475 -0.1309  0.1872  0.2426
14064W        W30538  12.853   0.158   3.077  0.1803 -0.1644 -0.1348
14065W        W30539   7.087   0.885   1.477 -0.0518 -0.2468  0.2182
14066W        W30540  11.812   6.940   3.884 -0.2957  0.3702  0.1313
14067W        W30541  12.998  12.446   5.234  0.2639  0.3130 -0.2843
14068W        W30542   8.466  11.265   2.949 -0.0537 -0.1388  0.3744
14069W        W30543  13.396   6.861   2.465 -0.4095  0.0207 -0.2342
14070W        W30544   0.821   9.384  12.876  0.0131  0.0238 -0.1765
14071W        W30545   1.726   1.685   3.722  0.0992  0.1533 -0.2164
14072W        W30546   3.770  12.515  14.512  0.2817  0.0561 -0.3826
14073W        W30547   3.894  10.939   4.738  0.1164  0.2080 -0.0209
14074W        W30548  10.517   9.573   3.153  0.1805 -0.1392  0.1940
14075W        W30549  18.042   8.652  14.333 -0.2226  0.2287  0.0049
14076W        W30550  18.930   2.039   3.102 -0.0973  0.0458 -0.4501
14077W        W30551  16.834   2.732  11.167 -0.1163 -0.0745  0.3998
14078W        W30552  16.246  10.916   1.222 -0.4963 -0.0393 -0.1194
14079W        W30553   4.310   1.205  13.671 -0.0874 -0.2413  0.0699
14080W        W30554   0.517   3.305  14.567 -0.4808 -0.0193 -0.2511
14081W        W30555  14.417  18.652  13.650 -0.1803  0.1153 -0.1695
14082W        W30556   4.980  19.046  13.587  0.0224  0.3892  0.0614
14083W        W30557  13.619  16.794  13.703  0.0081 -0.2262  0.0002
14084W        W30558   2.487  17.507   0.399 -0.4007 -0.4097  0.0946
14085W        W30559  11.153  18.277   1.015  0.0181 -0.1945 -0.2410
14086W        W30560  14.487  17.861  13.820 -0.1454  0.2363  0.0534
14087W        W30561  16.352   4.362   0.780  0.1172 -0.1611  0.1681
14088W        W30562  13.623   6.700   4.189  0.0564 -0.2597  0.0510
14089W        W30563   5.783  12.819  14.048  0.0302 -0.0419  0.2382
14090W        W30564  13.203   5.026   2.348 -0.0435 -0.0148 -0.1656
14091W        W30565  11.390  15.501  13.043 -0.2975 -0.1121  0.1069
14092W        W30566   3.771   6.166   1.278  0.1615  0.1754 -0.1851
14093W        W30567  13.030  18.276  11.414 -0.3291  0.1360 -0.1032
14094W        W30568   5.549   4.951   9.146  0.3005  0.0552 -0.3714
14095W        W30569  15.851   9.675   2.924  0.2843 -0.0480  0.0328
14096W        W30570  19.623   8.562   9.874  0.3861 -0.0799 -0.0862
14097W        W30571   8.631  10.154  13.192 -0.2225  0.1989  0.0445
14098W        W30572  12.624  16.350  11.899  0.4164 -0.1163 -0.0236
14099W        W30573   8.871  15.401   2.086  0.2064  0.3297 -0.0615
14100W        W30574   2.744   3.790   0.787  0.1703  0.0782  0.3759
14101W        W30575   3.809  14.224   2.013  0.0323  0.0600  0.0699
14102W        W30576  16.908   9.813  10.730  0.0050  0.1899  0.2796
14103W        W30577  18.779  13.078  10.643 -0.1684 -0.0719  0.1794
14104W        W30578  15.606   7.938  10.145 -0.1220 -0.1033  0.3557
14105W        W30579   6.290  18.693   1.822 -0.0948  0.0714 -0.4052
14106W        W30580   7.831  12.618  11.242  0.4321 -0.2460  0.1432
14107W        W30581  16.314  18.775   0.331  0.0352 -0.0951  0.2975
14108W        W30582  12.003  17.113  14.182 -0.0647  0.1522 -0.2319
14109W        W30583   2.295   3.486   1.028  0.1244 -0.1284  0.0565
14110W        W30584   3.575  13.145  11.910  0.0800 -0.1850 -0.2666
14111W        W30585   5.935  16.048  12.245 -0.0127  0.0891  0.2439
14112W        W30586  14.407  19.382  11.935  0.0661  0.0594  0.1757
14113W        W30587   0.141   9.370  13.781 -0.1035  0.2197 -0.1292
14114W        W30588  10.749  19.125  14.276  0.3101 -0.0249  0.0423
14115W        W30589   8.519   6.995  12.299  0.0337  0.2210 -0.1822
14116W        W30590   1.504  14.644   1.852 -0.4110 -0.1418  0.0680
14117W        W30591   4.623  10.534  11.771  0.0520  0.2755  0.0945
14118W        W30592   2.147   8.431  10.907 -0.1848 -0.3520 -0.1672
14119W        W30593  10.981  11.855  14.156  0.1969 -0.2055  0.3056
14120W        W30594   9.086  15.798   0.704  0.2997  0.0436 -0.1242
14121W        W30595  11.454  14.006   5.047  0.1512 -0.1556  0.2197
14122W        W30596   1.200  14.612   0.351 -0.0782 -0.1248  0.0789
14123W        W30597  14.503   6.580  13.699  0.0889 -0.0513  0.0344
14124W        W30598   3.721  14.602  14.540  0.0647 -0.1898  0.0338
14125W        W30599  12.130   5.958   3.858 -0.0462 -0.0127 -0.4514
14126W        W30600   3.131   8.625   3.858 -0.0670  0.3710 -0.0574
14127W        W30601  12.508   1.832   9.585 -0.2121  0.1191  0.2410
14128W        W30602   8.557  10.950  10.396 -0.0276 -0.3154  0.2568
14129W        W30603   2.697  13.931   3.980 -0.1667 -0.1634  0.0926
14130W        W30604  12.039   0.520   0.061 -0.0055 -0.3043 -0.4598
14131W        W30605   5.226   4.841   1.268  0.3615 -0.4334 -0.2423
14132W        W30606   8.226   3.920  13.650 -0.0854  0.1238  0.0866
14133W        W30607  13.837  14.549   2.009  0.1869 -0.2017 -0.3191
14134W        W30608   8.615   8.758  14.628 -0.2047  0.0549 -0.1994
14135W        W30609   5.166   4.166  10.961 -0.0468  0.1715  0.0084
14136W        W30610   3.159  15.486   0.701  0.0607 -0.1900  0.2768
14137W        W30611   3.255   4.445  11.252 -0.0058 -0.0825 -0.2519
14138W        W30612  14.801  17.854  12.907 -0.0253  0.0344  0.1519
14139W        W30613   8.929   7.095  10.273 -0.1313 -0.0396  0.0458
14140W        W30614  17.534  17.182  12.849  0.0793 -0.0609  0.0259
14141W        W30615   9.354   0.872   3.461 -0.5075 -0.0541  0.1597
14142W        W30616  15.655  14.784  13.185 -0.0315 -0.0329  0.0585
14143W        W30617  12.353  13.250  10.327 -0.2226  0.2307  0.1045
14144W        W30618   8.003   1.492  14.427 -0.1287 -0.0099  0.0082
14145W        W30619  16.773  11.473   2.252  0.2092 -0.2881  0.2942
14146W        W30620  13.676   2.109  12.136 -0.0373 -0.2492  0.0936
14147W        W30621   3.583  12.658   0.469 -0.0587  0.4522 -0.1311
14148W        W30622   1.476   2.603   3.590  0.1095 -0.1030 -0.0284
14149W        W30623  17.333  18.439  10.374  0.1074 -0.0110 -0.5706
14150W        W30624   8.015  18.307   5.043 -0.1017  0.0777 -0.2018
14151W        W30625  15.391  11.275   4.250 -0.0055 -0.1630  0.1343
14152W        W30626   4.246  12.245   9.613 -0.1756  0.3967 -0.1710
14153W        W30627   3.649   3.944   1.705 -0.1453 -0.1252 -0.0918
14154W        W30628  18.069   5.493   1.187 -0.0298  0.0735 -0.1363
14155W        W30629   0.329  14.765  13.896  0.2116  0.0520  0.1084
14156W        W30630  17.014   3.851   3.007  0.0552  0.0802 -0.1095
14157W        W30631  12.158   3.291  12.972  0.0990  0.0444  0.3343
14158W        W30632   3.313  15.689   3.779  0.3571  0.4354  0.2864
14159W        W30633   0.512   9.964   2.314 -0.2816 -0.0767  0.2711
14160W        W30634  15.146  11.076   0.367  0.0308  0.0829 -0.2840
14161W        W30635  17.209   0.098  14.274  0.0634 -0.0800 -0.0112
14162W        W30636   7.528   3.493   1.592 -0.1807  0.2204 -0.0478
14163W        W30637   0.026  11.826   1.762  0.0130  0.0766 -0.1661
14164W        W30638  13.478  11.949  12.462  0.2936 -0.0999 -0.0269
14165W        W30639   9.880   2.006   0.232  0.2756 -0.0762 -0.0085
14166W        W30640  15.012   1.774   0.531  0.4768  0.0141  0.1335
14167W        W30641   7.522   3.047   2.130  0.0411 -0.2727  0.1329
14168W        W30642  10.747   8.931  12.263  0.2008 -0.0385  0.0652
14169W        W30643   7.723   0.725  13.333 -0.4130  0.1500 -0.0556
14170W        W30644  14.220  10.656   1.229  0.0189 -0.2024 -0.3299
14171W        W30645   3.822  18.188   2.642 -0.2926 -0.0880  0.1794
14172W        W30646   2.258   9.797   0.228  0.1782  0.4420  0.0288
14173W        W30647  12.733   6.688   0.266 -0.2233 -0.0940 -0.2282
14174W        W30648   2.496  13.580  14.189 -0.2973 -0.1145 -0.1616
14175W        W30649  19.080  19.371   4.831  0.2356 -0.2806 -0.2809
14176W        W30650   2.357  16.694   0.695  0.1492 -0.2626  0.2451
14177W        W30651  12.389   3.764  12.979 -0.0707  0.2701 -0.1053
14178W        W30652   4.655  14.984   2.596 -0.1201  0.0469 -0.0451
14179W        W30653   6.003   7.436   0.411  0.0535  0.2572  0.2809
14180W        W30654  13.819   5.871   1.151 -0.0401 -0.0076  0.2041
14181W        W30655  16.341  18.297   4.340 -0.0315 -0.0129 -0.0999
14182W        W30656  15.991  12.319   3.638 -0.0074 -0.3221  0.4265
14183W        W30657   8.763   8.319  11.930 -0.2306 -0.2267  0.0786
14184W        W30658  18.870   2.118   3.945 -0.0402 -0.0510  0.1561
14185W        W30659   4.281   7.639  12.478 -0.3300  0.0511  0.1854
14186W        W30660  10.075   6.802   0.922  0.0356  0.0706 -0.3671
14187W        W30661   0.642   5.622  14.242 -0.1515  0.1413  0.1661
14188W        W30662   4.257   0.752  12.812  0.1640 -0.2116  0.0511
14189W        W30663  16.929   4.098  13.413 -0.2258 -0.0467 -0.1877
14190W        W30664  19.164  11.911  11.023  0.1015 -0.1670 -0.0308
14191W        W30665   6.408  19.151   2.465  0.2646 -0.0420  0.2416
14192W        W30666  18.654   5.080  11.468  0.3384  0.0211  0.0039
14193W        W30667  11.125  12.620  10.584 -0.1252 -0.2523 -0.1044
14194W        W30668   3.513  16.526  10.797 -0.1280 -0.3029 -0.0183
14195W        W30669  16.143   0.239   4.164  0.3941 -0.5476 -0.3069
14196W        W30670   6.056  12.857   2.215  0.0434  0.1188  0.0621
14197W        W30671   7.933  17.235  11.429 -0.1064 -0.0866  0.0291
14198W        W30672   0.573  14.743   1.503  0.5241  0.1380 -0.1678
14199W        W30673  18.610   3.279   1.221 -0.2645 -0.3497  0.3143
14200W        W30674   1.350  11.498  10.763  0.0772  0.0865  0.0290
14201W        W30675  15.823   1.666   2.284  0.0543 -0.2194 -0.0815
14202W        W30676   5.396   0.420  10.534  0.1768 -0.0908 -0.0379
14203W        W30677  10.352  13.021  11.070 -0.0435 -0.1460  0.0795
14204W        W30678   9.873  15.094  10.307 -0.0073  0.0971  0.2077
14205W        W30679   7.699  13.682   2.303  0.1391  0.2734 -0.2268
14206W        W30680   0.804   1.180  10.385 -0.3703 -0.1338 -0.0660
14207W        W30681  12.381  17.661   0.265 -0.2442  0.0008  0.1497
14208W        W30682  10.505   5.569  10.981 -0.1122 -0.4131 -0.0904
14209W        W30683  15.431  12.950  10.992 -0.1574 -0.1648 -0.0546
14210W        W30684   4.035   3.210   2.978 -0.0107 -0.1031 -0.0018
14211W        W30685   6.176  14.693  13.420 -0.1651 -0.2384  0.1861
14212W        W30686   2.261   3.927   0.864 -0.0246  0.1214  0.0203
14213W        W30687  15.573   9.522   4.868  0.2222 -0.2585  0.1803
14214W        W30688   1.136  19.302  10.528 -0.2618  0.2116  0.5598
14215W        W30689  13.386  15.935   5.051 -0.2085  0.2551  0.1787
14216W        W30690  14.262   9.636   0.756  0.1147 -0.1626 -0.1047
14217W        W30691   1.202   8.093   1.656 -0.2299 -0.0074  0.2383
14218W        W30692  17.013  13.111   0.026 -0.0211  0.3834 -0.1585
14219W        W30693  15.898  11.499   1.513  0.3106  0.0357  0.1788
14220W        W30694  13.381  11.624  12.113  0.4020  0.0286  0.0063
14221W        W30695   2.261   1.748   3.622 -0.1416  0.3404  0.1342
14222W        W30696  13.516   1.370   2.031 -0.0128  0.2950 -0.0217
14223W        W30697   5.985   1.753  13.388  0.0549 -0.0901 -0.0744
14224W        W30698   6.787  11.042   0.364 -0.3512  0.1802  0.1323
14225W        W30699  16.521  15.462   0.903  0.3623  0.0299  0.1793
14226W        W30700   0.561  17.032   4.911  0.0235 -0.0385  0.2910
14227W        W30701   0.851   0.627  10.318 -0.0764 -0.0135  0.1817
14228W        W30702   9.204  13.782   3.693 -0.1978  0.0137  0.0177
14229W        W30703   5.799  16.734  11.780  0.0621 -0.3183  0.1445
14230W        W30704   3.348  11.793   2.380 -0.4447 -0.0061  0.2938
14231W        W30705   8.169  12.402   4.542  0.2616 -0.1070 -0.1583
14232W        W30706   6.862  13.298  12.106  0.2318 -0.2545 -0.0022
14233W        W30707   5.440  13.410   1.712 -0.0646 -0.0573  0.1013
14234W        W30708   2.924  13.009   3.410  0.0236 -0.3703 -0.2074
14235W        W30709   5.666   9.198  13.114 -0.0319  0.2359  0.0115
14236W        W30710  16.566  11.593  10.901  0.0210 -0.1600 -0.1971
14237W        W30711   6.155  16.767  12.988  0.0396  0.0569  0.1252
14238W        W30712  12.167   5.613   0.564 -0.2352 -0.2085 -0.0848
14239W        W30713   7.733  10.186   1.191  0.2785 -0.0673  0.2253
14240W        W30714   8.967  17.723   4.304  0.0725 -0.1600  0.1074
14241W        W30715  10.648  18.966   5.152  0.0097 -0.1101 -0.2153
14242W        W30716  18.056   9.036   4.716  0.1787  0.2770  0.2381
14243W        W30717  19.449  17.294   9.654  0.2347  0.0716 -0.0454
14244W        W30718   8.679  16.852   3.736 -0.3597  0.0429  0.0064
14245W        W30719  11.450   3.566   3.707 -0.0883 -0.1647 -0.0617
14246W        W30720  11.446  11.870   4.284 -0.0068 -0.3426  0.2596
14247W        W30721  18.196  18.596  12.103 -0.0751  0.1090  0.0608
14248W        W30722  16.610   6.148  10.709  0.0328 -0.1420 -0.0744
14249W        W30723  18.069  18.180   1.902  0.1064 -0.0002 -0.1331
14250W        W30724   3.648   0.086   0.836 -0.0160 -0.4552  0.2066
14251W        W30725  15.924  15.201   3.738  0.1256  0.1696  0.0471
14252W        W30726   3.239  12.143   3.987 -0.1035  0.0812 -0.0079
14253W        W30727   0.717   4.639  10.091 -0.4368  0.1536 -0.2313
14254W        W30728  11.107  15.755   2.328 -0.1775  0.2267  0.2126
14255W        W30729   2.487  18.099  14.206  0.0272 -0.0901 -0.0964
14256W        W30730   9.238  18.679  13.093  0.1233  0.2501  0.3778
14257W        W30731  16.177  11.244  11.219 -0.2717 -0.1787  0.2640
14258W        W30732  18.452   7.102  10.813  0.1681  0.1329 -0.1968
14259W        W30733   7.531  19.336   3.889 -0.1775 -0.2719  0.0745
14260W        W30734   0.198  10.979  11.581  0.1007  0.1647  0.0944
14261W        W30735  19.515  12.441  11.173  0.1598  0.0740 -0.1708
14262W        W30736   2.696   3.175  12.957 -0.0086 -0.1119  0.1925
14263W        W30737   2.821  19.073   2.020 -0.2324 -0.0916 -0.0868
14264W        W30738  11.115   5.893  13.733  0.0671  0.0364 -0.2722
14265W        W30739   6.042   3.812   3.836  0.2555 -0.0324  0.0617
14266W        W30740  12.240   2.616   9.886 -0.0192 -0.3033  0.0614
14267W        W30741   7.734  10.527  14.414  0.0165 -0.1773  0.3559
14268W        W30742  11.783  12.425   3.561 -0.1256  0.0236  0.1801
14269W        W30743  15.836   4.827   3.699  0.1871  0.1566  0.3126
14270W        W30744   4.548  16.160   4.390  0.0695 -0.0023 -0.0328
14271W        W30745   5.849  17.115   9.858 -0.2260 -0.2413 -0.1970
14272W        W30746  14.829  15.802  11.853 -0.0172  0.0751 -0.4212
14273W        W30747   7.688   3.069   3.047  0.1065 -0.1259  0.2768
14274W        W30748   4.903  10.141  10.008  0.0048 -0.0815  0.3445
14275W        W30749   1.421   4.833   3.067  0.0445 -0.0111  0.2117
14276W        W30750   4.995   8.733   0.332  0.0398 -0.0163 -0.2240
14277W        W30751  14.369   8.749  14.293 -0.1893 -0.1937 -0.0707
14278W        W30752  18.944   1.530   3.281 -0.2425 -0.2148  0.2789
14279W        W30753   9.051  15.888  12.697  0.1154  0.1174 -0.1008
14280W        W30754  10.813   9.077   4.476 -0.1262 -0.0916  0.1971
14281W        W30755  10.409  19.222  11.746 -0.0179  0.1258  0.3319
14282W        W30756  13.422   6.563   3.724 -0.3712 -0.1280 -0.1972
14283W        W30757   7.922   9.739  11.094  0.0485 -0.1521  0.1088
14284W        W30758  12.215   5.179   3.330  0.3828 -0.0711  0.3658
14285W        W30759  13.764  17.268  14.606  0.0283 -0.0491 -0.1298
14286W        W30760  19.390  17.926  14.095  0.0450 -0.2396 -0.0449
14287W        W30761  12.371  14.921  13.733  0.1207 -0.2750  0.4353
14288W        W30762  13.957   3.941   0.536  0.1111 -0.1131  0.1525
14289W        W30763   1.573  19.595   3.010  0.1891  0.2507 -0.0106
14290W        W30764   8.761   8.694   2.398  0.4045  0.0937  0.0571
14291W        W30765   5.160   0.348   2.529 -0.1504  0.0353  0.0375
14292W        W30766   3.475   8.942   8.924  0.0891 -0.3900  0.1098
14293W        W30767  13.520   6.446  11.211 -0.0557  0.0377 -0.3507
14294W        W30768  15.610  10.385   1.160  0.0654 -0.5911  0.0293
14295W        W30769  18.171  19.227   1.999  0.5552  0.0745 -0.0849
14296W        W30770   9.450  19.080  14.200  0.0890  0.3397 -0.1680
14297W        W30771  10.493  17.165   3.897 -0.5362  0.1208  0.0796
14298W        W30772   5.496  14.747  14.595  0.2904  0.2667 -0.0876
14299W        W30773  17.475  13.177  13.236  0.1573  0.5696 -0.4336
14300W        W30774  13.657   3.519   2.717 -0.1149 -0.0270 -0.2583
14301W        W30775  11.469  17.933   5.708 -0.1093 -0.0549 -0.1476
14302W        W30776  12.284  10.760  11.831  0.0052  0.0471  0.0605
14303W        W30777   7.397   6.684   1.305  0.3113  0.0502 -0.0760
14304W        W30778   3.353  10.740  14.603 -0.0497 -0.0407  0.2692
14305W        W30779   9.360  13.355  11.798  0.4348  0.0613 -0.1957
14306W        W30780   3.935   7.468  11.184 -0.1617  0.0335  0.2048
14307W        W30781   1.873   2.486   4.270 -0.4284 -0.1161 -0.3216
14308W        W30782   9.666  18.408  11.601  0.1106 -0.0318  0.3504
14309W        W30783   8.154  12.007   0.781 -0.0125  0.3739  0.3861
14310W        W30784   5.852  14.936   4.984  0.1188  0.0886  0.1461
14311W        W30785  11.806  15.977   3.749  0.2262  0.0906 -0.3398
14312W        W30786   5.175   8.286  13.166  0.2084  0.4637  0.0176
14313W        W30787   7.891   5.299  13.333  0.0175 -0.0381 -0.1153
14314W        W30788  16.891  11.764   2.622 -0.3328 -0.1464  0.1083
14315W        W30789  18.872  16.724   1.287 -0.1301 -0.1800  0.2468
14316W        W30790   9.883  14.607  13.647 -0.2325 -0.1069  0.0900
14317W        W30791  17.846   1.516  11.404 -0.2720  0.0147  0.1374
14318W        W30792  18.301   6.711   2.874  0.1780  0.2098  0.1900
14319W        W30793  11.196   3.466   2.851  0.2806 -0.1088 -0.2431
14320W        W30794   9.894  13.543   0.218 -0.1768 -0.0116 -0.0989
14321W        W30795  14.693  12.840  13.509  0.0523 -0.0365 -0.0408
14322W        W30796   7.805  11.850  11.262  0.0930  0.2892 -0.1181
14323W        W30797  14.893  16.820  11.486 -0.1454 -0.1015  0.1214
14324W        W30798   0.261   3.398  11.722 -0.0846 -0.2659  0.2622
14325W        W30799   0.935  18.681  10.667 -0.0834 -0.2602  0.1088
14326W        W30800  10.824  10.485   1.152 -0.0827 -0.2236 -0.3058
14327W        W30801  11.044   2.794   1.014 -0.0032  0.2235  0.0611
14328W        W30802   5.411   0.814  14.318  0.1037  0.1849 -0.2070
14329W        W30803   3.867  14.886   4.021 -0.1061  0.2967 -0.1184
14330W        W30804   7.466   1.781   1.368 -0.1797  0.0103 -0.0229
14331W        W30805   8.941  10.884   3.631  0.1148 -0.0331  0.1537
14332W        W30806   7.916   4.214   4.233  0.1982  0.1465 -0.1709
14333W        W30807  16.954   7.187   4.086  0.2431 -0.0316  0.2020
14334W        W30808   2.880  15.067   0.445 -0.2541  0.1019 -0.1883
14335W        W30809   4.889   7.063   4.077 -0.3432 -0.0609  0.4950
14336W        W30810  16.588  12.926   2.125  0.0861  0.0654  0.4604
14337W        W30811   2.699   2.944   2.305  0.2186 -0.3118 -0.2307
14338W        W30812  16.578  16.640  12.963  0.0868  0.1232  0.2841
14339W        W30813  17.611  11.580  10.977  0.1798  0.3122  0.0687
14340W        W30814   7.256  19.324   3.286 -0.2901 -0.0303 -0.1157
14341W        W30815   6.537   9.077   1.708  0.2535 -0.2306  0.3299
14342W        W30816  19.106  16.040  13.811  0.0995  0.0656 -0.2781
14343W        W30817  11.564  12.779  10.781  0.0939  0.0143  0.0663
14344W        W30818  14.583   3.395  12.315 -0.1153  0.3496 -0.3222
14345W        W30819   4.855  12.917   0.887 -0.3670  0.1505 -0.1291
14346W        W30820   5.160   7.066  12.673 -0.0350 -0.2244 -0.1888
14347W        W30821   8.903  18.343   2.579  0.2240 -0.1664  0.0285
14348W        W30822   4.611   7.310  13.835  0.0420 -0.0996 -0.1283
14349W        W30823  13.296  16.397   0.175  0.1390 -0.1510  0.1897
14350W        W30824  18.211  14.042   2.504 -0.0780  0.2876  0.1474
14351W        W30825   2.591  15.994   1.046  0.1565 -0.1533  0.1121
14352W        W30826   4.667   2.026  11.390 -0.0323  0.2741  0.1266
14353W        W30827   4.943  12.739   0.435  0.0363  0.0215  0.2609
14354W        W30828  11.440   5.515  13.490 -0.3305 -0.0373 -0.0068
14355W        W30829  10.575  11.632   5.672 -0.0736 -0.0211  0.0150
14356W        W30830  15.973  10.398  11.159  0.0273 -0.1381  0.0694
14357W        W30831   6.752   2.808  10.867 -0.1283  0.4955  0.5120
14358W        W30832   0.059  18.433   3.035  0.3089 -0.3743  0.3027
14359W        W30833  16.072   1.257   0.305  0.0739  0.0519 -0.4183
14360W        W30834   2.276   4.129  13.989 -0.3220  0.2242  0.2014
14361W        W30835  14.570  15.698   4.347  0.3610 -0.1010 -0.1648
14362W        W30836   9.530   1.056   0.028 -0.2526 -0.0099  0.0339
14363W        W30837   3.266   7.908  11.056  0.0561 -0.1446 -0.0329
14364W        W30838   9.532   1.167  11.799 -0.0980  0.2651  0.1305
14365W        W30839  10.594  10.846  13.588  0.0833 -0.0407  0.1099
14366W        W30840  16.708   0.449   4.154 -0.1817 -0.0337 -0.2483
14367W        W30841  13.933   9.839  12.656 -0.0877  0.0620 -0.0266
14368W        W30842  13.951  16.878  12.108 -0.0138  0.0296 -0.0989
14369W        W30843   3.051   7.783  13.934 -0.1091  0.0546  0.2148
14370W        W30844  15.742  10.360   0.275  0.2883 -0.1600  0.0447
14371W        W30845   6.499  14.942   1.628  0.0730  0.0721  0.0797
14372W        W30846  17.726   5.033   5.506  0.1707 -0.0019  0.1315
14373W        W30847   7.340   0.709  14.280  0.1091 -0.1195  0.4591
14374W        W30848  10.035  15.242   0.956 -0.1949 -0.0727 -0.0516
14375W        W30849   2.567   0.751  11.110  0.2363  0.0292 -0.2394
14376W        W30850   4.914  15.588  11.233  0.1503 -0.1576 -0.1042
14377W        W30851  12.025   3.401   3.219  0.3999  0.1682  0.0573
14378W        W30852  14.173  18.731   3.921 -0.1124  0.1555 -0.1246
14379W        W30853   6.262   9.121   3.128  0.0019 -0.0890 -0.4054
14380W        W30854   8.421   7.938  11.959  0.1532  0.1263  0.0239
14381W        W30855  12.219  12.692  13.387  0.2184  0.3921 -0.3355
14382W        W30856   6.047  10.650   0.394 -0.3877 -0.1958 -0.0359
14383W        W30857  13.252  10.201  13.008 -0.0769 -0.0773 -0.1453
14384W        W30858   5.206   8.713   2.269  0.3133 -0.1231  0.1645
14385W        W30859   3.668  17.897  13.905  0.0707  0.0362  0.0808
14386W        W30860  10.467   7.385  13.094 -0.0364 -0.1172 -0.1757
14387W        W30861  11.801   1.588   5.335 -0.0396 -0.2403 -0.2218
14388W        W30862   1.478  10.971  12.068  0.1238 -0.3474 -0.5732
14389W        W30863   8.123   1.989  12.310  0.1988  0.3907  0.0390
14390W        W30864   0.067   1.858  10.439 -0.1432  0.0038  0.1008
14391W        W30865   6.225   3.263   2.058  0.2442  0.1401  0.1687
14392W        W30866   7.899  13.530   1.381 -0.0745  0.0257  0.2695
14393W        W30867   3.327  13.316  13.939  0.2857 -0.0671 -0.3457
14394W        W30868  14.469  12.381  12.394  0.1492  0.1293 -0.0694
14395W        W30869   6.545   3.366  12.928  0.0256 -0.0453 -0.2140
14396W        W30870  10.125   4.309   1.066 -0.2705  0.0102  0.0503
14397W        W30871   6.243  16.569  13.900 -0.1123 -0.0917  0.3241
14398W        W30872  12.395   2.561   1.019 -0.0942  0.0202 -0.0194
14399W        W30873   7.192  15.231   3.219  0.0592  0.3520  0.0502
14400W        W30874  19.011   2.600  13.446  0.2847 -0.0564 -0.0829
14401W        W30875   7.448  14.488   4.235  0.1527  0.1034 -0.1268
14402W        W30876   5.521   5.193  12.482  0.1396 -0.2744  0.1778
14403W        W30877   4.255  17.421  12.432 -0.1639  0.3149 -0.0149
14404W        W30878  16.148   5.481  11.727 -0.0763 -0.1131 -0.0066
14405W        W30879  11.898  17.926   2.080 -0.1832 -0.1039  0.1345
14406W        W30880   3.327  10.629   4.233 -0.1321  0.3274  0.0575
14407W        W30881   9.753   7.211  11.585 -0.1415 -0.2718 -0.1570
14408W        W30882  14.427   4.737  10.440  0.1776 -0.0834  0.2877
14409W        W30883   8.101  10.016  12.272 -0.0592  0.0259 -0.0898
14410W        W30884  16.213  18.145  11.771 -0.1610  0.0025  0.0518
14411W        W30885   5.979   2.791   3.892 -0.1173  0.1041 -0.2030
14412W        W30886   2.687   6.897  14.069 -0.0859  0.0345 -0.3911
14413W        W30887   8.494   2.760  12.913 -0.0658  0.1342  0.1420
14414W        W30888  19.615   1.693   2.334  0.2746 -0.1198 -0.2837
14415W        W30889  12.052  18.694   1.785  0.4167  0.1073  0.0293
14416W        W30890  10.905   6.958  10.175  0.3752 -0.2703  0.0796
14417W        W30891   7.414  11.995   2.042 -0.2029 -0.1580  0.1213
14418W        W30892   6.096   6.950  12.294  0.0357 -0.2147  0.0489
14419W        W30893   1.971   7.738  11.565 -0.2909 -0.1164 -0.3449
14420W        W30894   1.029  16.186   5.521  0.3083  0.0302  0.0691
14421W        W30895   1.121   3.445  10.748 -0.0003  0.2542 -0.2643
14422W        W30896   5.071   2.244   2.740 -0.1867  0.1743 -0.5185
14423W        W30897  18.495  18.068  10.876  0.1309 -0.3524 -0.1134
14424W        W30898   3.676  13.228  11.471 -0.1664 -0.3767  0.0815
14425W        W30899   5.787  15.884  12.725  0.1019 -0.0387 -0.4909
14426W        W30900  18.905   8.870   3.603 -0.0224  0.0621 -0.0260
14427W        W30901  11.399  10.659   3.739 -0.1646 -0.2695  0.1520
14428W        W30902   2.749   1.760   3.569  0.0522  0.2228 -0.0020
14429W        W30903  11.329   2.012  12.003  0.1126  0.0554  0.0330
14430W        W30904   4.657  11.075  13.519  0.0906  0.0004  0.2059
14431W        W30905   5.802  15.874   4.033 -0.2994  0.2317  0.2970
14432W        W30906   6.828  12.787  12.136  0.0492  0.2903  0.2871
14433W        W30907  10.799  12.815   2.377  0.3186 -0.3758  0.1537
14434W        W30908   6.702   6.534   1.950  0.2031 -0.0625 -0.0633
14435W        W30909   1.162  13.823   4.705  0.1740  0.1634 -0.1899
14436W        W30910  19.116   0.246  13.875  0.0612  0.3912 -0.0997
14437W        W30911   5.854  12.332  12.880 -0.0309  0.0093 -0.0795
14438W        W30912  15.120   7.341   4.370  0.0551 -0.1657  0.3419
14439W        W30913   9.140   8.429   2.524  0.0323 -0.0923  0.3102
14440W        W30914  10.534  17.673  12.632  0.2103 -0.1514  0.1099
14441W        W30915  15.212  15.293  14.469  0.1113  0.2065 -0.0107
14442W        W30916  13.295   2.766  10.149  0.5339 -0.1746 -0.1958
14443W        W30917   1.056   7.331   3.527 -0.0267 -0.2482 -0.2327
14444W        W30918   6.248  11.570  11.139 -0.0718 -0.4929 -0.2167
14445W        W30919  12.000   0.793  10.068  0.0018  0.2574 -0.0730
14446W        W30920   7.592  17.291   3.164  0.0464 -0.4279  0.1142
14447W        W30921   0.610  15.155   1.784 -0.0369 -0.1141  0.1629
14448W        W30922  15.489  15.979   2.222  0.0755  0.0674  0.0252
14449W        W30923  12.152  17.374   2.877 -0.3550  0.1108 -0.1650
14450W        W30924  18.337  11.675  11.281 -0.0109  0.0782 -0.0410
14451W        W30925   1.066   7.686   4.388 -0.0505 -0.0499 -0.0409
14452W        W30926  14.165  16.598  14.644  0.0656  0.1608 -0.3043
14453W        W30927   2.555   3.850   2.260 -0.1302 -0.1044 -0.1902
14454W        W30928  13.890  15.602  10.507 -0.0186 -0.0780  0.0055
14455W        W30929  10.413   1.232  10.838 -0.3332  0.1748 -0.1227
14456W        W30930   7.708   4.727  12.161  0.0162 -0.3384  0.4794
14457W        W30931   1.773  11.611   5.415 -0.1184  0.0439  0.3234
14458W        W30932  12.025  14.735   3.077  0.2293  0.0189  0.2331
14459W        W30933   3.772  17.503   0.393 -0.0619  0.1321 -0.0279
14460W        W30934   7.619   5.245   4.704  0.0093  0.1407  0.1358
14461W        W30935  19.252   2.030   4.265  0.0064  0.2504 -0.5134
14462W        W30936  13.486  10.690   0.754 -0.1496  0.0664  0.1407
14463W        W30937   4.838   5.834   0.906 -0.0968 -0.2101  0.0336
14464W        W30938  17.153  18.870   0.438 -0.0305 -0.2263  0.0336
14465W        W30939   5.045  10.049   8.891  0.2443 -0.3017 -0.0997
14466W        W30940  18.959  17.013  11.261  0.1076 -0.1302 -0.1375
14467W        W30941   9.626   3.081   1.099  0.1692 -0.1587 -0.0785
14468W        W30942   9.303   5.438  11.185 -0.0210  0.0880  0.1806
14469W        W30943  10.900  18.894  13.855 -0.0350 -0.1326 -0.1852
14470W        W30944   6.755  11.451  10.824  0.0530 -0.2382  0.4363
14471W        W30945   8.198   6.538   0.490 -0.0848 -0.0271 -0.2582
14472W        W30946   3.713  10.230  13.340  0.0425 -0.2268 -0.3447
14473W        W30947  10.178  11.249   4.284 -0.4355  0.3063 -0.1495
14474W        W30948  12.638   8.828   3.861 -0.0906  0.0673 -0.0155
14475W        W30949   5.321  14.930   1.794 -0.0926  0.4000  0.1700
14476W        W30950   0.725   8.466   0.225 -0.0806 -0.0071 -0.4675
14477W        W30951   3.738  16.654   2.747  0.0179  0.0827  0.4001
14478W        W30952  13.027  12.975   0.855  0.0275  0.2982  0.3503
14479W        W30953  11.650  18.738  12.672  0.0143  0.3429  0.0494
14480W        W30954  10.542  10.875  11.333 -0.2684  0.1126 -0.1204
14481W        W30955  17.188  18.435   4.519 -0.0882  0.0281 -0.1309
14482W        W30956  11.876   2.249  10.465  0.1742 -0.1860 -0.3942
14483W        W30957   4.605  16.100   4.893 -0.1084 -0.3054  0.2647
14484W        W30958  16.900  13.883  12.576 -0.0297 -0.2127  0.0748
14485W        W30959   8.378  14.193   4.236 -0.0416  0.1680  0.2743
14486W        W30960  10.253  15.284   3.321  0.0724 -0.1208 -0.2292
14487W        W30961   6.362   6.730   3.747 -0.3118 -0.0611  0.1004
14488W        W30962   5.998   1.308   0.847 -0.3493 -0.2148  0.2675
14489W        W30963  18.644   7.641  12.372  0.0547 -0.0508  0.3680
14490W        W30964   2.551   0.460  12.221 -0.0042  0.2007  0.0634
14491W        W30965  15.703   6.342   4.631  0.1590  0.0892 -0.2981
14492W        W30966   0.679  17.578   1.179 -0.0554  0.1741  0.0211
14493W        W30967   0.472   4.549   5.031 -0.1294  0.0093  0.0669
14494W        W30968   7.515  13.603   1.786  0.0998 -0.1313  0.0002
14495W        W30969   0.854   8.608   4.890  0.3005 -0.0258  0.2507
14496W        W30970   8.362  14.816  10.821 -0.2430  0.0700  0.1381
14497W        W30971   2.391   9.176   3.521 -0.3349  0.2574  0.3286
14498W        W30972  12.821  12.943   3.526  0.0265 -0.4312 -0.0395
14499W        W30973   7.239  18.948   2.290 -0.0288 -0.2172  0.2907
14500W        W30974   7.880   4.502   3.436  0.0522  0.2401  0.4178
14501W        W30975  13.012  19.018   3.085 -0.2108 -0.2054  0.1611
14502W        W30976   3.506   9.793  12.558 -0.0731  0.1675  0.2387
14503W        W30977  13.768   3.887  11.308 -0.0060 -0.0246  0.2865
14504W        W30978   0.479   9.341  13.272  0.5410 -0.0951 -0.2134
14505W        W30979  19.134   1.095   1.822  0.0147  0.0536 -0.2579
14506W        W30980   3.043   2.876  11.298 -0.3562  0.0992 -0.2490
14507W        W30981   1.682   0.466  13.988  0.2909  0.1887 -0.4616
14508W        W30982   1.775  13.462  13.536 -0.3538 -0.1728  0.0994
14509W        W30983  14.075  17.325  14.071 -0.1902 -0.1550 -0.1913
14510W        W30984   2.115  17.249  12.688  0.0084  0.1507  0.0202
14511W        W30985  15.375  15.404   3.474 -0.1010 -0.0252 -0.0648
14512W        W30986   9.028  12.235  12.179 -0.0091  0.0820 -0.1430
14513W        W30987   5.845  14.513   3.957  0.1042 -0.1935  0.1476
14514W        W30988   6.568   9.553   2.476 -0.0080 -0.2128 -0.0787
14515W        W30989   6.375   7.414  12.423 -0.0997  0.0414  0.3419
14516W        W30990   9.911   0.332   5.290 -0.3452  0.1837 -0.1053
14517W        W30991   3.247  15.867   1.077 -0.0011  0.0429 -0.0799
14518W        W30992  15.390  11.005  11.331 -0.0907  0.1573 -0.2093
14519W        W30993  18.825  19.515   2.587  0.0232 -0.2536 -0.3769
14520W        W30994   0.260   0.384  12.811  0.4311 -0.1034 -0.0409
14521W        W30995  18.373  13.434   1.720 -0.4930 -0.0351  0.2867
14522W        W30996  11.489  12.554  12.199 -0.0131 -0.2773 -0.3025
14523W        W30997  14.175   1.196   2.795 -0.0328 -0.0512  0.3481
14524W        W30998   8.467   7.528  11.698  0.3168  0.2531  0.1977
14525W        W30999  13.676  18.631   3.780 -0.2615  0.0639 -0.4630
14526W        W31000  10.163   0.356  13.356  0.1650  0.1046 -0.0563
14527W        W31001  15.938   4.125  10.522  0.0469  0.0355 -0.3475
14528W        W31002  16.171  14.941   4.136  0.1410 -0.0213  0.0779
14529W        W31003   8.150   9.900  13.279 -0.1503  0.1016  0.1079
14530W        W31004  12.203  10.453  11.434 -0.3423  0.1226 -0.1711
14531W        W31005   6.502   5.199  10.434  0.1486 -0.1448 -0.1862
14532W        W31006  18.784   0.061   4.562  0.0981  0.2047  0.1798
14533W        W31007   1.150  17.685  10.600  0.2973  0.0410 -0.0865
14534W        W31008  14.019   6.411   3.872  0.1298  0.1640 -0.1413
14535W        W31009   7.067   6.500  13.770  0.0169  0.1749 -0.0170
14536W        W31010  19.221  12.373   5.104  0.4012 -0.1386 -0.2775
14537W        W31011   2.546   1.125  11.647 -0.0688 -0.3636 -0.1482
14538W        W31012   1.381  10.312  13.920  0.1527  0.0206  0.1185
14539W        W31013   3.013  10.697   3.648 -0.0974  0.5773 -0.0834
14540W        W31014   6.379  15.530  12.169 -0.0715 -0.3040  0.2960
14541W        W31015  18.438   1.453   1.875 -0.1051  0.0638  0.2921
14542W        W31016   7.668   6.130   0.068 -0.0621 -0.1368  0.0581
14543W        W31017   7.858   4.390  10.222  0.1903  0.1105  0.1876
14544W        W31018   2.786  10.526   9.835  0.0962 -0.0520  0.2916
14545W        W31019  19.454   4.535   2.346 -0.3123 -0.1031 -0.2035
14546W        W31020   3.197   5.009  10.349 -0.0947 -0.0832  0.0340
14547W        W31021   6.589  10.676   2.937 -0.0830 -0.0172 -0.0495
14548W        W31022   2.441  11.210  11.602  0.0110  0.1284 -0.1931
14549W        W31023   8.811  14.179  13.940 -0.0026  0.1775  0.2804
14550W        W31024  18.045   0.767  13.155  0.0784 -0.2637  0.2497
14551W        W31025  15.512  18.409   5.165 -0.0094  0.2189  0.1534
14552W        W31026  17.627  18.336   2.698 -0.1206  0.2714 -0.2211
14553W        W31027  18.657  18.226   3.856  0.2593  0.1361  0.0351
14554W        W31028   2.140  18.800   3.489 -0.1590 -0.0630  0.0280
14555W        W31029  12.880   9.684   1.729 -0.2450 -0.1381 -0.1823
14556W        W31030   2.760   9.629  12.264 -0.0221 -0.1369 -0.1342
14557W        W31031   2.343   1.678   4.763 -0.1078 -0.0273  0.3511
14558W        W31032   7.949   9.786  11.875 -0.0899  0.1242  0.1273
14559W        W31033   1.209   9.605  14.271  0.0233 -0.0498  0.0891
14560W        W31034  19.094  13.526   4.287 -0.0521 -0.1235 -0.2589
14561W        W31035   8.925   2.607  10.089  0.0259  0.2470 -0.3108
14562W        W31036   1.536  16.269   5.535  0.1397  0.0499 -0.1901
14563W        W31037  14.642   1.170   1.949  0.0333 -0.1723 -0.1553
14564W        W31038  13.645   7.983   4.920  0.1222  0.0368 -0.0921
14565W        W31039  10.651   8.498   1.566 -0.0087 -0.0753 -0.0368
14566W        W31040   3.937  15.802   1.020  0.1170  0.0113 -0.0372
14567W        W31041  13.635  17.947   1.230 -0.1599 -0.0915 -0.0870
14568W        W31042   9.506  15.967  12.418  0.0597 -0.4098 -0.0134
14569W        W31043  13.464   8.300   9.865  0.0333  0.2037  0.0102
14570W        W31044   3.126  19.344  13.642  0.1658  0.3244  0.0496
14571W        W31045   2.576   8.199  12.078  0.1612  0.2009  0.0774
14572W        W31046   1.770  19.032   3.780  0.0251 -0.0693  0.3213
14573W        W31047  13.252  11.669   3.335 -0.2964  0.2774 -0.1078
14574W        W31048   9.478  12.851   0.028  0.1838 -0.1762  0.4046
14575W        W31049   4.377  16.945  12.409 -0.1067  0.0053 -0.3416
14576W        W31050   2.980  13.014  13.770 -0.0193  0.0184  0.2581
14577W        W31051   5.969   7.810  11.833  0.3196  0.2252 -0.1803
14578W        W31052  16.980  14.364  13.771 -0.0593 -0.0661  0.1936
14579W        W31053  16.552   9.061   2.048 -0.0301  0.0990 -0.4846
14580W        W31054   8.442  15.994   4.820 -0.1242  0.3174 -0.0588
14581W        W31055  11.488   4.183  12.937 -0.1021  0.1495  0.1798
14582W        W31056   5.269  15.679  10.645  0.1577  0.1773  0.0570
14583W        W31057  18.167  11.766   0.592 -0.3634  0.2558  0.0353
14584W        W31058  13.195   1.201   0.576  0.2400  0.0751 -0.1033
14585W        W31059   0.847   1.166  13.001 -0.1473  0.2570  0.1603
14586W        W31060  18.682   9.404  11.848 -0.0329  0.0704 -0.2228
14587W        W31061   2.310   3.844  13.110  0.0522  0.0233  0.0032
14588W        W31062   2.651  14.123   0.284 -0.0743  0.1226 -0.1625
14589W        W31063  11.204   6.638   4.504 -0.0238 -0.1858  0.0276
14590W        W31064  11.856   3.872   3.010 -0.2704 -0.0284 -0.1427
14591W        W31065   2.532   5.085  12.641  0.0216  0.1248  0.1132
14592W        W31066   0.474  15.091  12.680 -0.4723  0.3540 -0.1089
14593W        W31067   2.228  18.386   2.336 -0.2003 -0.0979 -0.0769
14594W        W31068  17.055  10.557  12.465 -0.3676  0.0320 -0.2699
14595W        W31069   3.848   2.977   0.974  0.0817  0.0833  0.1664
14596W        W31070  16.218  10.816   2.113 -0.0508  0.0240 -0.4860
14597W        W31071   0.349  14.281   1.336  0.2068 -0.1034 -0.0622
14598W        W31072  12.621   5.001  10.411 -0.1210 -0.2050 -0.0140
14599W        W31073  10.227  16.958   1.539 -0.2541  0.4252  0.3346
14600W        W31074  15.316  10.762   1.156  0.0663 -0.2140  0.0981
14601W        W31075  14.968  17.798  13.947 -0.1659  0.0279 -0.5372
14602W        W31076  18.527  18.307  14.285  0.0357  0.1683  0.0947
14603W        W31077   5.671   1.441  11.938 -0.0888 -0.0313  0.0011
14604W        W31078   2.355  19.503   0.681 -0.0981 -0.2304  0.1516
14605W        W31079  12.866   6.379  14.149 -0.2332  0.1022  0.2612
14606W        W31080   9.148  16.902   3.458  0.0208  0.0656  0.0717
14607W        W31081  19.330   5.261   4.911  0.2381 -0.2051  0.0592
14608W        W31082  17.607  12.193   0.804  0.2369 -0.1118  0.2062
14609W        W31083   8.456   1.766   0.660 -0.2730  0.0664 -0.0063
14610W        W31084   7.968   4.837   9.953 -0.2913  0.1041 -0.2383
14611W        W31085   9.696  18.096   3.275 -0.3476  0.2943 -0.2993
14612W        W31086   0.970  16.740  13.361 -0.1056  0.1376 -0.0863
14613W        W31087  18.218   9.497  11.721  0.0844 -0.2307  0.1586
14614W        W31088   1.144  14.585  13.158 -0.3232  0.0204 -0.1632
14615W        W31089   6.488  18.236   1.909  0.2100 -0.1437  0.1740
14616W        W31090  16.106  17.132  12.763 -0.0096 -0.3785  0.1906
14617W        W31091   2.492   4.881  11.557 -0.4467  0.0257  0.0992
14618W        W31092  16.512  17.829  13.926 -0.0228  0.2597  0.1461
14619W        W31093  16.730  14.299   0.674  0.0572 -0.1923  0.1477
14620W        W31094  11.565   0.983  13.343 -0.1155 -0.2188 -0.1164
14621W        W31095   7.818   8.721  13.974 -0.1697 -0.1572  0.2629
14622W        W31096  14.688   2.111   2.702  0.0349 -0.1949 -0.0145
14623W        W31097  14.257   5.147  10.767  0.0408 -0.1235  0.2064
14624W        W31098  16.086   7.533   0.516 -0.0701  0.1919 -0.1235
14625W        W31099   0.840   9.090   2.559  0.0310  0.2160  0.2281
14626W        W31100   0.319  15.963  12.335  0.0901  0.1814  0.1378
14627W        W31101   8.736   5.706  12.731  0.1176  0.2861  0.0569
14628W        W31102   0.212   9.423  10.246  0.2571 -0.2578 -0.0715
14629W        W31103   0.855   8.350   1.320 -0.1589  0.0756 -0.3145
14630W        W31104   6.832   3.064   4.347  0.4062 -0.0158  0.2378
14631W        W31105  11.694  16.832   4.911  0.1931 -0.1164 -0.2616
14632W        W31106   8.945  15.709   1.236  0.0732 -0.2505  0.1706
14633W        W31107   7.885  16.784  11.670  0.0380  0.4023  0.3373
14634W        W31108   7.219   1.691   9.817  0.2026  0.1348  0.0838
14635W        W31109   4.690  11.442   0.777  0.0087  0.2514 -0.2363
14636W        W31110   6.070  12.206   3.668  0.0294 -0.0690  0.0379
14637W        W31111   0.544  18.946  11.113  0.1140  0.2730 -0.2677
14638W        W31112  19.489   7.347   0.234  0.3626  0.2247  0.2167
14639W        W31113   8.077   8.719  12.162  0.2794 -0.2453 -0.0843
14640W        W31114  19.312   4.773   1.599  0.0378  0.2513  0.5428
14641W        W31115  10.471  13.495   0.087 -0.3046 -0.0840  0.4229
14642W        W31116  15.365  16.725   4.830 -0.0282 -0.2733 -0.0259
14643W        W31117   8.117  18.594   2.690 -0.0891  0.1734 -0.1226
14644W        W31118  13.327  12.081  11.193  0.0644 -0.0751  0.1147
14645W        W31119   4.911  18.295  12.328 -0.3221 -0.0269 -0.0020
14646W        W31120  17.697   1.473  11.893  0.2300 -0.0878  0.2194
14647W        W31121   2.095   3.288   1.888  0.0818  0.1558 -0.2729
14648W        W31122  14.501  15.782   3.822  0.4957  0.1350 -0.3242
14649W        W31123  12.400  10.290  12.010 -0.2242 -0.2058 -0.3065
14650W        W31124  14.079   8.728   4.441  0.4721  0.2995  0.0115
14651W        W31125  10.753  12.109   9.699 -0.2049  0.2016 -0.0857
14652W        W31126   0.552  11.343   0.293  0.0245  0.1300  0.0467
14653W        W31127   7.477  14.133  12.159  0.4116  0.2047 -0.0307
14654W        W31128   8.395   0.730   3.476 -0.0868 -0.0370 -0.2108
14655W        W31129  15.390   3.251   4.013 -0.0482  0.0119 -0.0949
14656W        W31130   4.742   3.036  12.660 -0.0982  0.0666  0.1498
14657W        W31131  12.615  10.944  10.643 -0.0920  0.1419  0.1572
14658W        W31132  12.808   5.768  12.787  0.0983  0.2374 -0.1941
14659W        W31133  13.891  15.764   0.138 -0.0481 -0.0811 -0.1015
14660W        W31134   5.825  19.463   0.694  0.5276 -0.0058  0.2112
14661W        W31135   6.468   4.633  13.890 -0.2846  0.2531  0.0253
14662W        W31136   5.591   5.097  11.374  0.3128  0.0321 -0.2083
14663W        W31137  19.332  18.703   1.192 -0.1447  0.4020 -0.1122
14664W        W31138   7.840  14.552   0.124  0.0992  0.2379  0.2462
14665W        W31139   8.021   1.641   3.782  0.0840  0.0263 -0.0612
14666W        W31140   9.957   5.667  12.982  0.2809  0.0013 -0.0230
14667W        W31141   0.605   6.750   2.837  0.0437  0.2197  0.0972
14668W        W31142   7.524  14.946  11.697 -0.5572  0.3279  0.1565
14669W        W31143  19.085   8.487   3.948  0.1063 -0.3152  0.1930
14670W        W31144  13.473   2.967  12.983 -0.2208  0.0717  0.0709
14671W        W31145   7.970  11.370  11.139 -0.0408 -0.0264 -0.0016
14672W        W31146   7.259   9.624  13.535  0.2545  0.2017  0.0215
14673W        W31147  19.484  16.449  12.986 -0.2408  0.2059 -0.0789
14674W        W31148   2.379   1.339  13.907 -0.0831 -0.1381 -0.0854
14675W        W31149   5.812   2.672  13.858  0.0998  0.0434 -0.2411
14676W        W31150  11.638   9.948  14.404  0.4346  0.1363  0.0798
14677W        W31151  14.358   1.949   1.779  0.0523 -0.3229 -0.0341
14678W        W31152   4.527   6.092   9.440 -0.1940  0.0414  0.0487
14679W        W31153  17.930  12.047   9.843 -0.1966  0.0725 -0.0144
14680W        W31154  18.799   3.365   9.285  0.1979 -0.2866 -0.0515
14681W        W31155  11.539  10.515   0.048  0.0535 -0.0594  0.0631
14682W        W31156  12.384   7.482  12.241 -0.2075  0.1258 -0.1590
14683W        W31157  10.377  14.363   3.386  0.2182  0.0392 -0.1703
14684W        W31158   3.150   9.851   1.007  0.1010  0.1056 -0.0644
14685W        W31159   4.654  17.189   2.087 -0.0647 -0.3832  0.5291
14686W        W31160   7.055  10.386   3.485  0.0151 -0.3866 -0.2873
14687W        W31161   8.753   2.376  13.845  0.1433  0.0049 -0.4627
14688W        W31162  18.045  13.695  14.566  0.0341  0.0819  0.4572
14689W        W31163  14.488  12.342  13.290  0.0815 -0.0591  0.0927
14690W        W31164   3.872  18.266   9.881 -0.0559 -0.0987  0.2505
14691W        W31165   3.533   7.520  10.242 -0.0344 -0.0104 -0.1635
14692W        W31166  14.812   6.855  14.638  0.1705  0.0753  0.1423
14693W        W31167  11.049  17.980   5.494 -0.1093  0.4113  0.3043
14694W        W31168  17.261   1.718  11.873  0.0186 -0.0154 -0.1056
14695W        W31169   1.080   6.611   0.407  0.1164 -0.0919  0.1690
14696W        W31170  18.268   8.481  10.943  0.4799  0.1640  0.2994
14697W        W31171  13.528  15.480  10.811  0.1308 -0.0886 -0.1093
14698W        W31172  12.245   1.601  12.513 -0.0399  0.5139  0.2688
14699W        W31173   6.796   8.076   5.031  0.2015 -0.3830 -0.0083
14700W        W31174   3.371  15.710   0.210 -0.0851  0.0828 -0.0233
14701W        W31175   0.401  19.441  13.392  0.1712 -0.4256 -0.3744
14702W        W31176   0.842  10.465   3.990  0.0059 -0.0328  0.2293
14703W        W31177  17.783   3.812   3.631 -0.1057  0.0367 -0.0430
14704W        W31178   4.495  13.374   3.407 -0.0707  0.3553 -0.0548
14705W        W31179  14.225  11.664   4.783  0.1766  0.1596  0.2167
14706W        W31180  13.770  18.526   4.301 -0.0954  0.0019  0.4434
14707W        W31181   7.932   7.813   4.312 -0.1228  0.2964  0.2136
14708W        W31182   3.666  12.295   1.532  0.0324  0.0585  0.1837
14709W        W31183  18.980   5.133  10.688  0.1103 -0.3023 -0.0247
14710W        W31184  13.508  10.331   1.202 -0.1922 -0.4503 -0.3022
14711W        W31185  12.272  15.030  10.914 -0.0211 -0.0703  0.0793
14712W        W31186   1.792   3.920  13.394  0.2025  0.0988 -0.1158
14713W        W31187  18.376   2.128  11.272 -0.0870  0.2920  0.0715
14714W        W31188  10.208   4.111   4.525 -0.1691  0.2222  0.3426
14715W        W31189  14.530   0.919   1.426 -0.2535 -0.1043 -0.0018
14716W        W31190   9.506   1.517   4.793 -0.1734  0.1055 -0.4075
14717W        W31191  13.950   2.542  11.780 -0.2740  0.0477 -0.1604
14718W        W31192   1.329  14.685  11.277  0.2379  0.0467 -0.2160
14719W        W31193   4.798  16.069  11.376  0.0241 -0.0144 -0.0107
14720W        W31194   9.968   1.786  14.435 -0.1669 -0.3059  0.1601
14721W        W31195   7.837  18.342   0.989  0.0217  0.0170  0.1413
14722W        W31196  16.603   9.048   0.623 -0.2544  0.0058  0.1195
14723W        W31197   4.644   9.077  11.951 -0.3527  0.1385  0.1281
14724W        W31198  12.681   1.731   0.755 -0.0969 -0.0607 -0.0741
14725W        W31199   7.932   7.998   2.031  0.0163  0.0881 -0.0989
14726W        W31200   8.302  15.163  11.771 -0.2143 -0.1000  0.3014
14727W        W31201  19.413  15.357   1.303  0.1438  0.1192  0.0532
14728W        W31202   2.162   5.881  10.480  0.0550  0.0627 -0.0575
14729W        W31203   7.701   7.685   0.758 -0.1913  0.2716  0.0204
14730W        W31204  14.703  15.917  10.659 -0.3208  0.1712  0.2583
14731W        W31205   6.714  12.599   2.894 -0.1232  0.0479 -0.0582
14732W        W31206   9.023  14.012   3.023  0.5054 -0.2271 -0.0134
14733W        W31207  13.538   5.527  11.430  0.0642 -0.1212 -0.1231
14734W        W31208   1.641  19.120   2.761  0.3656 -0.2522  0.1186
14735W        W31209   0.026   3.464  10.092  0.0242  0.1047  0.1234
14736W        W31210   6.179  16.568   3.047 -0.2702 -0.1402 -0.3576
14737W        W31211   8.929   7.750   0.133 -0.1291 -0.1605  0.3521
14738W        W31212   7.544  19.504  13.509  0.0711 -0.0993 -0.0228
14739W        W31213  15.983   9.997   0.544  0.1302 -0.2288 -0.2970
14740W        W31214   6.846  16.712  14.647 -0.0342 -0.0633  0.5650
14741W        W31215   3.761  14.901   3.527  0.0322 -0.2598  0.1031
14742W        W31216   7.465   8.567  11.953 -0.1016 -0.1639  0.0313
14743W        W31217   5.703  10.656   2.787 -0.0605  0.3621  0.3392
14744W        W31218  11.542   1.242  10.382 -0.0353 -0.1087  0.0865
14745W        W31219   2.365   1.583  11.533 -0.4365  0.0176  0.0108
14746W        W31220  17.741   2.105  14.591 -0.1274 -0.3591  0.1146
14747W        W31221   0.839  15.338  10.922 -0.0350 -0.1003 -0.2236
14748W        W31222   1.578   0.967  11.408 -0.0782  0.0811  0.0155
14749W        W31223   7.801  13.244  10.904 -0.0936  0.2100  0.3498
14750W        W31224   8.360   9.161   0.369  0.0567 -0.0672 -0.3003
14751W        W31225   0.331  13.506   4.903 -0.0334  0.0684 -0.2566
14752W        W31226   3.644   9.327  13.296 -0.0445  0.3690  0.0661
14753W        W31227  11.430  17.461   9.455 -0.1103  0.0512 -0.1002
14754W        W31228   3.804  15.787   3.983 -0.2225  0.1415 -0.1752
14755W        W31229   6.741   7.844   0.162  0.1614 -0.0465 -0.2820
14756W        W31230  11.815  14.086   1.798 -0.0327 -0.5424  0.0744
14757W        W31231  19.014   0.778  12.345  0.1503 -0.0974  0.1529
14758W        W31232   9.844  16.504   3.986 -0.0390 -0.3029  0.1521
14759W        W31233   2.301   2.302   0.280  0.0537 -0.2041 -0.0160
14760W        W31234   1.550   8.299   2.737  0.0415  0.2035  0.1896
14761W        W31235  11.992   4.531   1.448 -0.1766  0.1218  0.2759
14762W        W31236  14.774   7.290   2.950  0.4295  0.4413  0.1767
14763W        W31237  16.767   0.235  14.490 -0.0284 -0.1318 -0.0741
14764W        W31238   6.688  12.456  13.185  0.0631 -0.2171 -0.0709
14765W        W31239   5.061   8.933   1.805  0.0112  0.3483  0.1629
14766W        W31240   9.859   8.761  10.730 -0.2067  0.1885 -0.0322
14767W        W31241   0.443  18.311  12.352  0.0724 -0.1636  0.4407
14768W        W31242  16.212   8.904   6.116 -0.2894 -0.1561  0.0456
14769W        W31243  11.793   8.919   1.606 -0.0577 -0.2634 -0.2053
14770W        W31244   1.230  16.531   1.645 -0.1171  0.3639  0.0362
14771W        W31245   5.432  11.336  10.290  0.1350 -0.0652 -0.1355
14772W        W31246  13.913   7.025  11.909  0.2310 -0.1789  0.2468
14773W        W31247  16.270  12.109  12.410  0.1210  0.0791  0.1595
14774W        W31248  10.514  17.633  13.321  0.1038 -0.0822  0.3115
14775W        W31249  13.120   4.904   5.010  0.0846  0.0406  0.1577
14776W        W31250   5.422   0.110   0.738  0.4965  0.1781  0.4070
14777W        W31251   3.472   6.936  13.387 -0.4515  0.2178  0.3623
14778W        W31252   1.735  14.352  14.372 -0.3358  0.1102  0.0687
14779W        W31253  17.591   2.207  10.708 -0.3904 -0.0044 -0.0111
14780W        W31254   1.985   7.463   2.397 -0.1972 -0.0224  0.1091
14781W        W31255  18.934  16.764   4.242 -0.0109  0.3545  0.0153
14782W        W31256  15.008   4.563  12.958  0.0114  0.1130 -0.2499
14783W        W31257   9.517  15.498  13.290  0.0837 -0.0451  0.0422
14784W        W31258   8.948   8.134  13.610 -0.2393 -0.1381 -0.0861
14785W        W31259  11.208   2.750   0.125  0.0961 -0.1354  0.0916
14786W        W31260   5.161   5.551   1.364  0.1687  0.1930  0.0931
14787W        W31261  18.593   7.855   1.229 -0.1877 -0.2127  0.1223
14788W        W31262  18.207  18.000  12.909 -0.2997 -0.3459 -0.1631
14789W        W31263  18.573  18.798  12.789 -0.0803 -0.4046  0.1469
14790W        W31264  17.360   4.862  14.597  0.1061 -0.0911 -0.1885
14791W        W31265  12.489   3.108  13.306 -0.1716  0.2855  0.2717
14792W        W31266   9.502   2.101  10.261 -0.1689 -0.0596  0.1079
14793W        W31267   0.061   2.677  10.776  0.1624 -0.2083 -0.1907
14794W        W31268  17.537   5.549   2.658  0.0969  0.0718  0.0171
14795W        W31269  18.206  11.691   4.548 -0.3953  0.0777  0.3358
14796W        W31270   2.548  16.733   2.440 -0.0127 -0.1235  0.1701
14797W        W31271  10.637   2.465   2.258  0.0253 -0.0431  0.2628
14798W        W31272  14.956   2.025  10.375  0.0724  0.0509  0.0446
14799W        W31273   1.444   0.228   0.106  0.2274 -0.1273 -0.1768
14800W        W31274  12.878   2.581  11.090 -0.1179  0.0826 -0.3211
14801W        W31275  11.565  12.339  11.080 -0.1249 -0.0691 -0.0424
14802W        W31276  18.334   3.040   2.618 -0.1363 -0.0339  0.0144
14803W        W31277  12.958   0.019  12.443 -0.0824  0.0282 -0.0961
14804W        W31278  16.895  10.105  12.348  0.0992  0.3147 -0.2750
14805W        W31279   9.932   9.880   1.349 -0.1960  0.1307 -0.1575
14806W        W31280   6.325   0.694  11.025 -0.1782 -0.1164  0.1450
14807W        W31281   2.408  18.746   4.688  0.2207  0.0310  0.1159
14808W        W31282  11.978   2.427  11.501 -0.1495  0.2408  0.1522
14809W        W31283  19.563  18.911   9.217 -0.3685 -0.2452 -0.0300
14810W        W31284  12.142  15.460  13.764  0.0962 -0.2599  0.1574
14811W        W31285   5.375   4.878  13.498 -0.3759  0.2592 -0.0992
14812W        W31286   9.776   7.893  11.154 -0.2527  0.0816 -0.0192
14813W        W31287   4.661   6.917  12.646 -0.0569 -0.0816 -0.3137
14814W        W31288   3.200   1.944   1.299  0.4684 -0.0911  0.2172
14815W        W31289   8.958   3.992   4.028  0.0667  0.2769 -0.3858
14816W        W31290  17.245   9.477   1.605 -0.1503 -0.1603 -0.1383
14817W        W31291   9.779  11.452  12.326  0.3337 -0.2832  0.0974
14818W        W31292   9.217  16.300   0.865 -0.0496 -0.2525  0.2317
14819W        W31293  14.082  13.568  11.529 -0.1049  0.0174  0.2236
14820W        W31294   6.128   5.751   2.642 -0.1221 -0.3067  0.1431
14821W        W31295   3.901   1.520   5.016  0.1637  0.1689 -0.0084
14822W        W31296  15.348  19.326  12.279  0.2293 -0.0657  0.0691
14823W        W31297  16.345  12.843  11.240  0.2324  0.0739  0.0015
14824W        W31298  14.061  14.513   4.267 -0.0288 -0.0163  0.0101
14825W        W31299   9.448  14.494  14.062 -0.2843 -0.1727  0.0347
14826W        W31300   2.839   2.295   0.565 -0.2098 -0.1366  0.0274
14827W        W31301   2.224   2.670  14.541 -0.0113  0.1926 -0.2927
14828W        W31302   1.297  16.693   3.500  0.3670  0.1069  0.4271
14829W        W31303  15.023  17.579  11.390  0.0250  0.1283 -0.2182
14830W        W31304   3.532   9.564  11.579  0.0550  0.1689  0.0002
14831W        W31305   8.170   5.894   3.177  0.2435 -0.0091 -0.1369
14832W        W31306   6.168  10.908   2.752 -0.2082  0.1179 -0.0615
14833W        W31307   8.707   4.316  12.851  0.1312 -0.0725  0.3965
14834W        W31308  13.056   2.022   2.815  0.0079  0.0893 -0.0145
14835W        W31309   3.977   8.045   4.305  0.2989  0.0420  0.2178
14836W        W31310   5.674   0.279  14.472  0.1367  0.1739  0.0519
14837W        W31311   2.088   9.259   1.870  0.1422 -0.1514  0.4695
14838W        W31312   4.361  18.268   2.908  0.2204 -0.0426 -0.0584
14839W        W31313  18.583  15.160   3.381 -0.0572 -0.1865 -0.1158
14840W        W31314  10.172  11.278   2.436 -0.1208  0.1694 -0.0166
14841W        W31315  16.776   3.321  10.397 -0.3130  0.0235  0.1267
14842W        W31316  13.076  14.929   0.989  0.4081  0.5058 -0.1663
14843W        W31317  15.902  15.699   2.655 -0.2167  0.3516 -0.1265
14844W        W31318   5.317  16.583  12.016  0.1232 -0.5506 -0.0969
14845W        W31319   3.809   6.407   4.343  0.0834 -0.0905  0.1707
14846W        W31320  11.655  12.086   0.558  0.0289 -0.3213  0.1201
14847W        W31321  12.592  18.088   1.708  0.3248 -0.0432 -0.1867
14848W        W31322  15.658   9.181  13.954 -0.1678  0.1330  0.0663
14849W        W31323  14.767  14.840   1.728 -0.0877  0.0164  0.0840
14850W        W31324   2.214   3.179  14.436 -0.0391  0.1143  0.1396
14851W        W31325  15.699  15.756  13.075 -0.1834 -0.3761 -0.1000
14852W        W31326  14.125   8.510   3.917  0.0586  0.0849 -0.1835
14853W        W31327   0.506   5.260   3.214  0.1706 -0.1749 -0.0049
14854W        W31328   4.377  16.092   5.295 -0.1750  0.0986  0.1587
14855W        W31329   1.724  12.012  12.382 -0.0158  0.1232 -0.2976
14856W        W31330   3.134   1.068   9.979 -0.1103 -0.2589  0.0502
14857W        W31331  13.344   1.256   0.099  0.0345 -0.1717 -0.0863
14858W        W31332  10.157  12.331  10.642 -0.0784  0.0615  0.1020
14859W        W31333   2.818  11.988   4.896  0.2290  0.1791  0.1919
14860W        W31334   3.913  15.608  11.145 -0.0951 -0.0099 -0.1315
14861W        W31335   5.392   6.524   9.080 -0.2091 -0.1978  0.1364
14862W        W31336  16.671  17.366  11.761  0.2210 -0.1295 -0.0371
14863W        W31337  14.743   1.423  11.999  0.2733 -0.0893  0.0263
14864W        W31338  10.609  12.530   4.301 -0.1559  0.1634  0.1039
14865W        W31339  13.458  18.945   2.369  0.0231 -0.0533  0.2131
14866W        W31340   8.387   0.290   3.055  0.2843  0.2130 -0.1495
14867W        W31341   2.934  18.791   4.518 -0.0647 -0.0122  0.0129
14868W        W31342  17.539  19.396  12.035  0.0538 -0.1224  0.0010
14869W        W31343   6.608   1.254  12.829 -0.0509  0.3657 -0.1976
14870W        W31344  18.376  11.123  10.586  0.2020  0.0899 -0.1025
14871W        W31345   9.241   4.094  10.380  0.2201  0.1455  0.0612
14872W        W31346   2.339   2.957  12.607  0.2614  0.0920 -0.0062
14873W        W31347   6.537  18.309   3.883 -0.3047 -0.1598  0.0014
14874W        W31348   1.351  15.418  11.072 -0.2321 -0.1322  0.3071
14875W        W31349  15.330  18.027   1.035 -0.1467 -0.5023 -0.1955
14876W        W31350   8.136   7.473   4.859  0.0309 -0.3125  0.0662
14877W        W31351   5.897  12.964   5.018  0.0439 -0.2605  0.1773
14878W        W31352   4.459  13.275  14.394  0.0511 -0.0993  0.3559
14879W        W31353   9.109  16.436  13.563  0.4559  0.1563  0.0225
14880W        W31354  15.693   5.279  11.823 -0.1548  0.2044  0.1951
14881W        W31355   8.280  17.664  13.377  0.1252 -0.0714  0.0965
14882W        W31356  15.167   4.753  12.175 -0.0810  0.1392  0.1986
14883W        W31357   5.327   5.375  10.391  0.0572 -0.2580  0.0030
14884W        W31358  12.899  10.973   1.243  0.2132 -0.0151 -0.2155
14885W        W31359   0.892   2.225   5.326 -0.1736  0.1523 -0.1281
14886W        W31360   6.806   1.931   0.720 -0.0392 -0.0637 -0.1936
14887W        W31361   0.580  16.211   3.840  0.6598 -0.1048 -0.3372
14888W        W31362   1.517   8.244   3.240  0.1129  0.2724 -0.3187
14889W        W31363   0.572   3.785   4.123  0.0587  0.0374 -0.1354
14890W        W31364  17.468   4.161   9.202  0.2611 -0.0600 -0.0731
14891W        W31365   9.387  10.855  10.972  0.0878  0.0283 -0.1184
14892W        W31366  17.290  15.097   0.290  0.0193  0.1036  0.0865
14893W        W31367  11.594  14.967   3.312  0.4617  0.2617  0.0289
14894W        W31368  17.859   6.081  12.786 -0.1181 -0.1622 -0.4843
14895W        W31369   9.960  11.791   2.558 -0.0501  0.0948 -0.0359
14896W        W31370  14.395  13.190   2.533  0.1583  0.2625  0.6650
14897W        W31371  13.604   8.626   1.500 -0.1626  0.0140 -0.0576
14898W        W31372  15.975   3.581   3.208  0.2869 -0.1360 -0.1549
14899W        W31373   3.605   9.787   1.320 -0.1661 -0.1116  0.0350
14900W        W31374   4.725  12.134   5.016  0.0933 -0.0799  0.1825
14901W        W31375   1.474   6.488   1.782 -0.2653 -0.2366 -0.2705
14902W        W31376  16.495  16.341  14.144  0.1044 -0.0178  0.0444
14903W        W31377  12.366   1.330   0.157  0.2779 -0.2084 -0.2403
14904W        W31378   8.612   6.833   2.547  0.1592  0.1718  0.0124
14905W        W31379   8.192   2.170  12.791  0.0336 -0.2260 -0.0600
14906W        W31380  11.336  17.256  13.395 -0.3812 -0.0411 -0.1859
14907W        W31381   9.143  11.235   3.287 -0.1964 -0.0304 -0.0604
14908W        W31382  14.915  17.314  14.230 -0.3967  0.0838 -0.1132
14909W        W31383  15.787   2.030   1.481 -0.2035 -0.0587  0.2700
14910W        W31384  14.272  19.116  10.930  0.0845 -0.2715 -0.0569
14911W        W31385   2.978   6.898   0.582 -0.1115 -0.3301  0.1431
14912W        W31386   3.440   7.440  11.354 -0.1864 -0.0520 -0.1807
14913W        W31387   9.925  12.266  12.554 -0.1831 -0.0940 -0.2671
14914W        W31388   1.641   1.194  13.211  0.1752  0.0010 -0.2231
14915W        W31389   9.772   8.180  14.617 -0.2227 -0.2231 -0.1472
14916W        W31390   6.003   0.257   5.243  0.0284 -0.2134  0.1560
14917W        W31391   9.707   1.714  14.034  0.0753  0.3020  0.0662
14918W        W31392   6.055   3.118  14.054 -0.2368 -0.1868  0.0900
14919W        W31393   4.551   7.892   3.837 -0.0308  0.0678  0.0118
14920W        W31394   8.542   9.504  10.085 -0.0856 -0.4693 -0.0670
14921W        W31395  18.720   6.890   0.566 -0.2488  0.0635  0.1823
14922W        W31396  15.367  18.496  12.121  0.1703 -0.1006  0.1277
14923W        W31397  14.367  12.313   1.131 -0.1497  0.1764  0.1434
14924W        W31398   7.102  13.495   2.657 -0.0473 -0.1610  0.0007
14925W        W31399   2.847   7.444  13.637 -0.0907  0.0088  0.0758
14926W        W31400  16.379   5.587  13.404  0.1831 -0.1406  0.0109
14927W        W31401  10.971   0.231  12.162 -0.0864 -0.1051 -0.0051
14928W        W31402  15.776   7.463   5.487  0.0962  0.0460 -0.2895
14929W        W31403  16.933  13.804   4.156  0.1425 -0.0078  0.1080
14930W        W31404   3.551   8.581  13.348 -0.0759 -0.0375  0.0359
14931W        W31405   4.616   2.373   1.021 -0.1542  0.2574  0.0364
14932W        W31406   4.015  16.550   2.365  0.0270 -0.1706  0.1427
14933W        W31407  12.315  19.211  13.741 -0.0438 -0.2570 -0.1737
14934W        W31408   1.135   0.968   1.182 -0.0309  0.0753  0.1533
14935W        W31409   0.712   8.927   5.800 -0.0247 -0.2169  0.0625
14936W        W31410  16.941  10.833   0.301  0.1231  0.0954 -0.0112
14937W        W31411   3.947  13.268  14.542  0.0234 -0.0519 -0.0078
14938W        W31412  15.976   4.432  13.137 -0.1203  0.1763  0.1389
14939W        W31413  11.112  12.549  11.237 -0.0071 -0.1455 -0.2005
14940W        W31414   1.684   8.422   4.155 -0.0063 -0.0005  0.0452
14941W        W31415  11.419   1.409   1.045 -0.0599  0.1553  0.3159
14942W        W31416   6.766  12.111   0.077 -0.0130  0.2733  0.0847
14943W        W31417   0.140  13.789  14.294 -0.0768  0.0899 -0.0503
14944W        W31418  16.129  15.933  14.647 -0.2112  0.0990  0.3094
14945W        W31419  14.786  19.048  13.832  0.1329  0.0510  0.0024
14946W        W31420   9.002   0.640  14.607 -0.1185 -0.3104  0.0622
14947W        W31421  10.329  16.806  13.076 -0.1344 -0.4677 -0.2607
14948W        W31422   0.959   7.942   0.250 -0.1230  0.1016  0.3500
14949W        W31423  13.014  13.833   2.445  0.0959 -0.4250  0.1329
14950W        W31424   6.153  15.516   2.055 -0.0272  0.0294  0.2990
14951W        W31425   9.013  11.228   0.922  0.5195 -0.2036  0.0949
14952W        W31426   2.007  15.291  11.820  0.2077 -0.3733  0.2311
14953W        W31427  10.056   4.119  10.622 -0.0863  0.1104  0.1994
14954W        W31428  12.375   7.004   2.216 -0.3692  0.0038 -0.0382
14955W        W31429   5.448  18.574   4.652  0.0093  0.0802 -0.1763
14956W        W31430   1.346  18.077   2.663  0.0455 -0.1307  0.0764
14957W        W31431  17.699  17.042   4.897  0.2184  0.1264  0.1312
14958W        W31432   5.898   3.935   1.500 -0.0110 -0.2411  0.0418
14959W        W31433  13.652  10.051   2.747 -0.1327 -0.0154 -0.2444
14960W        W31434  16.138   7.625   4.224 -0.0307  0.1976  0.0380
14961W        W31435  11.020   5.013   3.219  0.2215 -0.0570  0.1294
14962W        W31436  17.169  16.544   3.943 -0.1617 -0.2980  0.1466
14963W        W31437   7.020  18.393  12.504  0.0118 -0.0023 -0.1023
14964W        W31438  16.928   3.857   9.222 -0.0050 -0.0646 -0.0112
14965W        W31439  15.820  10.519  12.040 -0.1158  0.0206 -0.1259
14966W        W31440   7.080   2.055  12.427 -0.0481  0.1072  0.0098
14967W        W31441  12.809  17.978  14.078 -0.0958 -0.2105  0.0018
14968W        W31442   2.342  12.640  12.491 -0.2927  0.1803 -0.2656
14969W        W31443  13.538   0.494   4.021  0.0113 -0.2585  0.3273
14970W        W31444   9.472   6.166  14.550  0.0626 -0.2764 -0.0732
14971W        W31445   8.256   8.592   3.316  0.3741 -0.1770 -0.1694
14972W        W31446   9.212   8.276   0.073  0.0046 -0.0740 -0.1843
14973W        W31447   0.456  12.737   3.438 -0.1563  0.0358  0.0353
14974W        W31448   5.459   6.142  11.948  0.3229  0.1908 -0.0413
14975W        W31449   2.139  10.740   4.794  0.2442  0.1710 -0.1874
14976W        W31450   0.357  11.972  14.300  0.0692  0.0167  0.1484
14977W        W31451   1.364   6.129   1.453  0.1569  0.2953 -0.0995
14978W        W31452  12.004  13.345   2.882 -0.2534 -0.2385  0.0394
14979W        W31453  14.128   8.207  12.512 -0.0424  0.1437 -0.2243
14980W        W31454  15.060   2.495  13.878  0.2631  0.0398 -0.2192
14981W        W31455   9.027   9.644  10.714  0.2732  0.1181 -0.1807
14982W        W31456   6.459  17.166  10.399 -0.1579  0.0452 -0.3314
14983W        W31457  14.272  13.469   0.721  0.1712  0.0598 -0.2358
14984W        W31458  17.933  13.266   1.606  0.1521 -0.0740 -0.2555
14985W        W31459  11.465   2.675   1.691  0.1754  0.1634  0.1746
14986W        W31460   1.820  12.044   3.292  0.0561  0.0821 -0.3041
14987W        W31461  19.334   9.595  12.078 -0.2707 -0.4772 -0.2621
14988W        W31462  16.929   2.548   2.520 -0.2942 -0.0064 -0.0352
14989W        W31463  14.925   1.891   1.449  0.2244 -0.0960 -0.2350
14990W        W31464  13.671   5.886  13.353 -0.0962  0.0366  0.1890
14991W        W31465   4.297   3.869   3.962 -0.1297 -0.0229  0.1697
14992W        W31466  15.669  15.883  10.450 -0.2582  0.0516  0.2146
14993W        W31467  11.858  13.431  14.628  0.2188 -0.0376  0.1687
14994W        W31468  14.680  11.474  13.256 -0.1472 -0.0044 -0.0212
14995W        W31469   1.940  13.660  13.986 -0.2496  0.3144  0.0418
14996W        W31470  12.318  11.953   4.403  0.0326  0.1039 -0.2662
14997W        W31471   5.544   2.324  11.521  0.1402  0.2296 -0.0495
14998W        W31472   5.252  14.906  12.550 -0.0860  0.2635  0.1861
14999W        W31473  18.441   9.896  11.969 -0.0161 -0.0937 -0.0718
15000W        W31474   0.238   4.717  10.361 -0.0362  0.1251  0.0273
15001W        W31475  18.994   5.839  11.950 -0.1354  0.3022 -0.0819
15002W        W31476  11.583   9.236  11.240 -0.1251  0.0732  0.0744
15003W        W31477   9.427  10.888   1.231  0.1591  0.1399 -0.2658
15004W        W31478   9.834   3.399   4.111 -0.0219  0.0487 -0.1947
15005W        W31479   0.891  19.165  12.999 -0.3443  0.1755  0.2374
15006W        W31480   3.430   9.872  13.085 -0.1812 -0.2425  0.0890
15007W        W31481  16.210   1.419   4.943  0.1184 -0.1014  0.0104
15008W        W31482  15.575  13.994  11.603  0.0088 -0.1061 -0.0183
15009W        W31483   1.966  11.137   0.002  0.1542 -0.1136 -0.1525
15010W        W31484   1.805   9.066  14.581  0.0972  0.0743  0.1486
15011W        W31485   6.610  11.928  10.861  0.1997 -0.1462 -0.0169
15012W        W31486  14.757  17.495  10.172 -0.0833 -0.1696 -0.2004
15013W        W31487   4.500   2.344   2.984 -0.2440 -0.1542 -0.1346
15014W        W31488  19.462  14.146   1.571 -0.0626  0.1143  0.1697
15015W        W31489  10.489  12.597   3.162 -0.1926  0.2508 -0.3640
15016W        W31490   0.236  13.279  14.328 -0.0637  0.1230  0.2211
15017W        W31491  15.648  16.186  11.744 -0.1723  0.0503 -0.2499
15018W        W31492  10.579  17.849  13.817 -0.1675  0.2826 -0.3514
15019W        W31493  19.267  15.782   9.890 -0.1800 -0.0061  0.0103
15020W        W31494   6.003  14.824   0.095 -0.0142 -0.0770  0.1835
15021W        W31495   3.821  16.457  14.423 -0.0092 -0.2240 -0.1237
15022W        W31496   5.259  13.380   4.499 -0.3538  0.0732 -0.2567
15023W        W31497  13.480  13.627  11.551  0.0375  0.0585  0.1458
15024W        W31498  18.767   1.687  11.535  0.1284  0.1517  0.4150
15025W        W31499   4.444   6.437   0.274  0.3487  0.1392 -0.0350
15026W        W31500   4.858   3.333   0.437  0.0122  0.2448 -0.1195
15027W        W31501  10.849   6.059  10.255 -0.0175  0.0534 -0.4181
15028W        W31502   7.406  11.513  12.419  0.1558  0.0118  0.0222
15029W        W31503  19.112   4.773   4.790  0.1571  0.2734  0.1415
15030W        W31504  10.906  14.242   3.140 -0.0149  0.1344  0.1469
15031W        W31505  11.233  14.261  10.955 -0.2022  0.1796 -0.0786
15032W        W31506  14.075  15.129  13.827  0.1845 -0.0507 -0.4523
15033W        W31507  15.791  12.368   5.806 -0.1344 -0.0582  0.1867
15034W        W31508  11.585   8.786  11.506 -0.0540  0.1485  0.0115
15035W        W31509   2.012  19.043   5.517  0.0640  0.0718  0.0461
15036W        W31510   3.873   0.339   1.228 -0.3318  0.3218 -0.3866
15037W        W31511   0.783   4.234   4.109 -0.0240 -0.0119 -0.1288
15038W        W31512  10.713   9.101  10.863  0.0640 -0.4532 -0.1686
15039W        W31513  17.764   6.686  13.635  0.0500  0.1474 -0.2064
15040W        W31514   3.201  16.881  11.532  0.3799  0.0929  0.2499
15041W        W31515  14.622   8.555   3.477 -0.0813 -0.3844  0.0564
15042W        W31516  14.247   1.296  13.492  0.0977  0.0419  0.1663
15043W        W31517   4.876   4.901   0.702  0.2259 -0.1598  0.3540
15044W        W31518  15.281   3.625   2.828 -0.2183 -0.2607 -0.0097
15045W        W31519   5.713   1.931   9.486  0.0472 -0.1447 -0.0991
15046W        W31520   1.657   1.446   1.502 -0.0037 -0.1502 -0.2841
15047W        W31521   6.547  18.472  10.825 -0.0460 -0.0945 -0.1145
15048W        W31522   5.598  13.509   2.736 -0.0611 -0.1265 -0.1949
15049W        W31523   7.279  14.090   2.000  0.0834 -0.0521  0.1239
15050W        W31524   9.056   4.306   4.447 -0.3198 -0.0810 -0.0381
15051W        W31525  11.865   1.928  11.673  0.2284  0.1636 -0.3633
15052W        W31526  14.109  10.836   4.851  0.1674 -0.2994 -0.0467
15053W        W31527   5.957  11.711   2.291  0.3479 -0.1885 -0.0844
15054W        W31528  12.656  17.854  11.016  0.5535 -0.0674 -0.0665
15055W        W31529  10.708   3.414  10.183 -0.2147 -0.2464 -0.0005
15056W        W31530  14.062  12.682   1.345  0.2360  0.2917  0.0958
15057W        W31531   4.104  18.936   2.323 -0.0909 -0.2089  0.6151
15058W        W31532   1.906   3.777  14.325 -0.0223  0.1086  0.1920
15059W        W31533  11.244   0.751  11.794  0.0654  0.2359  0.1251
15060W        W31534   8.335   0.339   2.526 -0.2078 -0.2493  0.1316
15061W        W31535  10.597  19.448  11.333  0.1223  0.0609  0.3446
15062W        W31536   8.215   4.411   4.565  0.2677  0.2895 -0.1782
15063W        W31537   7.561  13.066  11.333 -0.0302 -0.1201  0.1629
15064W        W31538  15.619   2.592   0.266 -0.1270 -0.0017 -0.2811
15065W        W31539   7.963   7.648   2.936  0.5205 -0.2109 -0.1895
15066W        W31540  10.526   1.801  11.429 -0.0118  0.0206  0.2577
15067W        W31541   0.590   0.262   4.315  0.0670  0.1488  0.2103
15068W        W31542  17.621   5.372   0.110  0.4779 -0.1211 -0.2617
15069W        W31543  12.892  18.238  13.648  0.0006 -0.1558 -0.0109
15070W        W31544   2.265   3.771  11.995 -0.2455  0.0724 -0.0942
15071W        W31545   4.892   4.739   1.933 -0.2162 -0.1197 -0.0172
15072W        W31546  16.042   7.215  11.808 -0.1295 -0.1850  0.0367
15073W        W31547  16.796   9.599   4.730  0.0704 -0.0631 -0.2623
15074W        W31548   6.792  18.791  12.366 -0.1693 -0.1803  0.4116
15075W        W31549   1.124  10.147  14.329  0.0093 -0.0374  0.2802
15076W        W31550  16.278  12.548   4.618  0.2173  0.1529 -0.0081
15077W        W31551   6.421   6.061  14.071 -0.3586 -0.2073 -0.1093
15078W        W31552  17.477  15.216   3.512  0.2831  0.1202 -0.0937
15079W        W31553  14.456  18.899   3.416  0.2939  0.3921  0.2172
15080W        W31554   5.526  16.279   3.495  0.0796 -0.3704 -0.0340
15081W        W31555  13.783  12.980  12.237  0.3904  0.3399 -0.0276
15082W        W31556  12.026  14.073   1.160  0.1155 -0.2088 -0.1020
15083W        W31557  12.417   6.563  12.396 -0.2327  0.0006 -0.1136
15084W        W31558   1.245   2.372  12.191  0.0004  0.2092  0.2636
15085W        W31559   0.082  14.000   5.762 -0.0246 -0.0301  0.1544
15086W        W31560  10.534  13.096  12.269  0.3584 -0.2120  0.2292
15087W        W31561   7.175   1.882   2.259  0.1815  0.2842 -0.1486
15088W        W31562   2.403  15.195   4.046 -0.0173  0.0374 -0.0360
15089W        W31563  17.064  15.401  11.973 -0.3319  0.0596 -0.1255
15090W        W31564  13.138  14.532  13.641  0.2763 -0.0978  0.4101
15091W        W31565   7.488   0.203  12.938 -0.0222  0.2063 -0.2921
15092W        W31566   2.309  17.649   9.921 -0.2787 -0.2575 -0.0343
15093W        W31567  15.522  17.240  13.366  0.3509 -0.2564 -0.0857
15094W        W31568  13.160  11.250   5.370 -0.0303  0.0418 -0.0892
15095W        W31569  15.991   5.258  14.088  0.1805  0.2171 -0.2632
15096W        W31570  17.583  18.831  13.334 -0.2387 -0.1578  0.0449
15097W        W31571  16.738  19.347   2.087 -0.0922 -0.3671 -0.0728
15098W        W31572   9.394   9.113   0.412  0.2773  0.1684  0.0307
15099W        W31573  10.333   4.084   0.678 -0.2803 -0.0363 -0.1659
15100W        W31574   8.508   1.642   2.491  0.1852 -0.0879 -0.1659
15101W        W31575  12.769   3.369  14.615  0.2603 -0.1848 -0.1845
15102W        W31576  12.846   3.168   2.186 -0.0283  0.0828 -0.0067
15103W        W31577   7.770  11.499  12.769  0.2756  0.3029 -0.0255
15104W        W31578   4.602  11.909  10.652  0.2101 -0.3249 -0.0905
15105W        W31579  17.353   5.167  12.048 -0.0477 -0.2726  0.1810
15106W        W31580   1.229   2.032   1.730 -0.1342  0.0721  0.0710
15107W        W31581  19.102   5.262   1.352  0.2804 -0.1202  0.1989
15108W        W31582   2.192  15.778   0.479 -0.0609  0.2095 -0.3477
15109W        W31583   7.587   0.801  12.170  0.2093 -0.0246 -0.0624
15110W        W31584   4.733   6.278   3.549 -0.3179  0.0765 -0.0990
15111W        W31585  12.943  15.449   1.107 -0.6068 -0.2556  0.3277
15112W        W31586   9.487  13.422   4.028  0.2511 -0.1094  0.1285
15113W        W31587  15.052  10.291  11.108 -0.1706 -0.0435  0.2999
15114W        W31588  13.606  15.905   3.952  0.0440 -0.3126 -0.0935
15115W        W31589  15.745  19.308   0.306  0.3576 -0.0985  0.2111
15116W        W31590   3.769   5.417   3.971  0.4055  0.2058  0.1274
15117W        W31591  18.703  19.176  13.190  0.2002  0.1068  0.1958
15118W        W31592  11.869  15.531   3.970  0.0681  0.0687 -0.0505
15119W        W31593   0.286  18.985  10.197  0.0373  0.3970 -0.1172
15120W        W31594  10.944   1.384   1.231 -0.0158 -0.1161  0.0824
15121W        W31595   2.068  14.079   1.386 -0.1825 -0.1849 -0.0334
15122W        W31596   5.351  15.725   3.717  0.0373  0.2230 -0.1159
15123W        W31597  14.843  13.578   0.767  0.0493 -0.3012  0.0174
15124W        W31598   1.955   1.009  10.847 -0.2710 -0.0692 -0.1486
15125W        W31599   5.259  18.009   0.117  0.3379  0.1726 -0.0129
15126W        W31600   1.167  15.265   2.871  0.0287  0.0491  0.3311
15127W        W31601   5.026  19.157   2.782  0.0390 -0.3088  0.1683
15128W        W31602   1.651   9.435   3.345 -0.2860  0.4951  0.1891
15129W        W31603   1.951   3.374   3.993  0.0982  0.3075  0.2705
15130W        W31604  15.886  19.001  11.515 -0.0531  0.2039 -0.1632
15131W        W31605  11.762  13.806   0.344  0.1783 -0.1757  0.2947
15132W        W31606  15.083  16.949   9.403  0.2142  0.3768  0.0797
15133W        W31607   4.615   5.115   0.240  0.5782  0.0590  0.0947
15134W        W31608  18.631  11.853  10.933 -0.0366  0.1689 -0.1201
15135W        W31609  16.214  17.750   3.361  0.2522 -0.0365  0.0062
15136W        W31610  16.020   9.534   9.599  0.2341  0.1826 -0.0929
15137W        W31611   2.812   1.763  14.188 -0.1266 -0.1534  0.0999
15138W        W31612   5.445  10.647   0.319 -0.3082  0.0422  0.4743
15139W        W31613  14.406  17.290   1.663  0.0175  0.0297  0.3234
15140W        W31614   3.599   0.691   4.588  0.1486 -0.0295  0.1255
15141W        W31615  17.725  17.171  10.110 -0.0075 -0.0411 -0.5432
15142W        W31616   7.232  18.776   4.532 -0.0142  0.0305  0.1907
15143W        W31617  15.724   4.140  11.763 -0.0115 -0.0901  0.1364
15144W        W31618   0.153   0.015  12.425  0.0055 -0.0319 -0.0088
15145W        W31619  13.390  15.711   4.480  0.0707  0.0357  0.0755
15146W        W31620   0.406  10.143  13.053  0.0714  0.1350 -0.0899
15147W        W31621  10.052   9.076  13.432  0.0382 -0.0033 -0.0618
15148W        W31622   6.520  17.384  12.016  0.1321 -0.1877  0.1266
15149W        W31623   2.935  17.696  11.594 -0.2775  0.1078  0.0824
15150W        W31624  12.205  19.330  12.967  0.0113 -0.1749 -0.1757
15151W        W31625   4.022   9.239  12.915 -0.0581 -0.1460 -0.1929
15152W        W31626   7.583  11.883   0.664 -0.0838  0.0307  0.2659
15153W        W31627   5.242  16.043  10.106  0.2330 -0.0842 -0.2541
15154W        W31628   9.348  18.603   2.730  0.0467 -0.1476  0.0706
15155W        W31629  16.018  15.949  13.577  0.1205  0.1340  0.3877
15156W        W31630  14.116   9.979   2.682  0.0283  0.1024 -0.0630
15157W        W31631   4.980   8.285  12.684 -0.3274 -0.1632  0.1523
15158W        W31632  13.076  10.019   4.367 -0.1218  0.3320 -0.0081
15159W        W31633   2.486  10.885  10.237 -0.1526  0.1930 -0.1143
15160W        W31634   8.815  19.303   2.941  0.1292 -0.3442  0.1247
15161W        W31635  12.516   3.277   5.197  0.0686  0.1112  0.0098
15162W        W31636   2.947   5.753  14.347  0.0063 -0.1151 -0.0222
15163W        W31637  14.541   9.558   3.569  0.1394  0.1629  0.1859
15164W        W31638   4.884  11.239  11.078  0.0054  0.1802  0.2996
15165W        W31639   9.817   6.789  14.521 -0.0445 -0.2879 -0.0237
15166W        W31640  11.186   3.256  13.398  0.0193 -0.1729 -0.1237
15167W        W31641   1.393  12.928   3.763  0.0310  0.1514  0.0782
15168W        W31642  10.121   6.662  11.421  0.1439  0.1315  0.1222
15169W        W31643  12.531   4.674  14.645 -0.0715 -0.1009  0.2925
15170W        W31644  11.125   7.146   2.734  0.1598  0.1817  0.2691
15171W        W31645  18.107  11.379  13.021 -0.5368 -0.3410 -0.0057
15172W        W31646  17.537   7.669  11.257 -0.5893 -0.0214 -0.2869
15173W        W31647  11.270   9.635   1.223  0.1089  0.2259  0.0259
15174W        W31648   9.151   9.312  13.122 -0.0274 -0.2048 -0.0093
15175W        W31649   9.640   7.243  12.541  0.1929 -0.2088 -0.0333
15176W        W31650   1.587  17.951   9.137 -0.4080 -0.1319  0.0257
15177W        W31651   5.116   8.801  12.930 -0.0655 -0.1168 -0.2478
15178W        W31652  10.475   2.913  14.476 -0.2285 -0.1546  0.3985
15179W        W31653   3.301  14.158  12.817  0.0857  0.0897 -0.2272
15180W        W31654   2.208  17.193   0.637 -0.1120 -0.2380  0.0229
15181W        W31655   1.037  13.915  11.595  0.3019 -0.2671 -0.3123
15182W        W31656  18.793  17.651   3.109  0.2718 -0.2437  0.0457
15183W        W31657  12.413   2.664   1.544  0.4666 -0.1122  0.3695
15184W        W31658   8.370   9.226  14.301  0.2182  0.0845 -0.0889
15185W        W31659   5.881   8.795   2.835 -0.2697 -0.0093  0.0171
15186W        W31660   6.433  10.434  13.148 -0.2056  0.1283 -0.0497
15187W        W31661   6.211   4.584  12.252  0.2147 -0.1377  0.0715
15188W        W31662  18.633   1.642  10.967 -0.0090 -0.0504 -0.0781
15189W        W31663   3.265   6.234  10.992  0.1482 -0.2824  0.2723
15190W        W31664   5.353   5.032   2.131  0.2157  0.1001 -0.0587
15191W        W31665   3.426   1.280   4.484  0.0145 -0.3412  0.1124
15192W        W31666  12.665  18.356  10.944  0.2952  0.0058  0.3685
15193W        W31667  12.704  13.900  13.355  0.0399 -0.2790 -0.0917
15194W        W31668   2.058  10.919   2.548 -0.0471 -0.0460  0.1152
15195W        W31669  11.871   6.064  12.894  0.1272  0.2631 -0.0981
15196W        W31670   9.058   2.051  11.394 -0.1263  0.0004  0.0749
15197W        W31671   7.966  14.036   0.170 -0.1014  0.3864  0.1070
15198W        W31672  15.064   0.682  14.361 -0.2449  0.1991  0.1808
15199W        W31673  18.074  17.509  13.027 -0.1599  0.1913 -0.1243
15200W        W31674   4.694  15.172   4.553  0.0628  0.2043  0.0009
15201W        W31675  11.137   0.075   5.620 -0.1011  0.0120  0.5855
15202W        W31676  15.701  16.541   3.510  0.1184 -0.3780 -0.0145
15203W        W31677   0.526  12.238  13.879  0.0596  0.3577 -0.0029
15204W        W31678  16.222   3.277  14.282 -0.1881  0.0086 -0.0548
15205W        W31679  19.171  11.543  11.428  0.0547  0.1682  0.0209
15206W        W31680  10.629  18.072   2.923  0.0040 -0.2032  0.2312
15207W        W31681   4.980   4.237   3.537  0.4036  0.2390  0.1961
15208W        W31682   7.700   6.080  10.931  0.0378  0.0423 -0.0587
15209W        W31683   3.434   8.684   4.494  0.1461  0.0271 -0.0723
15210W        W31684  16.077  18.595  14.571 -0.1999  0.3526  0.1650
15211W        W31685  13.328  11.631   5.696  0.3601 -0.2736 -0.0112
15212W        W31686   4.009  10.885   0.577  0.0413 -0.0035 -0.0403
15213W        W31687   3.139   4.539   2.408  0.1187  0.1272 -0.3771
15214W        W31688   0.338  16.156   0.966  0.0092  0.0696 -0.1542
15215W        W31689  18.918   1.607   1.791 -0.3750 -0.0728 -0.0315
15216W        W31690   7.947  11.999  13.645  0.2919 -0.0563  0.1605
15217W        W31691   7.980   9.267   3.259  0.1346 -0.2048 -0.0660
15218W        W31692   1.613  16.715   0.743 -0.0265 -0.1156 -0.3444
15219W        W31693   6.848   9.109  12.981  0.1356 -0.2951 -0.0167
15220W        W31694   2.066  17.590   5.169  0.2571  0.0975 -0.2135
15221W        W31695   2.832   5.520   0.952 -0.3399 -0.0106 -0.0153
15222W        W31696  13.789  15.713   5.303 -0.1256 -0.1200  0.1469
15223W        W31697   5.624  16.500   0.055 -0.2936  0.1866 -0.1782
15224W        W31698   7.626  11.842  11.882  0.0941  0.2914  0.3086
15225W        W31699   2.489   8.086   1.089  0.1731 -0.0277 -0.0984
15226W        W31700  12.721  15.099   3.990  0.2546  0.0560  0.1067
15227W        W31701  10.992   6.827  13.888  0.5231 -0.4289  0.0904
15228W        W31702   1.399  19.532   9.957  0.0673  0.0576 -0.1309
15229W        W31703  10.829   2.202  13.288 -0.3025  0.1434  0.0253
15230W        W31704  15.818  10.120   5.715 -0.2574  0.0455  0.0062
15231W        W31705  12.590  14.008   3.858 -0.0235  0.1526  0.0408
15232W        W31706   7.423   7.284   5.433 -0.0557  0.1866 -0.1068
15233W        W31707   4.155   4.994  13.004  0.1134 -0.2165  0.1495
15234W        W31708  10.264   3.689   1.484  0.1328 -0.1750  0.0179
15235W        W31709  12.892   1.700   9.900 -0.2655  0.0185  0.2330
15236W        W31710  17.202   5.789   5.194 -0.1351  0.1367  0.0494
15237W        W31711  19.467   1.221  13.608  0.1937 -0.2727  0.0145
15238W        W31712   4.116   5.430   0.444  0.1043 -0.0258 -0.2195
15239W        W31713   4.091  17.360   4.866  0.0265  0.3607 -0.1014
15240W        W31714   9.530   1.744   2.324  0.2577 -0.0658 -0.1790
15241W        W31715  18.819  11.424   2.042  0.0553  0.0720  0.1472
15242W        W31716   7.286   3.779   3.899 -0.2444  0.1098  0.2805
15243W        W31717   5.132   2.860   3.573 -0.0864  0.1398  0.3269
15244W        W31718  17.841   9.193  10.856  0.2424 -0.0321  0.1096
15245W        W31719  12.783   8.380   3.265 -0.1864  0.1623 -0.3160
15246W        W31720   8.922   9.189   4.663  0.0645 -0.0007  0.2154
15247W        W31721   1.603   9.893   4.584  0.0730  0.0706  0.2068
15248W        W31722   8.881  17.475  11.209 -0.2286 -0.2965  0.1753
15249W        W31723   3.227   9.405  12.186  0.0164  0.0799 -0.0936
15250W        W31724  18.780  11.888  11.428 -0.3756 -0.0496 -0.1920
15251W        W31725  16.520  10.728   0.084  0.1438  0.0745  0.0668
15252W        W31726  11.762   7.716   2.551  0.1777 -0.3488  0.0244
15253W        W31727   7.366  10.948  10.474 -0.2336  0.0640  0.1213
15254W        W31728   5.004   6.661   3.716  0.0101 -0.3819 -0.1457
15255W        W31729   6.954   3.440  12.384  0.0831 -0.0308 -0.0623
15256W        W31730   6.694  10.709  13.514 -0.1435 -0.0880 -0.4083
15257W        W31731   7.111  18.291  12.003  0.0885  0.0842  0.2557
15258W        W31732   0.699   0.587  10.868  0.0590 -0.0226 -0.1179
15259W        W31733  16.860  17.488   2.858  0.0218  0.2382 -0.0582
15260W        W31734  18.549   4.401  13.390 -0.0605  0.1144  0.1407
15261W        W31735  11.166  16.557   0.944  0.0088 -0.0256  0.4435
15262W        W31736  14.531  18.001  14.645  0.3264  0.1934 -0.2533
15263W        W31737   4.717  16.214   9.335  0.1244 -0.0788 -0.0608
15264W        W31738   1.523   1.873  10.023 -0.2343  0.0017 -0.2749
15265W        W31739  15.312  16.273   4.667  0.2872  0.5435 -0.0558
15266W        W31740   0.055   0.565   1.589  0.1873 -0.0257 -0.0126
15267W        W31741   1.421  13.534   4.375 -0.3527 -0.2685  0.0386
15268W        W31742   6.134  13.058  11.274 -0.3346  0.0239 -0.0927
15269W        W31743  18.617  17.656  12.207  0.1521  0.0273 -0.0847
15270W        W31744  15.606   2.064   0.326 -0.2654 -0.0391 -0.1496
15271W        W31745  13.103   4.458  12.910  0.0637  0.0624  0.3097
15272W        W31746   7.887  10.883   3.115  0.0597  0.4483 -0.3946
15273W        W31747  17.208  14.291   3.901 -0.1306  0.1750 -0.0979
15274W        W31748  14.033   2.857   3.705  0.0449 -0.2294  0.0313
15275W        W31749  16.728   7.154   0.114  0.2640  0.0240 -0.4097
15276W        W31750  11.387   2.715  12.660  0.0278 -0.0320 -0.1120
15277W        W31751   6.547   2.112  12.243 -0.1717  0.2811 -0.0503
15278W        W31752  14.357  14.593   1.697 -0.2138 -0.2166 -0.1978
15279W        W31753  15.355   4.840   3.441  0.2244  0.3114  0.0151
15280W        W31754  14.989  16.901   5.173 -0.4088  0.3856  0.2560
15281W        W31755  15.053   2.493   5.138  0.1803 -0.1355 -0.0557
15282W        W31756  14.861  15.072  11.131  0.0216 -0.0911 -0.2389
15283W        W31757   8.796  13.009  10.539 -0.0328  0.3575  0.2581
15284W        W31758   5.236   6.253  10.928 -0.2680  0.1116  0.0357
15285W        W31759  10.888   8.755  14.131 -0.0404 -0.1638  0.1812
15286W        W31760   7.238  13.733   4.627  0.2101  0.1100  0.0857
15287W        W31761   2.651   5.823  13.949 -0.0165 -0.2936 -0.1494
15288W        W31762  13.721  10.943  10.759 -0.0565 -0.2404 -0.0996
15289W        W31763  14.828  11.508   0.374 -0.1344 -0.1620  0.2861
15290W        W31764  19.458  19.223  13.453 -0.3343  0.1556 -0.3112
15291W        W31765  10.231   4.063   1.965 -0.1426 -0.0023  0.2358
15292W        W31766  16.437   2.183   3.426  0.0958 -0.2300 -0.3340
15293W        W31767  11.639  10.619  13.137  0.1627  0.0974 -0.2267
15294W        W31768  18.079   1.098  11.140  0.0234  0.1999 -0.0684
15295W        W31769   5.200   3.448   2.947 -0.3091 -0.2744  0.0529
15296W        W31770   3.061   1.264  11.675 -0.1446 -0.2579  0.1558
15297W        W31771  11.755  16.378   4.049 -0.2131 -0.3032 -0.1182
15298W        W31772   8.226  13.277   5.504  0.1711 -0.0836  0.1305
15299W        W31773  16.494   4.078   4.505  0.1767 -0.0600 -0.0869
15300W        W31774   0.864   4.566   0.147 -0.2327 -0.3000 -0.1228
15301W        W31775  19.168  18.544   0.300 -0.0570  0.1228  0.1441
15302W        W31776  13.809  16.277  10.521 -0.2610 -0.0822  0.0689
15303W        W31777  18.476  10.389  13.869  0.0826  0.2053  0.1977
15304W        W31778   4.206  15.493   1.863 -0.0255  0.1698 -0.0344
15305W        W31779   5.568   6.531   1.935 -0.1686  0.0331  0.1148
15306W        W31780   6.993   5.341   2.988  0.1732  0.2030  0.3255
15307W        W31781  15.314   8.452  11.844 -0.0032 -0.2418  0.0195
15308W        W31782  15.230   6.825   2.347  0.0429 -0.0813  0.0819
15309W        W31783  16.092  11.964   3.979  0.0975  0.2045  0.0275
15310W        W31784   2.000  10.239   0.484 -0.4521 -0.2815 -0.0594
15311W        W31785  11.368   1.243  12.568 -0.2136  0.0207  0.0910
15312W        W31786   2.406   9.920  14.400 -0.1813  0.1784 -0.2404
15313W        W31787   8.742  17.801  10.851 -0.4852 -0.3584  0.1485
15314W        W31788   5.162  18.433  11.639 -0.0573  0.3414 -0.1451
15315W        W31789   1.091  13.574   0.936  0.1880 -0.2294 -0.0169
15316W        W31790   0.684   8.262   9.374  0.1266  0.0719  0.1523
15317W        W31791  10.116  12.317   2.711  0.4965 -0.0721  0.0219
15318W        W31792  10.312   7.020   2.936 -0.0081  0.1572  0.3774
15319W        W31793  15.417   6.610  12.546  0.2450 -0.0191 -0.0929
15320W        W31794  10.634  16.736   3.537 -0.2755 -0.0308 -0.0979
15321W        W31795  10.306  11.904   9.720  0.1276 -0.2304  0.0677
15322W        W31796  18.894  14.735  11.867  0.0190  0.0385  0.1549
15323W        W31797  15.726  13.580   3.415  0.1703  0.0153 -0.2222
15324W        W31798  14.056   0.421  11.247  0.0183  0.0543 -0.2256
15325W        W31799  16.834   5.281  12.043 -0.0552  0.2115  0.0540
15326W        W31800   0.986  15.354   5.155 -0.2966 -0.0619 -0.0292
15327W        W31801   0.246   1.380   3.181 -0.3317 -0.2149 -0.6129
15328W        W31802   1.823   4.633   4.705  0.4136 -0.2828  0.0775
15329W        W31803  16.336   5.205  10.976  0.0400  0.1090 -0.1013
15330W        W31804   5.911  15.028   5.513 -0.0683  0.4055  0.2302
15331W        W31805   2.115  10.563   9.289 -0.3564 -0.1078  0.4078
15332W        W31806   3.571  13.949  13.147 -0.1545  0.1615 -0.1799
15333W        W31807  13.166   1.799   0.742  0.2694 -0.0622  0.2102
15334W        W31808  12.785   1.238   0.920  0.2999  0.2616  0.1987
15335W        W31809   8.916   0.898   4.231  0.2420 -0.1564  0.2309
15336W        W31810  17.444   0.009  11.265 -0.1217  0.1432 -0.0080
15337W        W31811   2.999  14.431   0.546  0.0674 -0.1211  0.5046
15338W        W31812   9.988   2.629  12.137 -0.0473 -0.0344  0.2884
15339W        W31813  17.898   1.365   0.625  0.0614 -0.2140 -0.4057
15340W        W31814   0.187  18.610   1.583  0.1078 -0.0380  0.2003
15341W        W31815  18.450  13.074   0.487  0.0436 -0.2040  0.1146
15342W        W31816   2.719   8.551  13.576  0.2821  0.0307 -0.0703
15343W        W31817  16.837  14.685   1.018  0.0406 -0.0894 -0.1602
15344W        W31818  17.767  18.760  11.378  0.2925 -0.0416 -0.1646
15345W        W31819  15.222  10.417   0.288 -0.0547  0.2473  0.1236
15346W        W31820   1.714   3.302   2.703 -0.2013 -0.0625 -0.0225
15347W        W31821  11.964   3.338   1.705  0.1616 -0.0152 -0.0509
15348W        W31822  12.113   6.812  11.452 -0.1687  0.0228  0.2470
15349W        W31823   6.837   8.614   5.149  0.2130  0.1744  0.2546
15350W        W31824   9.510   5.478   9.411  0.0654  0.2168 -0.2721
15351W        W31825  19.161   2.053   1.715 -0.1775 -0.2258  0.2808
15352W        W31826  14.674  11.522   2.859  0.3944  0.0860  0.3515
15353W        W31827  19.106  17.303  10.901  0.1633  0.1577 -0.0115
15354W        W31828   3.752  17.637  11.453 -0.3416 -0.1844  0.0922
15355W        W31829   4.780   9.246   0.927  0.0246 -0.2367 -0.2654
15356W        W31830  10.127   3.334   1.794 -0.4704 -0.0211 -0.1846
15357W        W31831   5.792  15.401  10.488  0.1296 -0.1344  0.2311
15358W        W31832  16.069  17.027  11.229  0.2523  0.3625  0.3101
15359W        W31833   7.476  17.116   4.296 -0.0388 -0.1750 -0.1329
15360W        W31834   8.359   8.923  11.728  0.1951  0.0607 -0.1788
15361W        W31835  12.962  13.431   0.863  0.3142  0.0826 -0.0527
15362W        W31836  10.788   7.638   3.603  0.0812 -0.2593 -0.0703
15363W        W31837  17.261   0.428   2.605 -0.0791  0.0596  0.0478
15364W        W31838  18.590   9.624  11.373  0.1086 -0.0802 -0.1809
15365W        W31839   9.238   9.527  14.659  0.1290  0.0472 -0.0530
15366W        W31840  18.544  14.379   1.315  0.1939 -0.2207 -0.0360
15367W        W31841   6.223   8.886   9.352 -0.2704 -0.2496 -0.3484
15368W        W31842  15.470   7.873  12.188 -0.2324 -0.1292  0.0866
15369W        W31843  15.537  12.094  10.314  0.1398  0.2059  0.0453
15370W        W31844   1.379   7.876  10.886  0.0892  0.5182  0.2943
15371W        W31845   8.857  12.943   4.875  0.0287  0.1678 -0.2562
15372W        W31846   3.066   6.893   4.690  0.4388  0.0095  0.1065
15373W        W31847   6.043  18.238   2.208 -0.1418 -0.0087 -0.1570
15374W        W31848  13.524   9.582  13.089 -0.1038 -0.2991 -0.4288
15375W        W31849  16.986   7.718   4.865  0.2132  0.5338  0.0231
15376W        W31850  18.785  13.354   2.924  0.2218 -0.2389  0.3156
15377W        W31851  18.376  14.873   1.383  0.2147  0.5806  0.1176
15378W        W31852  12.727   0.451  12.372 -0.2992 -0.3030 -0.1694
15379W        W31853  14.940   7.376  11.621  0.3028 -0.0917  0.1744
15380W        W31854   9.378  15.616   3.020 -0.3650 -0.0813 -0.0203
15381W        W31855   5.831  18.559  12.837 -0.0177 -0.3961  0.1059
15382W        W31856  15.987   5.483   4.046 -0.0221 -0.1041  0.0181
15383W        W31857  10.925  10.206  10.813 -0.2446  0.2501 -0.0815
15384W        W31858  17.039   5.486   2.685 -0.2298 -0.2329 -0.1987
15385W        W31859  16.002  17.114  13.272  0.0606  0.3191 -0.4017
15386W        W31860   9.068   9.461  10.235  0.1335  0.0221  0.0844
15387W        W31861  12.294   6.074  12.537  0.2918  0.0601 -0.1141
15388W        W31862  19.245  17.053  13.933 -0.0024 -0.0404  0.1013
15389W        W31863   0.145  17.165  12.033  0.0188  0.2362 -0.0545
15390W        W31864  11.342   6.133  10.498 -0.2212 -0.0046 -0.0361
15391W        W31865   7.233  19.248  13.144 -0.0237  0.2722 -0.0788
15392W        W31866  14.077   4.792   2.818 -0.1067  0.0844  0.0079
15393W        W31867  15.459   2.115   2.174  0.1271 -0.1005  0.3521
15394W        W31868  17.353   2.887   2.765 -0.1529 -0.3714 -0.0576
15395W        W31869  19.010  18.745  13.113  0.3099  0.1530  0.2046
15396W        W31870  10.431  11.730   2.396 -0.1760 -0.0820 -0.1017
15397W        W31871  10.182   6.028  10.847  0.0442 -0.1387 -0.1344
15398W        W31872   4.975  17.726  14.370  0.0438  0.0724 -0.0351
15399W        W31873  18.811  16.388   3.145 -0.1230 -0.0070 -0.0416
15400W        W31874   5.717   7.906  12.260  0.0821  0.2887  0.1362
15401W        W31875  15.655   6.578   0.647  0.0708  0.1294  0.0133
15402W        W31876  16.101   1.357  10.045  0.1322  0.1255 -0.4980
15403W        W31877  10.728   1.586   1.729 -0.0180 -0.0196  0.0302
15404W        W31878  11.675   6.203   1.967 -0.0974 -0.1758 -0.1309
15405W        W31879   3.953   0.957  11.875 -0.0537 -0.0344 -0.4392
15406W        W31880   8.895   2.225  11.913 -0.0480  0.2676 -0.2079
15407W        W31881  12.921   5.062   3.115 -0.0485 -0.1586 -0.2005
15408W        W31882  15.067   5.842  12.457 -0.0833  0.0224  0.0769
15409W        W31883  14.742  17.143  12.344 -0.0777  0.0795  0.0857
15410W        W31884  18.229  13.432  10.808 -0.4425 -0.0836  0.0739
15411W        W31885   2.993   0.751  10.348 -0.4158 -0.1313 -0.0884
15412W        W31886   6.666   4.899  12.179  0.2042  0.4975  0.0733
15413W        W31887   7.528   8.377   1.044  0.1255 -0.2172  0.0728
15414W        W31888   2.468  10.902   3.448  0.1327  0.0632 -0.2296
15415W        W31889   8.376  14.477   4.947 -0.5163 -0.4326  0.2721
15416W        W31890  13.243   2.208  14.545  0.2526 -0.3711 -0.1214
15417W        W31891  11.285  19.280  13.773 -0.0352  0.1408  0.2050
15418W        W31892  16.645  17.145   1.246 -0.0248 -0.0994  0.2314
15419W        W31893  12.491  16.528   2.263 -0.0237 -0.0347 -0.1000
15420W        W31894   1.321   2.863   9.981 -0.0022  0.2010  0.3401
15421W        W31895   3.455   5.600   5.143 -0.1827 -0.1194 -0.1718
15422W        W31896  10.160   1.576  11.130  0.2101  0.2740 -0.1342
15423W        W31897   6.250   4.173   0.647 -0.2924 -0.1308 -0.1017
15424W        W31898   9.535   8.938   1.643  0.0864  0.0976 -0.0328
15425W        W31899  11.723  11.993  11.768 -0.1402 -0.2884 -0.2594
15426W        W31900  13.831   0.276   3.630  0.2694 -0.0886 -0.2492
15427W        W31901  14.550   6.632  12.791 -0.1842  0.3227 -0.1450
15428W        W31902   1.438  15.539   9.959  0.2963 -0.0386 -0.1575
15429W        W31903   4.032   2.058  13.326 -0.1442  0.1691 -0.2023
15430W        W31904   6.078  19.021   4.047 -0.0376 -0.2039  0.2573
15431W        W31905   6.596  17.116  14.520  0.1835  0.1503  0.0394
15432W        W31906  17.401  18.716   1.658  0.2863 -0.0951  0.1928
15433W        W31907  10.764  18.063  12.936  0.0994  0.0590 -0.0456
15434W        W31908  15.010  19.277   3.668 -0.0002 -0.0485 -0.0084
15435W        W31909  17.030   4.492  11.994  0.1485  0.3429  0.0966
15436W        W31910   5.513  14.657  12.173 -0.0872 -0.1917 -0.2016
15437W        W31911   9.867  17.958  14.397 -0.3208  0.1349 -0.2977
15438W        W31912   0.395  17.008   2.871 -0.3807 -0.0844 -0.3847
15439W        W31913   6.144  10.106   1.172  0.0529 -0.1259  0.2856
15440W        W31914   7.931   6.202   2.740 -0.0158  0.2562  0.0017
15441W        W31915   2.020  14.990   0.401  0.2528 -0.1132  0.0795
15442W        W31916  19.141   3.362   4.708 -0.0364 -0.1969 -0.1661
15443W        W31917  11.602  12.014  12.797  0.1716 -0.2253  0.0554
15444W        W31918   0.632   1.929   1.044  0.0277 -0.1036 -0.3397
15445W        W31919  14.469   0.474   2.358  0.1345  0.1329 -0.0758
15446W        W31920  11.897  18.379  10.460  0.0563 -0.1182  0.0168
15447W        W31921   5.591  12.423  14.362 -0.0702  0.2445 -0.0937
15448W        W31922   8.174   8.746   9.167 -0.2033  0.0810  0.0750
15449W        W31923   1.846   9.542   0.860 -0.2131 -0.0090  0.1361
15450W        W31924  17.543   3.974   4.125  0.3147 -0.0309  0.1602
15451W        W31925   5.726  16.029  10.470  0.2066  0.4089  0.2703
15452W        W31926  17.050  11.031  12.715  0.0178  0.2938  0.1607
15453W        W31927  18.990   1.993   4.800  0.0077  0.0837 -0.2616
15454W        W31928   8.786  10.735   0.587 -0.2420 -0.2795 -0.1281
15455W        W31929  12.463   3.670  12.414  0.1793  0.0807 -0.0995
15456W        W31930  13.672   3.761  12.300 -0.3943 -0.0274  0.1880
15457W        W31931  17.002  16.628   4.536  0.0414  0.2622  0.0762
15458W        W31932   2.846   5.029  13.651 -0.2597  0.1391  0.0712
15459W        W31933  12.022  17.422  13.225 -0.2157  0.1699 -0.1219
15460W        W31934  12.913  17.273   3.900  0.0940 -0.2881 -0.0410
15461W        W31935   5.814   5.190  14.447 -0.2231  0.0952 -0.2282
15462W        W31936  10.074   6.022  11.362  0.1324 -0.1178  0.0282
15463W        W31937  18.288   7.497   4.750 -0.0859 -0.1963 -0.1880
15464W        W31938   8.043   5.049  12.420  0.2227  0.0238  0.4265
15465W        W31939  13.906   5.392  11.098 -0.1295  0.1743 -0.2323
15466W        W31940   7.799  12.309  12.640 -0.0637 -0.0809 -0.0483
15467W        W31941  19.583  12.647   4.599  0.0847  0.2020  0.0664
15468W        W31942  18.437  16.632  13.745 -0.0572  0.0069  0.1383
15469W        W31943   7.554   2.022   9.711  0.2312  0.1726  0.1526
15470W        W31944  14.543   9.552  12.327 -0.3447 -0.0433 -0.0354
15471W        W31945   9.135   4.432  10.819  0.1325 -0.1146 -0.3021
15472W        W31946  12.439  12.055  11.624 -0.0481  0.0645 -0.0468
15473W        W31947   4.663   2.789  11.299  0.0869 -0.1680 -0.0546
15474W        W31948  14.570  12.438   5.283 -0.0233 -0.3184  0.0666
15475W        W31949  10.292  18.636   3.913 -0.1644  0.2708  0.1632
15476W        W31950   0.930  15.681   4.544  0.2183 -0.0170  0.2414
15477W        W31951   4.356   8.254   0.767  0.2621  0.0543 -0.1251
15478W        W31952   1.687  19.577   5.397 -0.1404 -0.2397 -0.1336
15479W        W31953   5.043   1.872   3.649  0.0674 -0.2061  0.2399
15480W        W31954  14.027  17.143  10.375  0.1639 -0.3345 -0.0993
15481W        W31955  12.790  19.245   0.815 -0.1548  0.1471 -0.1036
15482W        W31956  17.983  10.408   2.740  0.0661 -0.2776  0.1725
15483W        W31957  10.627  16.550  13.484  0.1344 -0.1048  0.2636
15484W        W31958   6.398   9.687   1.055 -0.0799  0.1824 -0.1068
15485W        W31959   7.715   4.671   3.934 -0.0157 -0.0718 -0.2225
15486W        W31960   6.709  10.402   4.863 -0.2680 -0.2086 -0.0629
15487W        W31961   3.707  17.505  13.563  0.1060  0.0299 -0.0652
15488W        W31962   1.272  15.564  12.409 -0.0919 -0.4048 -0.0442
15489W        W31963   2.966  13.914  12.002 -0.0818 -0.1646 -0.0854
15490W        W31964  11.016   0.462   4.695  0.0969 -0.2087  0.0231
15491W        W31965   2.149  16.671   1.611 -0.1384  0.2158  0.0785
15492W        W31966  16.302  18.854   4.194 -0.3216 -0.0094 -0.1816
15493W        W31967  15.216  15.833  12.958  0.1445 -0.1570  0.0458
15494W        W31968  14.936   1.149  14.038 -0.1477 -0.0532  0.0793
15495W        W31969  17.566   3.096   1.970 -0.1716  0.0061  0.0426
15496W        W31970   8.794  17.666  14.377 -0.1078  0.1974  0.0296
15497W        W31971  19.310  17.708   3.899  0.3081 -0.2403  0.0952
15498W        W31972   0.469  15.579   0.810 -0.2404  0.3389 -0.0751
15499W        W31973  11.939   0.651  12.230  0.3517  0.1157 -0.0423
15500W        W31974   8.449   6.974  10.759  0.1913 -0.0532  0.0723
15501W        W31975   3.255   9.228  11.163  0.1400  0.0503  0.1202
15502W        W31976   9.672  14.957   3.936  0.5797 -0.2784  0.1151
15503W        W31977  10.824  15.253   2.430  0.1845  0.1900  0.1276
15504W        W31978   4.719  18.810  11.716  0.1885  0.0805 -0.0685
15505W        W31979  11.468   0.153  13.875  0.2283 -0.1964  0.1185
15506W        W31980   3.739   7.225   9.758 -0.3769 -0.0371  0.0171
15507W        W31981  10.442   2.479   1.494  0.1521  0.0172 -0.0842
15508W        W31982   6.862   6.898   0.005  0.3741  0.1999  0.0794
15509W        W31983  13.652   2.547   2.561  0.1858 -0.0030  0.1082
15510W        W31984   2.059   8.752   3.891 -0.0821 -0.0827  0.1597
15511W        W31985   1.217   3.126  13.330 -0.0938  0.1389  0.0663
15512W        W31986  12.265  14.313   1.735 -0.0683  0.1274 -0.0949
15513W        W31987  18.182   6.116  11.204  0.1802  0.0556 -0.0252
15514W        W31988   3.075   0.690   1.431 -0.1278 -0.0169 -0.3416
15515W        W31989   9.642   9.695   2.196 -0.0430  0.4103 -0.2993
15516W        W31990   4.808  18.227  14.639 -0.1536 -0.1083 -0.1700
15517W        W31991   9.150   5.204  13.649 -0.0235  0.1039  0.0110
15518W        W31992  16.718   4.500  12.645  0.4405  0.1730  0.0994
15519W        W31993   7.765  19.563   1.949  0.0375  0.1997 -0.1769
15520W        W31994   8.331   6.469  12.270  0.1049  0.3585 -0.0121
15521W        W31995  14.253  12.275   0.128 -0.3168 -0.0494 -0.1604
15522W        W31996   5.612   8.292  14.374 -0.0940 -0.0603  0.4918
15523W        W31997  15.509  17.989  12.296  0.2559  0.2556  0.1852
15524W        W31998  12.379   1.794  10.075  0.0096  0.0450 -0.2016
15525W        W31999   7.620  18.527  12.027 -0.0467  0.3784 -0.0822
15526W        W32000  13.630   3.788   1.770  0.3159  0.0351  0.0683
15527W        W32001  19.458   6.172   4.406 -0.1483  0.1935  0.0515
15528W        W32002   7.694   9.483  12.200  0.1030  0.0834  0.2039
15529W        W32003   2.143   1.454  13.099  0.5784  0.1281 -0.2721
15530W        W32004  10.196  12.801   3.574  0.2237  0.2401  0.0294
15531W        W32005   1.631   0.419   2.650 -0.0143  0.4223 -0.0837
15532W        W32006  10.943  18.839  10.471 -0.2734 -0.4005  0.1286
15533W        W32007   7.706  15.825  11.415 -0.1410  0.1137 -0.3300
15534W        W32008  12.103   8.794  10.517  0.0297 -0.2142 -0.0812
15535W        W32009   5.764   9.835   3.636  0.0164 -0.1312  0.2917
15536W        W32010  14.180  12.521  12.882 -0.0613 -0.3207  0.0796
15537W        W32011   7.586   5.434   3.813 -0.1050  0.1628 -0.0233
15538W        W32012   3.534   0.329  14.275  0.0887 -0.0621 -0.0555
15539W        W32013   3.738  11.237  12.217 -0.1085 -0.2434  0.2845
15540W        W32014   5.012   3.754   2.527  0.0965 -0.1052 -0.0557
15541W        W32015   2.201  17.074   2.628 -0.2809 -0.2287  0.0994
15542W        W32016   5.177   0.601   1.909  0.0242 -0.2747  0.0651
15543W        W32017  17.368   7.067  13.459 -0.2489 -0.0127  0.2195
15544W        W32018  16.792   0.035   2.606  0.0943 -0.2069 -0.2136
15545W        W32019   2.455   1.375   3.170 -0.0995  0.1874  0.2117
15546W        W32020  13.514   9.217   4.797  0.0397  0.0644  0.0653
15547W        W32021   3.162   7.191   5.259 -0.0539 -0.2521 -0.0026
15548W        W32022   9.532  18.015   3.785  0.0042 -0.2059  0.0176
15549W        W32023  16.704  17.656   1.955 -0.2919  0.1387 -0.1439
15550W        W32024  11.542   4.198  13.439  0.0266 -0.1408  0.2705
15551W        W32025   0.912   4.391  12.657 -0.1091  0.2085 -0.2145
15552W        W32026   8.749   2.405   2.686  0.0729  0.2037  0.2899
15553W        W32027   1.365  14.756  14.600 -0.4091  0.3535 -0.0127
15554W        W32028  13.836   4.171  12.776 -0.0876 -0.0731 -0.0408
15555W        W32029   5.752   5.959   0.470  0.3178  0.1748 -0.2286
15556W        W32030   7.224  11.080  14.145 -0.0419 -0.0933  0.0678
15557W        W32031  12.132  10.873   0.809  0.2513 -0.1818 -0.0418
15558W        W32032   0.099  10.613  11.218 -0.0175 -0.1260  0.2937
15559W        W32033  12.800  11.323   2.333 -0.2330  0.1263  0.0565
15560W        W32034  17.854   9.119   2.197  0.0558 -0.1031 -0.2979
15561W        W32035   9.348  10.709   2.471 -0.0949 -0.2370  0.2073
15562W        W32036   9.827  18.575   3.024  0.1126 -0.0020  0.3623
15563W        W32037  14.713   0.047   0.230  0.2414 -0.4889  0.1254
15564W        W32038  16.038  19.590  11.614 -0.1733 -0.0766  0.1511
15565W        W32039   8.811  10.263  11.803 -0.1394 -0.1561 -0.0989
15566W        W32040  10.782  18.606   3.858  0.1309 -0.1230  0.0623
15567W        W32041  12.406  12.791   2.260  0.3263 -0.0309 -0.2069
15568W        W32042  11.847  10.427  11.099  0.0480 -0.1379 -0.1402
15569W        W32043   8.270  15.470  12.364 -0.2910  0.0794 -0.2004
15570W        W32044   1.194  10.537  10.885 -0.0890 -0.3284 -0.3214
15571W        W32045  13.276  14.221   5.042 -0.3631  0.2301 -0.0198
15572W        W32046   2.209  12.956  13.458 -0.0472  0.0373  0.1016
15573W        W32047  11.445   4.214   9.439 -0.1798  0.0955 -0.0973
15574W        W32048   8.015  16.526   4.775  0.0643  0.2827 -0.1031
15575W        W32049  18.862   5.528  11.523  0.0746 -0.0385 -0.2988
15576W        W32050  14.564  13.232  12.433  0.1497  0.1716 -0.3935
15577W        W32051  15.680  16.717   1.822 -0.0184  0.2354 -0.2039
15578W        W32052  16.835  16.255  10.414  0.0792  0.0287  0.2060
15579W        W32053   5.875   3.307  12.411  0.1742 -0.2165  0.0489
15580W        W32054   3.106   6.895   4.126  0.2435 -0.2020 -0.2163
15581W        W32055  14.096   1.071   0.696 -0.1606  0.2611  0.0467
15582W        W32056  14.282  10.232  10.283 -0.1663 -0.0402 -0.0431
15583W        W32057  12.272   5.309   1.270  0.1125 -0.1100 -0.1686
15584W        W32058   0.298  16.924   1.707 -0.3366  0.1180 -0.2189
15585W        W32059   0.577   4.084   3.638 -0.1823  0.0660  0.1739
15586W        W32060  10.189   2.739   9.857 -0.0377 -0.1876  0.1211
15587W        W32061   0.356   3.282   4.206 -0.2164  0.1455  0.0412
15588W        W32062   9.088  17.826   1.633 -0.0281  0.0639 -0.1283
15589W        W32063   4.943  14.840   2.218 -0.1947  0.0096  0.0543
15590W        W32064   3.295  11.190   5.201 -0.0081  0.0728 -0.1531
15591W        W32065   3.066  16.232  10.901 -0.1512 -0.1965  0.2751
15592W        W32066  17.756  13.318   2.056 -0.1706  0.1893 -0.0875
15593W        W32067  19.361   7.443  13.015  0.1118 -0.0636  0.0602
15594W        W32068   7.708   8.582   3.271  0.0286  0.2456 -0.1513
15595W        W32069   8.400   9.016   2.606 -0.1658 -0.0297  0.0317
15596W        W32070   1.589   6.887   2.737  0.0371  0.1150 -0.1306
15597W        W32071   0.792   2.711  12.202  0.0061 -0.0966 -0.0782
15598W        W32072  19.033  19.067   5.274  0.0186 -0.1756  0.1847
15599W        W32073   6.698  11.559   4.403 -0.1553 -0.0549 -0.1447
15600W        W32074   6.896   3.511  11.676 -0.2002 -0.1392  0.1622
15601W        W32075  13.827   3.507  11.880  0.2262  0.1189 -0.3249
15602W        W32076   0.158   8.102  10.800 -0.1588 -0.0986  0.0047
15603W        W32077  17.932   5.903  11.558  0.0007 -0.2732 -0.1475
15604W        W32078  18.078   8.839   4.101  0.1022  0.2670 -0.1096
15605W        W32079   9.027   5.697   0.076  0.0594 -0.0274  0.0375
15606W        W32080  10.416  10.186   1.133 -0.0288  0.0789  0.3913
15607W        W32081  19.601   8.114  13.290 -0.1691  0.3247 -0.0985
15608W        W32082   2.885  13.569   0.009  0.0393  0.0928 -0.2320
15609W        W32083   1.809  18.213  10.998  0.1715 -0.1174 -0.2203
15610W        W32084   9.484   4.801  10.660 -0.0817  0.0604 -0.0857
15611W        W32085   9.610  19.003   2.823  0.0292  0.0264 -0.1094
15612W        W32086  16.923  13.781  11.315  0.1906 -0.1368 -0.0568
15613W        W32087   2.691   7.374  12.893  0.1434 -0.0493  0.1096
15614W        W32088   3.614   4.918   3.173  0.3573  0.0441 -0.1422
15615W        W32089  16.915  14.858   1.493 -0.3735 -0.2531  0.1194
15616W        W32090  17.288  16.189  11.289 -0.0336  0.2147  0.0897
15617W        W32091   8.210  13.849   2.348  0.1597 -0.1619 -0.4618
15618W        W32092  10.134   9.502   2.653  0.0591  0.0188 -0.3182
15619W        W32093   7.213   7.093   2.635 -0.2508 -0.0257  0.0205
15620W        W32094   9.075   1.520  13.882  0.1140  0.2048 -0.0213
15621W        W32095  18.656   9.804   3.312  0.1211 -0.0196 -0.2794
15622W        W32096   2.219   6.277  11.728 -0.2334  0.1229  0.1341
15623W        W32097  17.118   0.858  12.338 -0.1320  0.0980  0.2469
15624W        W32098  12.219   6.023   2.151 -0.1298  0.0998 -0.2521
15625W        W32099  13.086  13.210   4.619 -0.2146 -0.1911 -0.1651
15626W        W32100  18.246  17.995   9.494 -0.1541 -0.1593  0.1960
15627W        W32101   9.249  10.396  11.080 -0.2017  0.2679 -0.3668
15628W        W32102   2.698   4.586  12.500 -0.0008 -0.2113 -0.1917
15629W        W32103  11.981  10.519   2.002 -0.1076 -0.0781 -0.0966
15630W        W32104   4.356   0.374   4.503 -0.0387  0.0027  0.3272
15631W        W32105  19.148  12.465  14.392  0.0354 -0.0303  0.0442
15632W        W32106   8.243   5.205   0.528  0.0321 -0.0460  0.0003
15633W        W32107   4.253   4.330   3.804 -0.1169  0.1581  0.0463
15634W        W32108   9.663   1.477  11.081 -0.0961  0.0988  0.0069
15635W        W32109  12.798  16.751  10.436  0.0493  0.4251  0.2642
15636W        W32110   0.493  11.186  10.908  0.3592  0.1280  0.0621
15637W        W32111   5.019  10.709  11.060 -0.2012 -0.0996  0.1993
15638W        W32112  12.219   0.361  10.000  0.1068 -0.0360 -0.0954
15639W        W32113  16.397  11.129   4.341 -0.0270  0.2797 -0.0369
15640W        W32114   6.737   2.829   2.639  0.0255  0.1400 -0.0986
15641W        W32115   6.842  12.351  10.290  0.1949  0.2278 -0.1636
15642W        W32116  13.113  16.397  11.783  0.1047  0.2949  0.2041
15643W        W32117   0.894  14.484   3.542 -0.1111 -0.0071  0.0124
15644W        W32118  12.762   0.760   1.130 -0.2420  0.2626 -0.2244
15645W        W32119   9.596   8.237  13.641 -0.0476  0.2428  0.1697
15646W        W32120  19.505  17.723  10.684  0.1258  0.2225 -0.2853
15647W        W32121   8.074   5.219  13.839  0.0850 -0.0540  0.0831
15648W        W32122  19.525  14.462   9.998 -0.2198 -0.0569  0.0796
15649W        W32123   6.518  12.973   1.951  0.0867  0.1528 -0.1283
15650W        W32124   1.143  18.825   3.676  0.0770 -0.0863  0.2091
15651W        W32125   3.131  13.314  11.467  0.2189  0.1765  0.3157
15652W        W32126   0.278  14.540  10.867  0.0066  0.1691  0.1818
15653W        W32127  17.853   4.796  13.110  0.1084  0.2467  0.0760
15654W        W32128  10.389   9.995  14.290  0.0248  0.0360 -0.3656
15655W        W32129   7.864   1.059   4.366  0.1476  0.1778  0.2116
15656W        W32130   0.815  18.350  11.608  0.1437  0.4027 -0.1944
15657W        W32131   0.899   2.081  11.367 -0.3014 -0.0806 -0.0858
15658W        W32132   3.859   3.623  13.335 -0.2633 -0.0551 -0.3364
15659W        W32133   2.540   6.221   2.108 -0.0203  0.3361  0.1253
15660W        W32134  14.137   3.005   1.668  0.0288  0.3590 -0.1988
15661W        W32135   3.847   5.460   2.052  0.0297 -0.1225  0.0489
15662W        W32136   0.678  16.651   0.914  0.0782 -0.0159 -0.0806
15663W        W32137  18.282   1.900   0.151 -0.4220 -0.1062  0.1483
15664W        W32138   4.919  11.265  10.160 -0.1677  0.0709 -0.0158
15665W        W32139   4.448   5.701   2.833  0.0180 -0.2046 -0.0602
15666W        W32140   2.230  11.488  11.251 -0.0451 -0.1749 -0.0264
15667W        W32141  15.009   7.195  11.133  0.0898 -0.3676 -0.0943
15668W        W32142   0.520  14.653  12.457  0.0254 -0.2378 -0.0175
15669W        W32143   2.011  10.626  14.411  0.0167  0.0149  0.1140
15670W        W32144  13.470  17.303   1.884  0.0208 -0.1702 -0.0406
15671W        W32145  16.503   4.425   3.193  0.1608 -0.0916  0.2490
15672W        W32146   2.514   4.143   4.548 -0.2449 -0.2159 -0.1165
15673W        W32147  13.511  17.890   9.900 -0.1169 -0.1906  0.4686
15674W        W32148   3.941   4.132   2.627  0.4686  0.0100  0.0183
15675W        W32149   6.445   2.051  13.169  0.0210 -0.1615  0.0455
15676W        W32150  13.992  18.054  13.576  0.1519 -0.0339  0.0343
15677W        W32151   7.380  15.027   1.114 -0.7130  0.2190 -0.0581
15678W        W32152   8.014  15.455   3.596  0.1597 -0.1688 -0.0630
15679W        W32153   8.320   0.963  13.747 -0.1639 -0.0829 -0.1749
15680W        W32154   2.080   8.166  11.892 -0.3472  0.0590 -0.4656
15681W        W32155   0.977  16.974   3.050 -0.0833 -0.1956  0.0386
15682W        W32156  15.673  15.880  11.040 -0.5063  0.0696  0.0440
15683W        W32157   2.241  19.266  11.804 -0.2721 -0.3745  0.0835
15684W        W32158   0.543  14.640   4.382 -0.1389 -0.1719 -0.1430
15685W        W32159  16.082   2.163  12.825 -0.0275  0.0666  0.2042
15686W        W32160   7.273   4.329  11.116  0.1350 -0.2878  0.2494
15687W        W32161   0.188  16.056   2.083  0.0145 -0.1126  0.0076
15688W        W32162   6.901   7.152   0.796 -0.0278 -0.0198 -0.0880
15689W        W32163   1.512  12.050  12.884 -0.1032  0.2551  0.1478
15690W        W32164  16.763  18.719   3.446 -0.0577 -0.0392  0.2358
15691W        W32165   2.715  17.466  10.436  0.1026 -0.1675  0.0208
15692W        W32166   0.450   4.351  13.467 -0.0517 -0.0344 -0.0484
15693W        W32167   5.627  18.337  13.263 -0.1241  0.0191  0.1072
15694W        W32168  16.679  10.299   4.401 -0.1616  0.1248 -0.3371
15695W        W32169   2.096   3.991   4.624  0.0722  0.1708  0.0526
15696W        W32170  13.983  19.194   3.702  0.1075 -0.2274  0.0560
15697W        W32171  15.489  17.204   5.638  0.2131  0.0483 -0.1918
15698W        W32172  13.333   4.704   1.894 -0.1423 -0.2616  0.2125
15699W        W32173  11.223  18.791   4.442 -0.0256 -0.0338 -0.0910
15700W        W32174   5.821  11.031  10.531  0.1415 -0.4653 -0.2428
15701W        W32175  12.174  13.297   4.896  0.1184  0.2517  0.2052
15702W        W32176   1.242  11.802  12.432  0.0834  0.0710  0.1649
15703W        W32177   5.842  12.892   0.447  0.5111  0.1722 -0.1205
15704W        W32178   4.790   4.133  10.555 -0.3045 -0.3552 -0.1195
15705W        W32179  12.945   0.266  14.216 -0.0468  0.0587  0.3678
15706W        W32180  18.790   1.360   2.262  0.2559 -0.1552 -0.0950
15707W        W32181   9.699  10.288   3.324  0.2422 -0.2261  0.2644
15708W        W32182  16.307  16.066   1.355 -0.3715  0.0064 -0.3555
15709W        W32183   3.600  10.048   9.692  0.1671 -0.1393 -0.2786
15710W        W32184   9.357  17.254  13.342 -0.3204 -0.2946  0.2774
15711W        W32185  14.239   5.238  11.783  0.0202 -0.1394 -0.2378
15712W        W32186   2.498   2.670  10.392  0.0315  0.0109 -0.1904
15713W        W32187  15.963   7.031   0.416  0.0842  0.1060 -0.0326
15714W        W32188   0.434   6.573  14.438 -0.0180 -0.1680 -0.0744
15715W        W32189  14.946  10.314  14.148 -0.1313 -0.1039  0.4910
15716W        W32190  16.540   1.971  12.988 -0.2365 -0.0732  0.0913
15717W        W32191   9.207   2.257   3.114 -0.2138  0.0167  0.0784
15718W        W32192  11.378   6.858  13.091 -0.0469  0.0076  0.0051
15719W        W32193   5.951  16.057  13.731  0.2633 -0.4067 -0.2431
15720W        W32194  10.246   7.513   4.443  0.0841  0.0789  0.0898
15721W        W32195  13.211   7.047   4.486 -0.1766  0.0959 -0.1218
15722W        W32196   8.061   7.056   4.592  0.1729 -0.1590  0.2145
15723W        W32197   4.152   8.401  14.051  0.2427 -0.0366  0.3398
15724W        W32198   6.249   1.450   1.803 -0.1252 -0.2481 -0.4460
15725W        W32199   0.904   2.031  10.004 -0.3263  0.0205  0.1961
15726W        W32200  17.178   3.876   1.774 -0.1075 -0.3012  0.1338
15727W        W32201   8.015   1.688   1.421  0.2614 -0.0464  0.0484
15728W        W32202  17.258   4.528   3.364  0.0116  0.1047  0.2060
15729W        W32203  17.340  18.438  11.470 -0.0381 -0.1283 -0.2073
15730W        W32204  18.208   7.646  10.619  0.1375 -0.1723 -0.3207
15731W        W32205  14.826  15.803   1.367 -0.0780 -0.1325  0.2653
15732W        W32206   1.350  16.990   1.386 -0.2026 -0.0956 -0.1528
15733W        W32207  12.958   4.821   1.192 -0.2250 -0.0235 -0.1937
15734W        W32208   8.706  18.580  13.122 -0.3655  0.0916  0.2772
15735W        W32209  16.080   4.257   3.118 -0.1531 -0.2001 -0.2247
15736W        W32210  17.078  11.208   0.966  0.3265  0.1733 -0.0111
15737W        W32211  14.650   4.874  10.838  0.0082  0.1412  0.1218
15738W        W32212  12.402  19.064   1.478  0.0729  0.1680  0.1332
15739W        W32213   5.869  18.641   0.071 -0.0445  0.2430  0.0477
15740W        W32214   9.804   4.604   2.504  0.2786  0.4340  0.5801
15741W        W32215  17.624  18.724  13.840  0.1639 -0.0131 -0.2975
15742W        W32216   6.606  14.196   0.788  0.0136  0.1735  0.0607
15743W        W32217   0.121  19.529   4.514 -0.1367  0.1321 -0.1830
15744W        W32218  12.525  18.606   1.727 -0.2724  0.1797  0.1247
15745W        W32219  12.259   4.389   9.127  0.3932 -0.1467 -0.0793
15746W        W32220   7.931   9.597   3.726 -0.0290  0.1947 -0.2671
15747W        W32221   1.099  11.858  11.628  0.0417  0.0191 -0.0865
15748W        W32222  12.642   0.616  10.827  0.1173 -0.0329  0.0859
15749W        W32223   8.005   5.517   2.767 -0.2430  0.2369 -0.1334
15750W        W32224  14.624   2.595   0.867 -0.0586 -0.1975  0.1812
15751W        W32225  15.119   4.907  12.653 -0.1552  0.0875  0.0387
15752W        W32226  14.089   9.849  11.495 -0.1224 -0.2622 -0.0176
15753W        W32227   7.031  14.941  13.173 -0.0663  0.0103 -0.2549
15754W        W32228   2.490  19.237   0.279 -0.4266 -0.0504 -0.1260
15755W        W32229   0.449  11.511  11.256  0.4822 -0.0584 -0.1418
15756W        W32230   1.864   5.900  11.613  0.0975 -0.4510  0.0900
15757W        W32231   0.921   9.349   1.859 -0.1146 -0.0536 -0.1054
15758W        W32232  17.123   2.012   2.574 -0.1600  0.0695 -0.0767
15759W        W32233   5.685  18.780   1.404 -0.0790 -0.0353  0.1248
15760W        W32234   1.020   0.470   3.810 -0.0165  0.2216  0.2306
15761W        W32235   3.936   2.409   1.222 -0.2681  0.2649 -0.0383
15762W        W32236   3.373   6.528  10.354 -0.2182 -0.0115 -0.2579
15763W        W32237  19.485  11.369   1.989  0.6706  0.4442 -0.0147
15764W        W32238  11.294   6.098   3.472 -0.3439  0.2514 -0.4543
15765W        W32239   6.407   9.958  10.104  0.4082 -0.2641 -0.0563
15766W        W32240   7.050   3.893   9.928 -0.3400  0.2099  0.2384
15767W        W32241   7.896  16.962  12.802 -0.3447 -0.1014  0.0407
15768W        W32242   5.117   0.423   4.902  0.1010 -0.0259 -0.1335
15769W        W32243  10.224  14.088  12.412  0.2324 -0.1373 -0.3423
15770W        W32244  12.452   0.256   3.757 -0.2258  0.0927  0.1201
15771W        W32245   5.663   2.742   1.986  0.0737  0.1381  0.1242
15772W        W32246   0.444  19.146   1.526 -0.2421  0.1840  0.2023
15773W        W32247   6.058  11.915  10.801 -0.1657 -0.4206 -0.0210
15774W        W32248   6.158  11.511  12.499  0.0780 -0.1797  0.1067
15775W        W32249  17.071  12.237  12.276  0.0429  0.3376  0.0454
15776W        W32250  18.313   8.731   2.738  0.1832  0.0298  0.0620
15777W        W32251   0.854  13.938  10.647  0.1307 -0.6165  0.2052
15778W        W32252  16.785  18.040   4.287 -0.3754  0.2736  0.0675
15779W        W32253   4.976  16.811   4.109  0.0230  0.1209 -0.0718
15780W        W32254   0.608  19.297   2.947  0.0400 -0.0319 -0.0695
15781W        W32255   1.206   6.696  13.272  0.3565  0.3453  0.1790
15782W        W32256   0.985   0.900   2.621  0.0403 -0.3127  0.0689
15783W        W32257   9.133  12.969  11.035 -0.0051  0.1690  0.3938
15784W        W32258   5.753   5.777  13.330  0.5226  0.0405  0.1915
15785W        W32259  12.429  16.298  13.398  0.2741 -0.3235  0.0012
15786W        W32260   7.913  13.914  11.278 -0.3075  0.0601  0.1804
15787W        W32261  11.881   1.422   0.306 -0.0666  0.3018  0.1439
15788W        W32262  10.206  14.946  13.958 -0.0563 -0.1920 -0.1542
15789W        W32263   0.063   4.862   2.019  0.1599 -0.1974 -0.1689
15790W        W32264   3.205   7.733   1.650  0.0412 -0.0032 -0.3990
15791W        W32265   1.297   0.631  13.530 -0.5005  0.0169 -0.0121
15792W        W32266   8.952  12.658   2.053 -0.0004 -0.2065  0.0825
15793W        W32267   4.622  16.210  12.739 -0.2103 -0.1765 -0.4099
15794W        W32268   9.551  13.510  12.261  0.1006  0.2499 -0.2131
15795W        W32269   9.022   4.858  12.611 -0.7390  0.0277 -0.2763
15796W        W32270   4.279  18.629  11.062  0.1075 -0.1303 -0.2872
15797W        W32271   9.891   1.814   3.750 -0.0341 -0.2109  0.1336
15798W        W32272   0.629   2.838   4.077 -0.1900  0.1187  0.1078
15799W        W32273  18.953  14.403   3.349 -0.1490  0.1153 -0.0866
15800W        W32274   9.010  16.651  13.998 -0.1452 -0.0768 -0.2787
15801W        W32275   3.370   1.725  13.008 -0.1318 -0.0574  0.1371
15802W        W32276   0.890  10.854  10.129 -0.3770  0.0339 -0.2350
15803W        W32277  10.398   0.866  12.402  0.1227  0.1381 -0.2325
15804W        W32278   2.593   3.027  13.701  0.1235  0.0478 -0.1467
15805W        W32279   1.018  10.112   1.196  0.3101 -0.1886 -0.2040
15806W        W32280  13.762   1.386   4.914  0.0889 -0.0289  0.0619
15807W        W32281   1.720   0.977   1.230  0.1258  0.4098  0.1714
15808W        W32282  19.133  13.812   5.506 -0.3471 -0.0884 -0.1832
15809W        W32283  16.172   8.929   5.196  0.2043 -0.0401  0.3421
15810W        W32284  14.790   5.415   3.308  0.1164 -0.1889 -0.1188
15811W        W32285  12.355  16.293  11.269 -0.0171 -0.1875 -0.2601
15812W        W32286   6.751  16.206  11.783 -0.0994  0.1915 -0.0481
15813W        W32287  11.713  13.280   2.444  0.1965 -0.2277 -0.0814
15814W        W32288  18.685   0.994   1.952 -0.0585 -0.0374 -0.0007
15815W        W32289   0.294   7.503  13.146 -0.0335  0.0913  0.2876
15816W        W32290  14.368  10.233  11.645  0.1453 -0.1293 -0.2226
15817W        W32291  16.100  10.093   9.740  0.2987  0.2177  0.1869
15818W        W32292   3.963  15.426   4.361  0.3138  0.3317 -0.0657
15819W        W32293   5.545  18.428  10.153  0.0064  0.1605 -0.0063
15820W        W32294   8.029   2.745   2.933  0.1185  0.2105  0.1696
15821W        W32295  14.427   9.932   3.976  0.3047  0.2591 -0.0458
15822W        W32296  19.203   8.554  11.396  0.0540 -0.1430 -0.0412
15823W        W32297  16.152   3.706  13.994 -0.1343 -0.0910 -0.0427
15824W        W32298  12.392  15.797  12.567  0.0461  0.1472 -0.4867
15825W        W32299  14.676  15.973   0.680 -0.3431  0.0355  0.2262
15826W        W32300   0.446   6.145   1.646 -0.1691 -0.0382 -0.3251
15827W        W32301   1.747   5.977  13.232 -0.0332  0.0097  0.0545
15828W        W32302  11.565   4.852  13.255  0.1645  0.1036  0.3031
15829W        W32303  17.983   4.782  10.547  0.2456 -0.1345  0.0947
15830W        W32304  11.829  11.165  11.753 -0.0168  0.0692 -0.1930
15831W        W32305  13.315   7.485   4.214 -0.1605 -0.3676  0.1445
15832W        W32306   1.437  10.424   0.594 -0.0045 -0.4691  0.0592
15833W        W32307  15.266   1.374   1.943  0.3424 -0.3427  0.1440
15834W        W32308   2.413   7.750  11.980  0.2831 -0.2439 -0.0254
15835W        W32309   2.050   6.125   1.073  0.0285  0.2124  0.0335
15836W        W32310   4.492  11.397  11.426  0.0319  0.0372  0.1987
15837W        W32311  15.171  10.761   2.319  0.1958 -0.0099  0.2958
15838W        W32312  18.262  17.875   0.830 -0.0007 -0.0503  0.2952
15839W        W32313   9.655   6.931  11.177  0.1880  0.2802  0.2708
15840W        W32314   5.675  18.892  12.330 -0.1943 -0.3546  0.1126
15841W        W32315  16.078   7.306   3.541  0.0071  0.3628  0.2958
15842W        W32316   5.355  14.404  13.123 -0.0613  0.2574  0.2582
15843W        W32317   2.290   2.760   2.692 -0.0736  0.2287  0.5310
15844W        W32318  14.200  17.652   2.958 -0.0382 -0.0310  0.1760
15845W        W32319  11.109   1.952   9.220 -0.0924  0.3218  0.0674
15846W        W32320   4.878  17.708   0.303  0.2926 -0.2430  0.0453
15847W        W32321   0.299  15.636   5.429  0.0182 -0.1090 -0.1579
15848W        W32322  13.068  17.396   2.560  0.2845  0.0165 -0.0356
15849W        W32323   3.715   3.162   4.056  0.1941  0.2312  0.3027
15850W        W32324  15.009  13.103   0.457 -0.1137 -0.3334  0.1801
15851W        W32325   8.431  16.025  13.282 -0.1829 -0.0034 -0.1939
15852W        W32326  14.859   4.154   3.777  0.2098  0.2399 -0.2727
15853W        W32327   5.271   5.555   2.759 -0.1832  0.1597 -0.0351
15854W        W32328   8.465  11.396  12.439  0.0706 -0.1312  0.0520
15855W        W32329  14.445  18.008   2.189 -0.0604  0.2395  0.0182
15856W        W32330   1.422   0.456   0.580 -0.3874 -0.1251  0.1629
15857W        W32331  18.725   5.251   2.935 -0.3230 -0.2769 -0.1358
15858W        W32332  14.591   0.671  12.704 -0.2345 -0.1135 -0.1231
15859W        W32333  12.350  18.106  12.790 -0.0758 -0.2599  0.3255
15860W        W32334  11.949   3.068   9.830  0.3214  0.0028 -0.0402
15861W        W32335   1.698   5.042  10.581  0.0627 -0.1144 -0.0023
15862W        W32336  14.637   1.999   0.911  0.1216 -0.0165 -0.2901
15863W        W32337   5.021  15.960   0.180 -0.0294 -0.2519 -0.1270
15864W        W32338  15.895   2.121   1.963 -0.0799 -0.1069  0.0372
15865W        W32339  16.116  12.758   2.194  0.2722  0.0632 -0.0355
15866W        W32340   1.986  19.297  12.727 -0.2244 -0.0256 -0.0429
15867W        W32341   4.557  13.253   4.326  0.1444  0.0129  0.3578
15868W        W32342   8.070   7.747  12.661  0.1205 -0.1673  0.1481
15869W        W32343  13.015  15.156   1.566  0.0929 -0.3505  0.2494
15870W        W32344   8.305   5.589  12.011  0.3341  0.0986 -0.0056
15871W        W32345   6.986  15.532   0.752  0.0471 -0.1243 -0.0409
15872W        W32346   9.715  14.884  11.318 -0.0193 -0.1150 -0.0843
15873W        W32347   1.294   9.374  13.240  0.1225 -0.2462 -0.2633
15874W        W32348  16.878  10.856  10.531 -0.0080  0.0336  0.1832
15875W        W32349   5.037   4.388   1.476  0.1643 -0.1679  0.1029
15876W        W32350  11.527   0.489   1.844  0.2771  0.0831 -0.1107
15877W        W32351  11.651  11.685   0.230  0.0193  0.1148 -0.2725
15878W        W32352  12.279  15.853   1.779  0.0681  0.0365 -0.1462
15879W        W32353  15.310   2.110   0.848 -0.0998 -0.0572  0.1309
15880W        W32354  17.982  10.639  14.653 -0.0525 -0.2231  0.4313
15881W        W32355  17.448  17.629   3.307 -0.0046 -0.3112  0.0902
15882W        W32356   1.219  18.158   5.183  0.2454 -0.0581 -0.0071
15883W        W32357   7.429   4.148  13.266  0.0588  0.0405 -0.0040
15884W        W32358   8.646  18.004  10.359 -0.3321 -0.1627  0.4114
15885W        W32359  15.017   4.506   1.320  0.2490  0.1842  0.0078
15886W        W32360   3.967  10.068   4.909 -0.3245  0.2027  0.1342
15887W        W32361   8.658  13.408   3.733  0.1836 -0.2632  0.0121
15888W        W32362   9.460   1.872  10.669 -0.1662 -0.1581 -0.0146
15889W        W32363  14.799   3.206  14.487 -0.2898  0.0463 -0.3839
15890W        W32364   5.693   3.161   2.753  0.0150 -0.1486  0.0589
15891W        W32365   4.762   1.070  11.579  0.0890 -0.1819 -0.0502
15892W        W32366  16.947   3.005  13.265 -0.2590  0.1379 -0.0690
15893W        W32367   7.293  11.766   1.064 -0.0621 -0.2270 -0.1599
15894W        W32368   6.761   2.544   9.554 -0.1719  0.0044 -0.0465
15895W        W32369  12.286  12.280   1.108 -0.1046 -0.2351  0.1328
15896W        W32370   1.172   0.976   3.479 -0.0401  0.2821  0.0821
15897W        W32371  10.908   2.666  11.305 -0.2367 -0.0142 -0.4496
15898W        W32372  14.314  15.839  11.751 -0.1939  0.3123 -0.2066
15899W        W32373   0.263  11.145  14.584  0.1903  0.4065 -0.1035
15900W        W32374   2.590  12.891   1.217 -0.0491  0.1324  0.0110
15901W        W32375   0.805  18.463  10.243 -0.0421  0.3460  0.0630
15902W        W32376   3.073   3.820  10.135 -0.1676  0.0124 -0.2927
15903W        W32377  18.415   8.104  12.294 -0.1587 -0.0992 -0.2051
15904W        W32378   8.171  13.547   0.179 -0.1528  0.0130  0.1489
15905W        W32379  10.319  13.328   1.033 -0.1136  0.0828 -0.0187
15906W        W32380  18.886  18.575   2.901  0.2826 -0.3638 -0.2965
15907W        W32381   7.343   8.567   2.744  0.2332 -0.0840  0.0288
15908W        W32382   1.395   1.405  11.345  0.0160 -0.1605 -0.0059
15909W        W32383   7.380  14.586   3.278  0.0083 -0.0267 -0.1449
15910W        W32384  14.898   5.801   2.945  0.0229 -0.1472  0.0932
15911W        W32385   5.932  14.178   1.751 -0.1377 -0.0081 -0.1413
15912W        W32386   8.231   7.043   0.405 -0.2224  0.3303  0.2190
15913W        W32387  10.597  15.896   6.062 -0.0515 -0.0276  0.0609
15914W        W32388   6.149   0.893   1.122  0.0359 -0.1249 -0.0256
15915W        W32389   6.404   8.039  11.378 -0.0670  0.3251 -0.1546
15916W        W32390   5.628  13.347   3.266  0.0221 -0.0312 -0.0366
15917W        W32391   3.522  16.148  13.500 -0.1511 -0.0221  0.3067
15918W        W32392  18.715   5.941  11.308 -0.0646 -0.3044  0.3686
15919W        W32393  13.600   8.506   4.063  0.0648 -0.2130 -0.0528
15920W        W32394   2.798  10.814  12.156  0.2141  0.0271  0.1927
15921W        W32395  17.655   7.330   4.162 -0.0283 -0.0655 -0.1501
15922W        W32396   7.586   9.526   3.127  0.1905  0.0151  0.1492
15923W        W32397  10.469   9.589   3.763  0.0979  0.3641  0.4302
15924W        W32398  12.292  14.914   4.220  0.2311 -0.4037  0.1508
15925W        W32399   5.168  12.235   1.319  0.0682  0.0440  0.0628
15926W        W32400   6.161   9.928  11.431  0.0750 -0.0928  0.5248
15927W        W32401  17.108   1.311   4.126  0.0686 -0.1621 -0.2163
15928W        W32402  10.685   7.999  13.668 -0.0198 -0.0473 -0.0315
15929W        W32403   0.086   2.217  11.932 -0.0089  0.2088 -0.0345
15930W        W32404   6.547   4.495  10.756  0.0181 -0.0505 -0.1069
15931W        W32405   6.065  13.658  11.000 -0.0719  0.3528 -0.0549
15932W        W32406  17.231   3.056   0.863  0.2109  0.0186 -0.1192
15933W        W32407  17.576  19.295   4.457  0.0906 -0.2160 -0.0342
15934W        W32408   9.132   0.134   1.883 -0.0362 -0.2736  0.1577
15935W        W32409   4.934   1.925   0.191 -0.2172  0.1851 -0.1932
15936W        W32410  11.596   8.115  14.618  0.0229 -0.1014  0.0323
15937W        W32411   0.561   5.582   4.557 -0.1941  0.0885 -0.3165
15938W        W32412   0.740   1.327  13.525  0.1519  0.1066 -0.0276
15939W        W32413   5.022  17.547  12.974 -0.0142  0.0203 -0.2833
15940W        W32414  10.120   0.535   4.550  0.0855 -0.0452 -0.1718
15941W        W32415   6.298   6.558  10.139 -0.0083  0.0997 -0.0697
15942W        W32416   5.584   5.320   2.481  0.5156 -0.1751 -0.2367
15943W        W32417   6.168  10.032  13.191  0.0579  0.0439 -0.0930
15944W        W32418   6.334   2.220  13.704  0.2391  0.1056  0.1311
15945W        W32419   7.229   3.543  13.870 -0.1038 -0.2132  0.2422
15946W        W32420   8.672  14.208   2.237  0.0801 -0.3858 -0.1136
15947W        W32421   3.433   3.759  10.904  0.3798  0.2683 -0.1403
15948W        W32422   1.243   3.293  11.376  0.0223 -0.1370  0.0923
15949W        W32423  10.543  10.959   0.094 -0.4688 -0.1762 -0.2193
15950W        W32424   4.589  17.639   2.108 -0.0495 -0.3235 -0.0083
15951W        W32425   5.846  16.695   3.405 -0.0035 -0.2728 -0.0313
15952W        W32426   7.886   2.791  10.322 -0.0399 -0.0468  0.3381
15953W        W32427  19.542   9.828  13.752  0.2514 -0.0682 -0.0196
15954W        W32428   1.851   4.492   2.171 -0.2061  0.2750 -0.1010
15955W        W32429  10.199   7.625   5.288  0.0417 -0.2521  0.1263
15956W        W32430   4.489   9.098   5.086 -0.1757 -0.1149  0.0226
15957W        W32431   7.306  16.790   3.900 -0.1144 -0.1116 -0.0454
15958W        W32432   3.872  15.680  13.876 -0.2059  0.4281  0.0738
15959W        W32433   1.693   3.562  10.000 -0.3152 -0.2606  0.1430
15960W        W32434  18.553   3.090   0.017  0.0924  0.0904  0.1007
15961W        W32435   3.274  18.423   2.607  0.1117  0.1156  0.2068
15962W        W32436  13.707  14.198  14.456  0.2696 -0.2382  0.0373
15963W        W32437  15.746  14.663  14.654  0.1260 -0.0439  0.1426
15964W        W32438  17.604  12.023   1.264 -0.2851 -0.0533 -0.2395
15965W        W32439   2.940  17.246  11.315  0.1862  0.0171  0.1714
15966W        W32440  14.933   7.278  13.103 -0.0458 -0.0610 -0.1621
15967W        W32441  18.289   5.075   3.948  0.4568  0.1509 -0.1413
15968W        W32442  12.062   4.649   2.089  0.1348  0.3937  0.0676
15969W        W32443  10.650   4.769  10.698 -0.0382 -0.3623  0.0465
15970W        W32444   3.649   4.494   9.349  0.0863 -0.0721 -0.1850
15971W        W32445   5.299  11.172   2.158 -0.1797 -0.1226 -0.3244
15972W        W32446  10.903   5.160   3.664  0.1236 -0.0141  0.1427
15973W        W32447   2.529  15.182  11.735 -0.2425 -0.6010  0.2191
15974W        W32448  14.515  15.645  13.729 -0.0603  0.1551 -0.2623
15975W        W32449   1.507  12.882  10.783 -0.0456  0.1449  0.2496
15976W        W32450  13.589   8.007   4.096  0.2413  0.0025 -0.3097
15977W        W32451  19.377   5.995  13.328 -0.2126  0.0381 -0.0664
15978W        W32452   2.209   1.641   5.377 -0.1681  0.1754  0.0282
15979W        W32453  11.974   6.629   3.233 -0.1218 -0.2109 -0.0098
15980W        W32454   2.932  16.914   1.764 -0.0324  0.1012 -0.2583
15981W        W32455   3.476   7.210   4.799  0.2528 -0.1533 -0.0513
15982W        W32456  10.800   1.773   3.323  0.1277 -0.1791 -0.1135
15983W        W32457   4.118  14.114  11.559  0.1645  0.1792 -0.0239
15984W        W32458  17.206  15.685   3.069 -0.2954 -0.1705  0.1725
15985W        W32459  19.611  15.843  14.565  0.0537 -0.0795  0.1197
15986W        W32460   0.305  13.454  10.026 -0.2405  0.1832  0.0310
15987W        W32461   2.185   9.288  13.637  0.3284  0.2920  0.3019
15988W        W32462   3.587  14.173   4.468 -0.0210  0.0317  0.0451
15989W        W32463   3.177   4.967   0.162  0.1437 -0.1987 -0.0698
15990W        W32464  17.340   2.648  12.394 -0.2568 -0.1542 -0.2551
15991W        W32465   9.870  11.095   5.371 -0.1036  0.4097  0.0221
15992W        W32466  10.087   9.590  13.199 -0.2683  0.1221 -0.0974
15993W        W32467  12.079   4.370  13.725  0.0340 -0.1092 -0.0611
15994W        W32468  14.732  15.118  14.499  0.0030 -0.3099 -0.2196
15995W        W32469  15.206  14.880   4.389  0.0011  0.0579 -0.0212
15996W        W32470   7.940  12.989  13.258  0.0901 -0.1944  0.3127
15997W        W32471   9.923  13.324   0.755 -0.0182  0.0915  0.1384
15998W        W32472  15.441  16.756   3.887  0.3697 -0.0737  0.2994
15999W        W32473   9.793  11.039  14.030  0.3100  0.2014 -0.1491
16000W        W32474   1.078   0.967  11.231  0.2554 -0.1352  0.0265
16001W        W32475  15.841   0.669   2.437 -0.0902 -0.0123 -0.4738
16002W        W32476  11.397  18.134   3.739 -0.1000  0.4688  0.1404
16003W        W32477   0.844   1.357   4.164  0.2794  0.0046 -0.3264
16004W        W32478  11.813   1.634  10.269 -0.0479 -0.3484  0.1219
16005W        W32479   4.680  12.463   3.672  0.0109  0.1725  0.2050
16006W        W32480   6.618   1.398   0.906 -0.4679 -0.0274  0.1467
16007W        W32481  16.865  19.310  14.296  0.2330  0.1559  0.2102
16008W        W32482  16.839   0.890  11.880  0.1715 -0.0564 -0.3308
16009W        W32483  11.291   7.889   0.941  0.2874 -0.2368 -0.3761
16010W        W32484  15.546   1.217   1.587 -0.0195  0.1251  0.0395
16011W        W32485  15.906   4.274   3.864 -0.3343 -0.4136 -0.0749
16012W        W32486  18.639  10.442   0.970 -0.4000 -0.2652  0.0107
16013W        W32487  13.974  18.940  14.456 -0.0991  0.0673 -0.3715
16014W        W32488  17.456  17.321  13.994  0.3657  0.0564 -0.1363
16015W        W32489  15.681  10.166   4.019 -0.2715  0.2504  0.1186
16016W        W32490  12.484   5.524  14.348 -0.3024  0.1776  0.2403
16017W        W32491  13.194  17.716   3.805  0.2134 -0.1135 -0.0010
16018W        W32492   4.919  14.265   2.644 -0.3474 -0.0036  0.0964
16019W        W32493   2.165   2.993   4.213 -0.2130 -0.3250  0.0167
16020W        W32494   5.593   2.332  12.677  0.2119  0.0044 -0.2007
16021W        W32495  16.632   4.975   4.730  0.0007 -0.1233 -0.0936
16022W        W32496   0.198  13.979   3.326 -0.0820 -0.0931 -0.0495
16023W        W32497   5.343   2.439   2.341 -0.3841 -0.2802 -0.0628
16024W        W32498  16.004  10.285  11.628 -0.2433 -0.1299  0.0437
16025W        W32499  16.029   9.081  13.554  0.1032  0.2237 -0.4289
16026W        W32500  15.236  13.023  11.573  0.1339  0.1108 -0.0082
16027W        W32501   3.154   5.702  10.820  0.1203 -0.1451 -0.1233
16028W        W32502  19.409  10.291  14.538 -0.0591 -0.2741 -0.0540
16029W        W32503   1.521   7.866   0.254  0.1674 -0.1945 -0.2301
16030W        W32504   6.558   9.445   3.479 -0.2493 -0.0418 -0.1413
16031W        W32505  14.995  10.367   4.577 -0.1091  0.1846 -0.1930
16032W        W32506  13.317  14.156   0.083  0.0416  0.2123 -0.0179
16033W        W32507  12.892   9.103   1.868 -0.1269 -0.4045  0.0248
16034W        W32508  18.929   7.121   4.660  0.0473  0.1915  0.0682
16035W        W32509   0.177   7.932   0.995  0.0799 -0.2536  0.1583
16036W        W32510   3.847  19.380   3.588  0.0710 -0.0416  0.1540
16037W        W32511   2.188   3.881   3.134 -0.0520  0.1801 -0.3174
16038W        W32512   7.909   0.752  13.859  0.1667 -0.3153  0.1938
16039W        W32513  17.063   6.453  10.477  0.0812 -0.1360 -0.0694
16040W        W32514  17.514   3.123  10.957  0.0222  0.0503  0.0438
16041W        W32515  15.674   4.780  12.689  0.0332  0.2643 -0.3377
16042W        W32516   7.959   6.901  13.215  0.0280 -0.2226 -0.0179
16043W        W32517  11.060   3.318   0.806 -0.1936  0.1351  0.1294
16044W        W32518   1.866  13.372   4.109 -0.1297 -0.2655  0.0530
16045W        W32519  15.497   7.813   5.721  0.2796  0.0273 -0.1915
16046W        W32520   6.473  18.966   2.992  0.3599  0.0945 -0.3165
16047W        W32521   9.988   7.881  12.016  0.1128  0.1267  0.2776
16048W        W32522   7.674  17.997  14.350  0.0818 -0.1138 -0.1090
16049W        W32523   6.861   7.920  10.939 -0.3498 -0.0472 -0.1505
16050W        W32524  11.002   8.407  13.666 -0.0437  0.2197  0.0779
16051W        W32525  14.369   6.552   1.225  0.1471  0.0309  0.0544
16052W        W32526   3.227  15.901   2.593 -0.0219  0.2574  0.0256
16053W        W32527   9.913  10.514   0.146 -0.2131  0.2440 -0.1154
16054W        W32528  17.808   1.241  14.383  0.1119 -0.1551 -0.0376
16055W        W32529  14.823   6.299   1.069  0.0286 -0.0252  0.0818
16056W        W32530  19.582   8.465  12.601 -0.2449 -0.2797  0.0459
16057W        W32531  18.700  12.212   3.754 -0.2058  0.1609 -0.1780
16058W        W32532   3.214   8.918   3.480  0.1038 -0.1073 -0.1302
16059W        W32533   2.665  16.034   9.343  0.2682  0.3707 -0.1491
16060W        W32534  13.154  18.925  11.624  0.3851  0.3925 -0.2429
16061W        W32535  17.323  15.530   3.994  0.3215  0.1285 -0.3421
16062W        W32536  14.794   3.622  13.217  0.1009 -0.0241  0.0635
16063W        W32537  15.698  10.183  13.526  0.0031 -0.2680 -0.4045
16064W        W32538   4.388   7.030   2.333  0.0892  0.1165 -0.5800
16065W        W32539  11.393   9.735  13.029 -0.2272  0.1377  0.2197
16066W        W32540   0.858  12.944   2.736 -0.3041 -0.3066  0.0700
16067W        W32541   2.262   4.503   0.357 -0.1437  0.1087 -0.1600
16068W        W32542  17.788  11.639   3.711  0.1308  0.1153  0.0222
16069W        W32543  14.130  10.781  12.687 -0.2160 -0.2115 -0.1464
16070W        W32544  10.825   5.949   4.396  0.0659 -0.0796 -0.0125
16071W        W32545   4.698   6.561  14.405  0.1208  0.1473 -0.0514
16072W        W32546   3.475   4.363   1.427  0.0880 -0.1682 -0.1367
16073W        W32547  11.440   6.063  12.581 -0.3480  0.1771  0.1238
16074W        W32548  18.176  11.460  12.433  0.0570  0.4786 -0.0794
16075W        W32549   4.511  17.142  11.129 -0.3266  0.0708 -0.2463
16076W        W32550  10.535  14.432  12.864  0.0880  0.0349  0.0835
16077W        W32551   7.698   9.937  10.300 -0.2355 -0.1637 -0.1249
16078W        W32552  17.845  16.312   2.148 -0.0790 -0.0928 -0.0647
16079W        W32553  12.637  12.873  13.679 -0.0271 -0.1295  0.1344
16080W        W32554   4.272  15.472  12.545 -0.0217  0.0688 -0.0368
16081W        W32555  12.377   3.120   1.872 -0.1517 -0.0365 -0.3271
16082W        W32556   4.017  14.359   3.695 -0.0680  0.1342  0.0561
16083W        W32557  14.760  18.314  10.423  0.1500  0.0603 -0.1385
16084W        W32558   3.725  17.387   1.050 -0.1599  0.0642 -0.1240
16085W        W32559  15.386   8.611   5.060  0.0844 -0.0250  0.1365
16086W        W32560  17.514   6.072   2.923  0.2163  0.2782 -0.0216
16087W        W32561   6.333   8.010  13.284  0.2501  0.0383  0.1919
16088W        W32562   8.520   9.767  10.557  0.2464 -0.0925  0.1579
16089W        W32563   3.280  11.413   0.619  0.0007 -0.1132  0.2397
16090W        W32564   4.039  15.925   4.434  0.0258 -0.1309  0.0120
16091W        W32565   3.032  14.824   0.922 -0.2841 -0.0641  0.1688
16092W        W32566   5.220  12.194  12.087 -0.2726  0.0598  0.3404
16093W        W32567   8.218  10.175   1.463  0.3031 -0.0841  0.2412
16094W        W32568  11.487   1.425  11.191  0.0612  0.1538 -0.0897
16095W        W32569   0.053   6.859   1.805 -0.1444  0.2542  0.0316
16096W        W32570   1.553   1.076  11.885  0.3229  0.1633 -0.0132
16097W        W32571  10.118  19.054  13.279 -0.1317  0.2549 -0.1060
16098W        W32572  13.749   2.465   0.552 -0.0019  0.0490 -0.0219
16099W        W32573  17.851  13.335  10.403  0.1661  0.4592 -0.2452
16100W        W32574  17.776  17.366  10.641  0.3065 -0.2217 -0.0001
16101W        W32575   3.682  15.970  12.988  0.3579  0.1944 -0.1389
16102W        W32576   4.129  10.574   2.176 -0.2261 -0.0276 -0.0850
16103W        W32577   2.418   4.610  13.809  0.1386  0.0954 -0.4982
16104W        W32578  11.288  15.264   5.094  0.0146 -0.3286 -0.4136
16105W        W32579  12.962   1.872  13.924 -0.1318  0.0164  0.0184
16106W        W32580  16.876  12.438  13.567 -0.1945  0.0666  0.0407
16107W        W32581   2.921  11.134  13.965 -0.2899 -0.2753 -0.0261
16108W        W32582   1.071  17.279  10.262 -0.0045  0.0553 -0.2704
16109W        W32583  14.265  14.835   2.987  0.2381  0.5796  0.0689
16110W        W32584   9.192   8.768   1.218 -0.0176  0.1233 -0.0923
16111W        W32585  17.497  10.483  11.644 -0.3640 -0.0105 -0.0142
16112W        W32586   7.581  14.416  12.618 -0.1129  0.1436  0.1384
16113W        W32587   7.001   1.702  14.570  0.0624 -0.0107  0.1594
16114W        W32588   6.569   3.272   0.343  0.0140 -0.1179  0.1581
16115W        W32589  17.305  15.661  11.146  0.2349  0.0832  0.1091
16116W        W32590  17.691  10.826  10.409 -0.0200  0.2180 -0.0989
16117W        W32591  15.592  12.432  14.284 -0.0224  0.2203 -0.0765
16118W        W32592  14.223  19.140  13.466  0.3194 -0.0799 -0.0640
16119W        W32593  13.083  16.041   3.444  0.1538  0.1003  0.1435
16120W        W32594  18.580   6.457   4.735 -0.1604 -0.0730  0.1433
16121W        W32595  14.440   1.973   3.157  0.0255 -0.1038  0.0787
16122W        W32596  14.308  16.879   2.031 -0.0685  0.0774 -0.0580
16123W        W32597   4.901  13.143  14.608 -0.0979  0.0694  0.1693
16124W        W32598  17.471   4.660  11.779 -0.1852 -0.1156  0.0138
16125W        W32599   3.009  13.308   9.665 -0.0081  0.1690 -0.1348
16126W        W32600  17.189  17.381  11.857  0.0672  0.0785  0.0288
16127W        W32601  12.918   3.637  12.780 -0.0525 -0.1121  0.0753
16128W        W32602   2.281  14.966   4.551 -0.2506 -0.2925  0.2677
16129W        W32603   3.966  15.583   2.598  0.0920 -0.3576  0.0123
16130W        W32604   5.785   7.885   2.983 -0.3095 -0.0561  0.2476
16131W        W32605  13.204  13.245   0.408 -0.2501 -0.2970 -0.1326
16132W        W32606   5.086  10.476  10.631  0.2397 -0.1171 -0.2135
16133W        W32607  17.942   5.633   4.617  0.0085 -0.1198  0.2419
16134W        W32608  11.899  11.361   3.379 -0.1105 -0.1619  0.1180
16135W        W32609   9.307  14.895  11.578  0.0496  0.2450 -0.0821
16136W        W32610  15.960  17.160  14.193  0.1554  0.0064 -0.1421
16137W        W32611  18.429   0.802   4.066  0.1406 -0.2897  0.1757
16138W        W32612  11.445   3.038   2.720 -0.0716  0.1899 -0.1650
16139W        W32613  17.629  10.580  12.545 -0.1445 -0.0688 -0.1819
16140W        W32614   2.718  15.401   3.757  0.2363  0.4148 -0.2911
16141W        W32615  10.825   7.980   1.456  0.0136 -0.3565  0.1972
16142W        W32616  12.837   2.891   4.618  0.0891 -0.2330 -0.3646
16143W        W32617   1.380   1.932   5.211  0.0195 -0.1643 -0.1260
16144W        W32618   5.535  15.116  10.852 -0.1885  0.1779  0.1560
16145W        W32619   5.822   6.962   0.931 -0.1038  0.1525 -0.1855
16146W        W32620  13.460   5.268  14.595 -0.0065  0.0516 -0.0169
16147W        W32621  16.043   5.727   0.493 -0.1768  0.1373  0.2760
16148W        W32622  16.668  16.049   5.053 -0.1363 -0.0014  0.2621
16149W        W32623   9.227   7.141   1.945  0.0074  0.1511  0.0045
16150W        W32624   3.441  14.043   2.314 -0.0776 -0.2070 -0.0897
16151W        W32625  16.570   7.596  14.319 -0.1873  0.1493 -0.0065
16152W        W32626   7.572  12.733   2.967 -0.0345 -0.1760  0.2286
16153W        W32627   6.874  17.044   4.509  0.1261 -0.1820  0.0739
16154W        W32628   4.871  15.154   0.791  0.4411 -0.3386  0.0818
16155W        W32629   6.128   9.090   2.479  0.2771 -0.2947 -0.1909
16156W        W32630  15.882  15.297  13.249 -0.3598  0.0280  0.3033
16157W        W32631  11.967  10.276  13.377  0.0240 -0.2328 -0.0515
16158W        W32632   1.613  12.321   2.377  0.0855  0.1101  0.3232
16159W        W32633  10.764  14.771  11.005  0.0947 -0.1320 -0.3711
16160W        W32634  11.774   1.033   4.371  0.3136 -0.1288  0.0880
16161W        W32635  14.705   9.291   5.323 -0.0507 -0.1412  0.0153
16162W        W32636  17.480   2.719   1.110 -0.1921 -0.1064  0.1039
16163W        W32637   8.179  14.793   2.907  0.0751 -0.2108  0.0415
16164W        W32638  16.124   9.354  14.002 -0.2295 -0.2349  0.2173
16165W        W32639  14.427   3.277   0.686  0.2444 -0.1129 -0.0331
16166W        W32640  16.463   4.305  11.116  0.2250  0.2467  0.1812
16167W        W32641   5.862   0.880  14.221  0.0546  0.1038  0.0526
16168W        W32642   3.287   1.928   0.342 -0.0318 -0.1843 -0.2587
16169W        W32643   6.872   6.281   1.510  0.0794 -0.0017  0.2235
16170W        W32644  14.072  10.862  14.471 -0.0364 -0.4577  0.1879
16171W        W32645   7.008   0.171   3.233 -0.2012  0.3883 -0.1805
16172W        W32646  14.267   2.096  10.488 -0.3196 -0.2443 -0.0191
16173W        W32647  15.996   8.321  13.008  0.1067 -0.2041 -0.2309
16174W        W32648   3.843  10.203  11.271 -0.1521  0.0098 -0.2718
16175W        W32649  11.635  13.891  11.432  0.0602  0.1232 -0.2226
16176W        W32650   5.527   4.360   1.281  0.2088 -0.3054 -0.0794
16177W        W32651  15.936  14.735   1.078 -0.2469 -0.1050 -0.1463
16178W        W32652  10.726   3.063  13.592 -0.0810  0.3776 -0.1389
16179W        W32653   5.727   1.306   0.410 -0.1373 -0.1281  0.0453
16180W        W32654  17.274  16.485   1.026  0.2585 -0.0544 -0.1517
16181W        W32655   2.800  17.434   3.173 -0.0026  0.1941 -0.2695
16182W        W32656   1.567   4.505   0.683  0.0411  0.0159 -0.1155
16183W        W32657  16.378   8.222  10.895 -0.0481  0.0691  0.0841
16184W        W32658  12.102   2.525  13.409  0.2470 -0.0811 -0.2860
16185W        W32659   5.977   8.268   1.099  0.1547 -0.1125 -0.2588
16186W        W32660   0.523  16.642  12.675 -0.0562 -0.2359  0.2478
16187W        W32661  12.291   1.356  14.206 -0.2739 -0.2901  0.0716
16188W        W32662  17.448  15.189  13.675 -0.0216 -0.0281  0.0936
16189W        W32663   0.321   1.311  13.937  0.3024 -0.2168  0.2550
16190W        W32664  11.995   2.116   9.984 -0.0417  0.1073 -0.1991
16191W        W32665   0.003   7.803  11.199  0.1540 -0.3305  0.2975
16192W        W32666   5.124   0.495   4.037 -0.1663  0.0387  0.1835
16193W        W32667   0.841  19.311   3.923 -0.2642  0.1533  0.0874
16194W        W32668   5.456   0.417  12.533 -0.0933 -0.2251  0.3260
16195W        W32669   3.517  10.725   0.476 -0.0270  0.0978 -0.2460
16196W        W32670   7.869   3.069  11.815  0.0499 -0.0933  0.3879
16197W        W32671   0.894  14.534  11.409 -0.2886 -0.0719  0.2446
16198W        W32672  13.192   1.618  14.365 -0.0646  0.4027 -0.1669
16199W        W32673   4.547   4.921  12.723 -0.0318 -0.2594  0.1940
16200W        W32674  18.811  13.592  10.655 -0.0087  0.2634 -0.0749
16201W        W32675   0.294  10.606  14.396  0.1927 -0.3529  0.0412
16202W        W32676   0.605   4.603  11.288  0.1955 -0.0837 -0.2619
16203W        W32677   1.072  10.781  12.374  0.0446 -0.2412  0.2297
16204W        W32678  11.233   3.372  13.961  0.1946  0.1708 -0.1070
16205W        W32679   6.345  19.066  10.478  0.0546  0.3725  0.1434
16206W        W32680  16.551   5.891   0.941 -0.0087  0.3404  0.0709
16207W        W32681   7.242  12.120   0.304  0.1807  0.2243  0.0137
16208W        W32682  15.925  10.367   3.279  0.0241  0.0291  0.2256
16209W        W32683   5.934  18.468  10.905  0.0674 -0.0241  0.0546
16210W        W32684   7.028  11.131  12.282 -0.3299  0.0321  0.1568
16211W        W32685   8.196  19.091   2.492 -0.1385 -0.2150 -0.5509
16212W        W32686   8.262   6.987   0.910  0.2494 -0.0228  0.0655
16213W        W32687   6.585   2.357   2.773 -0.2763  0.2164  0.1548
16214W        W32688   4.517  18.234  10.186 -0.1936  0.1505 -0.1989
16215W        W32689   1.729   5.033   0.042 -0.1062  0.1720  0.1016
16216W        W32690   0.272   4.249   4.284 -0.0672 -0.0476 -0.0227
16217W        W32691  14.274   3.210   0.203  0.2962 -0.2066 -0.1359
16218W        W32692   2.302   8.166  10.492  0.4006  0.0051 -0.1794
16219W        W32693   1.506   5.855   0.079 -0.0098  0.1154 -0.3753
16220W        W32694  10.930  15.682  13.083  0.0071 -0.1056  0.2210
16221W        W32695  17.402  13.241   9.006  0.3599  0.2776 -0.3171
16222W        W32696  10.885   2.687  12.803 -0.3626  0.0282 -0.0410
16223W        W32697   7.709   8.372  14.299 -0.1941 -0.1268 -0.0966
16224W        W32698   2.576  14.858  13.847 -0.3163  0.1255 -0.0082
16225W        W32699   7.170  17.402  12.892 -0.0719 -0.0402  0.1429
16226W        W32700   6.855  11.147  10.215  0.4055  0.0814 -0.0523
16227W        W32701   6.029  14.310  12.917 -0.2276 -0.1324  0.0997
16228W        W32702   2.096   2.959  13.130 -0.0544 -0.1585 -0.1281
16229W        W32703  10.086   5.060   3.816  0.2913  0.2127 -0.2527
16230W        W32704  17.301   4.530   4.450 -0.0330  0.0922  0.2732
16231W        W32705   7.598   5.296  11.525 -0.0347 -0.1488  0.0984
16232W        W32706   5.867   2.295   4.032 -0.0479  0.2304 -0.0308
16233W        W32707   5.135   6.216   2.691  0.3336  0.1094  0.2951
16234W        W32708   4.406  14.006  11.105  0.1110 -0.1649 -0.4998
16235W        W32709  17.920   3.609  10.223 -0.2542 -0.1814 -0.0322
16236W        W32710   5.005  14.692   1.479  0.1863 -0.2087  0.1489
16237W        W32711  10.068  12.965   5.502 -0.0244  0.0053 -0.0992
16238W        W32712  16.108   3.595  13.462  0.2922 -0.0199  0.1080
16239W        W32713   9.076   3.080  14.327  0.0294  0.3154 -0.0366
16240W        W32714  18.025   2.721   5.310 -0.2792  0.1922 -0.1467
16241W        W32715  15.698   4.782   0.660  0.2860  0.2845 -0.0956
16242W        W32716   1.071   3.159  12.414 -0.2934  0.0631 -0.1792
16243W        W32717  14.568   0.527   1.750  0.2456 -0.0786 -0.0253
16244W        W32718  15.887   1.134  12.823 -0.0121 -0.2262 -0.0027
16245W        W32719   4.078  13.631   4.273 -0.3568  0.2414 -0.0373
16246W        W32720   9.514  11.263  11.356  0.1041  0.1026 -0.1758
16247W        W32721  11.277   5.703   4.241 -0.3024  0.2723 -0.0706
16248W        W32722  12.516   6.450   0.835  0.0918 -0.0047 -0.2561
16249W        W32723   0.668   0.878   5.325  0.2590 -0.3628 -0.1800
16250W        W32724   5.352  17.070   2.686 -0.0957  0.3364  0.0682
16251W        W32725  12.143  15.714   3.540 -0.2355  0.3033 -0.2180
16252W        W32726   5.537  17.284   9.088 -0.1113  0.0435  0.0915
16253W        W32727   9.857  12.019  14.414  0.0387 -0.2817  0.0271
16254W        W32728  14.926   0.689   2.173 -0.1994 -0.0272 -0.2108
16255W        W32729  12.131  18.585   3.849 -0.0324 -0.2894  0.1587
16256W        W32730   8.745  17.111  10.743  0.0186  0.0193  0.0067
16257W        W32731  18.934  17.505  13.980 -0.1574  0.0671  0.3177
16258W        W32732  11.604   9.149   3.876  0.1325  0.1457 -0.0204
16259W        W32733   0.896   3.125  14.210 -0.1376  0.0845  0.2704
16260W        W32734  17.747  13.638  12.261 -0.0493 -0.3962 -0.1554
16261W        W32735  14.595  12.019  14.579 -0.2349 -0.1160 -0.0736
16262W        W32736   7.040   7.308  12.373 -0.0277  0.2395  0.2238
16263W        W32737   5.218   8.467   4.253 -0.2764  0.0001 -0.2220
16264W        W32738   8.333  18.553   3.266 -0.1022 -0.2049  0.1730
16265W        W32739  18.946   1.889   1.330  0.4002 -0.5223 -0.1902
16266W        W32740  17.392   6.059   1.575  0.2477 -0.0997 -0.0418
16267W        W32741   9.916  18.216   2.280 -0.2207  0.1792 -0.0823
16268W        W32742  11.063  13.437  10.682  0.0087  0.0785 -0.1771
16269W        W32743   7.873   0.341  14.231  0.2572  0.0134  0.1213
16270W        W32744  12.072   4.490  14.643 -0.1585 -0.0647  0.2975
16271W        W32745   6.013   7.987   3.629  0.0258 -0.3428 -0.0242
16272W        W32746   6.342   7.801  10.930  0.0055 -0.1041 -0.2842
16273W        W32747   3.641   4.642  13.027 -0.2213  0.1057  0.1218
16274W        W32748   0.337   1.888   0.249 -0.3346  0.1036  0.2080
16275W        W32749   5.824   9.902   2.741  0.3438 -0.2745  0.0678
16276W        W32750  11.222  11.153  12.363 -0.3198  0.0392 -0.0297
16277W        W32751   7.252   1.064  11.882 -0.1982 -0.2119 -0.0436
16278W        W32752  15.138   1.846  13.242  0.1332 -0.1145 -0.1221
16279W        W32753  15.447   3.951   1.977  0.1135 -0.1481 -0.2264
16280W        W32754  11.109  14.035  11.435 -0.2197 -0.0402 -0.1075
16281W        W32755  12.675   2.217  10.738  0.3791  0.0570  0.0190
16282W        W32756   4.938  16.785   0.595  0.1980  0.0892  0.2741
16283W        W32757  18.063   0.999   0.849  0.2026  0.0537 -0.3438
16284W        W32758  15.547  18.680  11.420 -0.0575 -0.0873  0.0937
16285W        W32759  15.756   5.706   0.099 -0.0307 -0.0707 -0.1513
16286W        W32760   6.876  15.381   5.381  0.0808  0.0817 -0.3875
16287W        W32761  13.059  18.839   9.304 -0.0848 -0.0024  0.2239
16288W        W32762  12.462   2.591   3.442  0.2427 -0.0074 -0.0468
16289W        W32763  19.329   4.655  11.922  0.0729 -0.0343  0.1696
16290W        W32764   4.337   6.076  11.679  0.0242  0.0337  0.0062
16291W        W32765  15.751  19.302   1.553 -0.1024  0.2177  0.0414
16292W        W32766  13.233   6.366  12.270  0.1144  0.0958  0.0708
16293W        W32767  15.879  14.379   0.624  0.2012  0.3817  0.0773
16294W        W32768   2.118   6.778  11.987  0.0449  0.2455  0.2873
16295W        W32769  19.369   1.453   2.922  0.0423 -0.2025 -0.0534
16296W        W32770   8.284   5.981  14.478 -0.3489 -0.2613 -0.0351
16297W        W32771  12.719  13.814   1.496 -0.0780  0.0632 -0.1917
16298W        W32772  10.582   6.775  11.465  0.0573 -0.1905  0.6538
16299W        W32773  17.940   1.533   2.322 -0.0107 -0.0074 -0.0302
16300W        W32774   4.483  15.962   0.332  0.2798  0.2313 -0.2756
16301W        W32775   0.071   8.645  11.649  0.1318  0.0832 -0.1468
16302W        W32776   6.181  19.269   9.943  0.1249  0.2148  0.3535
16303W        W32777   9.811  16.826   0.155  0.1462 -0.0085 -0.2272
16304W        W32778  10.783  14.769  14.047  0.1084  0.1058  0.0590
16305W        W32779   5.413  16.996   1.807 -0.1729  0.2463  0.4411
16306W        W32780   6.229  11.919   5.152 -0.0446  0.0010 -0.0990
16307W        W32781  13.308  13.413  14.012 -0.2618 -0.0883  0.1409
16308W        W32782  10.121   3.587  12.552  0.0146  0.0562 -0.0619
16309W        W32783  10.838  14.278  14.146  0.0699  0.3260 -0.0595
16310W        W32784   0.764  10.229   3.545 -0.1056 -0.0637  0.0315
16311W        W32785   2.821  14.327  12.926  0.0010  0.0574  0.1594
16312W        W32786   2.272   9.043   4.210 -0.1969  0.1174  0.2562
16313W        W32787   2.819   8.248  11.228 -0.0668  0.1207  0.0238
16314W        W32788   1.655   3.226  11.769  0.2275 -0.1109  0.1237
16315W        W32789  17.158  14.526   2.467  0.1063 -0.1214 -0.1607
16316W        W32790  14.982   9.600   3.235 -0.3440 -0.2333  0.0645
16317W        W32791   5.408  10.181  10.191  0.0201  0.2336  0.0437
16318W        W32792  15.292   5.454   4.564 -0.0064 -0.0305 -0.2656
16319W        W32793   4.286  12.785   9.547  0.0567 -0.4236 -0.0725
16320W        W32794   5.556   7.917  14.088 -0.0708 -0.2994 -0.2427
16321W        W32795   8.469  10.929   4.726  0.2502 -0.1565 -0.1478
16322W        W32796  10.279  18.581  13.624  0.2093  0.1873 -0.5354
16323W        W32797  18.107  12.460  13.061 -0.1589  0.2538  0.0060
16324W        W32798   7.475   4.676   2.733  0.0806  0.0058  0.2279
16325W        W32799   7.640   7.749  13.515  0.0126  0.4371  0.2175
16326W        W32800  17.397  10.364  10.425  0.1888  0.1119  0.1354
16327W        W32801   5.476  15.045  12.936  0.0749 -0.0901  0.2284
16328W        W32802  12.350   7.174  14.260 -0.1728  0.0013  0.0320
16329W        W32803   7.857  14.884  10.945 -0.1872  0.0387 -0.1582
16330W        W32804  13.023  15.816   2.611  0.0243  0.0052  0.0703
16331W        W32805  15.743  13.607   1.992  0.0329  0.0138 -0.3703
16332W        W32806  11.146   1.906  14.468  0.1291 -0.2128  0.1472
16333W        W32807  18.999  18.166   2.440 -0.0559 -0.0468 -0.0307
16334W        W32808  12.040  17.900  10.230 -0.0463  0.2309 -0.1377
16335W        W32809   1.293  16.119   2.670  0.0683  0.1567  0.0740
16336W        W32810  17.585  13.804   3.858 -0.2019  0.0971 -0.0820
16337W        W32811  18.417   3.069  12.370  0.0239 -0.1369 -0.3186
16338W        W32812   8.264   4.843   1.688  0.2367  0.5816 -0.0126
16339W        W32813  19.570  10.034   0.278 -0.0197 -0.0305  0.4540
16340W        W32814  12.957  10.808   4.514  0.0448 -0.0012 -0.0015
16341W        W32815   3.255   0.094  12.316  0.0983 -0.4451  0.3199
16342W        W32816  13.429  15.862  11.171  0.0033  0.0637 -0.2693
16343W        W32817   2.661  18.102  13.519 -0.0973  0.0631 -0.3129
16344W        W32818  13.060   2.443   4.807  0.0834 -0.1212  0.0598
16345W        W32819  17.132  10.800   2.296  0.0535 -0.3684 -0.1292
16346W        W32820  13.603   6.475   0.345 -0.1470 -0.3428  0.2604
16347W        W32821  15.009  19.498  14.424 -0.2462  0.0334 -0.0038
16348W        W32822   2.050   5.828  14.637 -0.0574 -0.2732 -0.0645
16349W        W32823  10.869   6.862  13.361 -0.1584  0.0018 -0.0958
16350W        W32824   0.710  11.960  10.303  0.1312 -0.2604  0.1288
16351W        W32825   0.476   8.910   5.047 -0.1092  0.0300 -0.0037
16352W        W32826   9.828   5.870   0.041 -0.0511 -0.0020 -0.1708
16353W        W32827   6.826  15.724  12.026 -0.4448  0.0349  0.0276
16354W        W32828  18.236   6.081  14.625  0.3348  0.0338  0.3062
16355W        W32829   4.217  14.910  14.242  0.2062  0.0429  0.0041
16356W        W32830  17.823  14.330  12.872  0.0662 -0.0383  0.0957
16357W        W32831   7.169   8.108   2.519  0.3134  0.3090 -0.0510
16358W        W32832  14.392  15.611  14.467  0.1792  0.2650 -0.1237
16359W        W32833  14.628   6.121  14.440  0.0071  0.3001  0.1348
16360W        W32834   5.625  18.575   0.930 -0.1645  0.1031  0.0274
16361W        W32835  13.210   2.119  12.388  0.2634  0.0166  0.1699
16362W        W32836   7.491   8.293   1.551 -0.1949 -0.2440  0.2303
16363W        W32837   6.378  16.075   2.869 -0.1399 -0.0733  0.1143
16364W        W32838  12.642   5.216   9.945 -0.1391  0.1364 -0.0942
16365W        W32839  15.536   5.461  10.381  0.2424  0.2356 -0.2155
16366W        W32840  19.614   7.531   2.383 -0.3510 -0.0019 -0.0257
16367W        W32841  17.583   0.735  14.586 -0.0531 -0.0473 -0.3685
16368W        W32842   5.269  10.510  12.226 -0.3253 -0.1905  0.0803
16369W        W32843   3.618  16.060   4.904 -0.0692  0.2444 -0.0718
16370W        W32844   4.988  12.957   4.332 -0.0953  0.3379  0.4013
16371W        W32845   9.818  16.714   1.963 -0.1805  0.4881 -0.2535
16372W        W32846   8.905  17.541  13.804  0.0561  0.3479  0.4241
16373W        W32847  10.613  14.200  11.521 -0.1586  0.0436  0.0425
16374W        W32848  12.092   4.596  12.092 -0.3035 -0.0927  0.0732
16375W        W32849   7.542   9.842   0.301 -0.1456 -0.0976  0.1059
16376W        W32850  11.847  14.316   5.400 -0.0916  0.2620  0.1487
16377W        W32851   6.372  13.964   3.655 -0.1635  0.0610  0.2849
16378W        W32852   4.973   2.527   4.552 -0.2625  0.0527 -0.3470
16379W        W32853   9.525   6.769  11.640  0.1498 -0.3365  0.1961
16380W        W32854   5.251  13.217   5.484 -0.0990 -0.1076  0.0491
16381W        W32855  13.040  14.673   4.155  0.1095  0.1105  0.2753
16382W        W32856   7.956  17.930   4.632 -0.0692  0.1855  0.0202
16383W        W32857  18.244  13.012   3.936 -0.0404  0.2054 -0.3161
16384W        W32858   8.433  16.122   1.738 -0.1059 -0.0484 -0.2533
16385W        W32859  19.233  10.709   3.002  0.1610  0.2638 -0.3210
16386W        W32860   9.716   0.451  14.529 -0.2701 -0.1266 -0.2216
16387W        W32861  13.681   1.430   0.626  0.1874  0.1191 -0.2963
16388W        W32862   9.821   9.356   1.179  0.1144 -0.0488 -0.0623
16389W        W32863  17.906   2.219  10.277 -0.0217 -0.2563 -0.0824
16390W        W32864   3.896  10.679  13.081 -0.3221 -0.2070 -0.0977
16391W        W32865  18.865   8.480  14.138 -0.0140 -0.1045  0.0823
16392W        W32866  17.853  18.736   2.942 -0.0724  0.0680 -0.1112
16393W        W32867  13.316  12.243  10.749 -0.0524 -0.2624  0.1792
16394W        W32868   3.337  19.202  13.052  0.0793 -0.0584  0.1333
16395W        W32869   3.122   1.726   4.389 -0.0290 -0.0837 -0.4199
16396W        W32870   1.830   8.552   4.693 -0.1754 -0.1173 -0.1008
16397W        W32871  14.027  16.848   3.424  0.0804  0.0813 -0.2550
16398W        W32872  19.075  16.661  12.099 -0.0032 -0.1679 -0.4223
16399W        W32873   5.134   5.155   4.163  0.0410  0.0104  0.0631
16400W        W32874  11.387  14.932   1.862 -0.0172  0.0524  0.0734
16401W        W32875   5.664   0.443  11.562  0.2862 -0.4488  0.0651
16402W        W32876   7.165  18.758   0.785  0.0811  0.0309  0.2971
16403W        W32877   2.797  10.445  13.545  0.1955  0.4498  0.2866
16404W        W32878  11.008   1.062   0.870 -0.0873  0.1283 -0.0128
16405W        W32879   2.822   3.207  10.922 -0.0269  0.1397  0.1947
16406W        W32880   1.074  16.898  11.810 -0.1104 -0.1870  0.0216
16407W        W32881  13.844  16.810  12.891  0.1308 -0.2617 -0.2242
16408W        W32882   5.827  18.192  11.601  0.3155 -0.3539 -0.0890
16409W        W32883   8.130  12.365  10.988  0.2083 -0.2002 -0.0327
16410W        W32884  16.645  12.439   3.377 -0.3530 -0.2036 -0.0900
16411W        W32885   4.950  16.003   1.718 -0.3349 -0.0486 -0.0588
16412W        W32886  18.616  16.451   0.731  0.1221 -0.0417  0.0435
16413W        W32887   9.766   1.079   4.793 -0.1005  0.0996 -0.0479
16414W        W32888  15.441   0.696   0.323  0.1698  0.0015  0.0319
16415W        W32889  12.145  16.398  11.700  0.0664  0.2497 -0.3675
16416W        W32890  11.661   7.195   1.576  0.1130  0.1793 -0.1803
16417W        W32891   6.475   1.426  12.356 -0.0274  0.1073 -0.0638
16418W        W32892   1.570  12.359  14.216  0.2689  0.3501  0.1594
16419W        W32893   5.877  18.002   3.262  0.3363 -0.0373 -0.3780
16420W        W32894  11.408  17.850   2.887 -0.1235 -0.0920 -0.0603
16421W        W32895  10.008  14.721   2.584  0.2397  0.1210 -0.0772
16422W        W32896  17.260  11.513  10.048  0.1141  0.2688 -0.1624
16423W        W32897  11.723  18.609  11.256 -0.2239  0.1352 -0.2138
16424W        W32898  11.543  18.411  11.662 -0.0741 -0.0321  0.0699
16425W        W32899  17.574   3.070  12.253  0.2075  0.1465  0.2450
16426W        W32900   6.512   1.527  11.403  0.5371 -0.3318  0.0840
16427W        W32901   3.541  19.044  12.455 -0.3023  0.0538  0.1760
16428W        W32902  19.514   3.955  10.298  0.2144  0.0933 -0.0119
16429W        W32903   0.732   0.022  10.898 -0.0288  0.1644  0.1348
16430W        W32904  17.610  10.235  14.000 -0.0734 -0.0083 -0.0784
16431W        W32905   6.617  10.570   4.267 -0.0617  0.2654  0.2048
16432W        W32906   7.508  11.886  13.934 -0.0019  0.3195 -0.0813
16433W        W32907   4.437   0.382  13.130 -0.2874 -0.0467 -0.3578
16434W        W32908   1.673  17.065  14.658  0.2521 -0.0952  0.1363
16435W        W32909   5.251   9.937   2.799 -0.2053  0.0267 -0.1597
16436W        W32910   6.960  10.753  14.627  0.3241  0.1758 -0.2041
16437W        W32911   7.639   8.802   1.862 -0.3345  0.0445 -0.3111
16438W        W32912   3.956   1.645  13.751  0.2451  0.0922 -0.4398
16439W        W32913   9.029  12.177  14.016  0.1640  0.1428  0.2126
16440W        W32914  14.310   0.170   4.453 -0.1471  0.0482 -0.0514
16441W        W32915   7.658  18.993  12.758  0.1090  0.4067  0.3159
16442W        W32916   7.146   3.822   4.433  0.2025  0.2205 -0.3968
16443W        W32917  14.306  14.587  13.584  0.0674  0.1256 -0.1503
16444W        W32918   2.265  17.882  10.872 -0.0725 -0.1470  0.1044
16445W        W32919  14.313   7.763   0.625  0.0208  0.1181 -0.1049
16446W        W32920  13.025  19.312  10.688  0.5753  0.2374 -0.0199
16447W        W32921   5.688  14.281   1.296 -0.0761 -0.0701 -0.0962
16448W        W32922   0.363   1.235   0.530  0.0323 -0.1743  0.3771
16449W        W32923   3.900  19.359   0.605  0.1350  0.0201 -0.0479
16450W        W32924   0.399  12.509   0.734  0.0973  0.1785  0.0355
16451W        W32925  12.862  18.362   4.482 -0.1216  0.0229 -0.2202
16452W        W32926  14.195  17.526  11.585  0.0101  0.0222  0.1444
16453W        W32927   6.947  16.603  12.538  0.1817 -0.0499  0.0104
16454W        W32928  15.770   8.309   0.312  0.0603  0.0447  0.0857
16455W        W32929  13.481   5.455   4.454 -0.1539 -0.2278 -0.3360
16456W        W32930   1.720   9.631  13.062 -0.3057 -0.1643 -0.1999
16457W        W32931   8.782   3.988   0.284 -0.0177  0.0512 -0.3346
16458W        W32932  11.966  16.934  12.043  0.1695  0.0573 -0.3004
16459W        W32933   5.384  17.989  11.321 -0.3302 -0.0348  0.2727
16460W        W32934   4.517  17.471   2.574  0.0970  0.1156  0.0954
16461W        W32935   2.799  17.140   2.632  0.1768 -0.2449 -0.0107
16462W        W32936  11.905   1.657   3.709  0.1430  0.0526 -0.4354
16463W        W32937   9.979  12.944  11.456 -0.1617  0.4420  0.3879
16464W        W32938   6.484   2.680   0.633  0.0727 -0.0106  0.2969
16465W        W32939  18.962  16.885   5.540  0.0000  0.1797 -0.1024
16466W        W32940  16.578  13.705   1.186 -0.3066 -0.2739  0.2514
16467W        W32941   8.821  13.957   0.834 -0.2117 -0.0769 -0.2196
16468W        W32942  18.349   8.320  11.825  0.0189  0.3274 -0.3045
16469W        W32943  17.240   2.013   4.388 -0.0242  0.3894 -0.0034
16470W        W32944  11.503  13.465   5.016 -0.1108 -0.2746 -0.2129
16471W        W32945   1.344   5.720   3.326 -0.2451  0.1530  0.0425
16472W        W32946   4.798  12.713  13.782  0.0378 -0.4310 -0.1760
16473W        W32947  16.698   4.178   1.045  0.1281  0.2905  0.0820
16474W        W32948  13.236   4.841   2.840  0.6988  0.1506  0.0823
16475W        W32949  10.224   3.196   3.392 -0.2769 -0.1080  0.1127
16476W        W32950   1.722  15.787   3.362  0.0145 -0.1083 -0.0682
16477W        W32951   1.826  11.754  13.116  0.1095  0.1658  0.0133
16478W        W32952   8.349   9.035   4.472  0.0365  0.1548  0.2544
16479W        W32953  18.040   2.491  11.101 -0.0853  0.2285 -0.2630
16480W        W32954  10.749  13.626  11.691 -0.1591  0.3526  0.1422
16481W        W32955  13.840   9.201   4.421 -0.0996  0.0197 -0.0821
16482W        W32956  17.571  18.263  11.958 -0.2787 -0.1833 -0.2144
16483W        W32957   4.259   9.327   9.130 -0.1635 -0.4059 -0.0988
16484W        W32958  14.547   2.873  10.850 -0.1196 -0.2003 -0.1329
16485W        W32959  10.960   0.495   0.180  0.0624  0.3621 -0.2298
16486W        W32960  19.464   0.823   4.802 -0.0715 -0.2344 -0.0267
16487W        W32961   6.596  11.233  14.576 -0.2920  0.2036  0.1148
16488W        W32962  18.726   9.095   0.865  0.1331 -0.2556 -0.1212
16489W        W32963  14.152  14.320   2.764  0.0164  0.3580  0.0397
16490W        W32964   7.966   1.140  12.101  0.0475  0.1194  0.0708
16491W        W32965  18.406  17.190  12.730  0.1596  0.1904 -0.0009
16492W        W32966  11.929  11.077  13.032 -0.1274  0.2606 -0.0672
16493W        W32967  15.765  13.502  12.465  0.0006  0.3352  0.0828
16494W        W32968  10.612   1.350   3.506  0.1406 -0.1720 -0.1964
16495W        W32969   4.428   4.674  14.058  0.0111 -0.0595 -0.0471
16496W        W32970  17.106  16.995  11.007  0.1096 -0.2989 -0.3323
16497W        W32971  14.058  15.596   3.936 -0.2501  0.0400 -0.2176
16498W        W32972  19.050   0.731   0.724  0.0846  0.1608 -0.0658
16499W        W32973   1.045   1.755  13.620 -0.0425  0.0684  0.0088
16500W        W32974  12.018   8.424   0.195  0.4974 -0.1377 -0.2267
16501W        W32975   1.099   3.963   1.738  0.0495 -0.0915  0.0036
16502W        W32976  17.144  13.332  11.405 -0.1943 -0.0547  0.0576
16503W        W32977   4.483  14.699   1.464 -0.3560 -0.1456 -0.1768
16504W        W32978   1.934  18.764   4.828 -0.0049  0.1001  0.1888
16505W        W32979   8.817   2.568   3.189 -0.0447 -0.0782  0.0610
16506W        W32980  12.666   8.182  12.945 -0.1114 -0.0496 -0.2240
16507W        W32981   4.694   0.279  11.142 -0.0075  0.4044 -0.0329
16508W        W32982   4.253  11.865  11.336 -0.4065  0.2137 -0.0418
16509W        W32983   2.682  16.597  13.282 -0.1943 -0.2836  0.3088
16510W        W32984   1.460  11.545  12.868  0.2257 -0.2960 -0.2913
16511W        W32985  11.886  12.198  13.189  0.0052 -0.0616  0.2638
16512W        W32986  12.530  17.920   2.319 -0.0927 -0.0667  0.0474
16513W        W32987   8.316   6.063   1.386  0.3040  0.1070 -0.1468
16514W        W32988   6.827   0.052  10.039  0.1048  0.2334 -0.0783
16515W        W32989  14.662   9.470   4.417  0.0371  0.0022  0.0656
16516W        W32990   0.117  13.791   2.882 -0.2823  0.1909 -0.2856
16517W        W32991   3.200   0.606  10.885  0.4412  0.1802 -0.0910
16518W        W32992  15.996   8.671  11.646 -0.3890 -0.1512 -0.0708
16519W        W32993   5.870  11.048  14.079 -0.1194  0.0414 -0.0335
16520W        W32994   7.300   1.238   4.475  0.4058  0.0791  0.0118
16521W        W32995   1.942   3.756  11.653 -0.3667  0.2067  0.1075
16522W        W32996   8.654  12.829   5.342 -0.1913  0.1801 -0.1001
16523W        W32997  16.069   1.184  11.200 -0.2180 -0.0641 -0.1011
16524W        W32998   4.006  17.756   1.877 -0.2083  0.1002 -0.0065
16525W        W32999  13.056   2.176   1.806  0.0052  0.0899  0.0647
16526W        W33000   1.145  15.854   1.332  0.1929 -0.0433 -0.0353
16527W        W33001  14.773   2.254   0.537  0.2992 -0.3751  0.0660
16528W        W33002   1.914  11.282   4.574 -0.0313  0.1050  0.0076
16529W        W33003  18.792  17.762   3.941 -0.3783 -0.1705 -0.1578
16530W        W33004  13.719   4.137  14.242  0.1681 -0.1067 -0.3407
16531W        W33005   2.700   7.505  14.283  0.2922  0.0319 -0.0409
16532W        W33006  12.534  18.666  12.807 -0.1032 -0.3268 -0.1631
16533W        W33007   9.939  18.916  11.648 -0.1938 -0.0617  0.0526
16534W        W33008  11.070  14.905   3.758  0.0541  0.0141  0.1521
16535W        W33009  12.402   5.674   4.214  0.0683  0.3437  0.3366
16536W        W33010   0.091  13.713   0.422  0.1000 -0.2220  0.5261
16537W        W33011   2.193  16.590   3.299 -0.0536  0.2439 -0.0426
16538W        W33012   4.385  17.936   0.843 -0.2651 -0.0315 -0.1682
16539W        W33013   1.476   7.622  12.952  0.0515 -0.1039  0.0328
16540W        W33014   6.116  15.403   3.232  0.0971  0.0888  0.0197
16541W        W33015   0.845  12.036  11.187 -0.0328 -0.0146  0.2002
16542W        W33016  10.023   7.795   0.391 -0.2863 -0.4691 -0.0184
16543W        W33017  12.396  16.210   3.683 -0.2226 -0.1190  0.2733
16544W        W33018  11.707  12.556  11.662 -0.2987  0.2296 -0.0528
16545W        W33019  12.747   5.252   1.409  0.1243  0.0720  0.1250
16546W        W33020  18.254   7.644   4.074 -0.0832  0.1523  0.1689
16547W        W33021   9.186  14.198   1.376  0.1802 -0.1324 -0.0665
16548W        W33022   1.499  14.115   2.661 -0.0882 -0.0660  0.0642
16549W        W33023  14.754  13.174  13.880  0.0187 -0.3090 -0.1581
16550W        W33024  14.042  18.232  14.501 -0.3358  0.1621 -0.0924
16551W        W33025  11.166   4.073   2.865  0.2056 -0.1075  0.0472
16552W        W33026   8.121  12.563   9.389 -0.1725  0.0157 -0.0302
16553W        W33027  18.584   7.110  11.736  0.1601  0.0946  0.2460
16554W        W33028   9.602  13.489  14.437 -0.1992 -0.2086  0.0868
16555W        W33029   0.855  11.998   2.524 -0.1900  0.1118 -0.1645
16556W        W33030   6.400  18.290  13.721 -0.2031 -0.0023 -0.0484
16557W        W33031   6.432  13.590  12.895 -0.3227  0.1277 -0.0820
16558W        W33032   9.518   3.159   4.510 -0.0623 -0.0533 -0.5164
16559W        W33033  13.871  19.468   1.985  0.0617 -0.0316 -0.0006
16560W        W33034   4.513   6.615  13.049 -0.1936 -0.0070 -0.2158
16561W        W33035  12.294   5.190   0.752  0.2962 -0.1307 -0.3524
16562W        W33036   5.368  13.064   2.847  0.2286 -0.0219 -0.2066
16563W        W33037  16.476  10.696  13.284  0.1642 -0.3490 -0.2618
16564W        W33038  18.760  19.464   0.318  0.1229  0.3432  0.0892
16565W        W33039  12.539   3.626  11.489  0.2766  0.1797 -0.3403
16566W        W33040  13.606  16.417   1.425 -0.0145 -0.0992 -0.1700
16567W        W33041  19.252  11.414  10.978  0.0864 -0.0889  0.1247
16568W        W33042  15.003   9.986   0.425  0.3533 -0.2264  0.0154
16569W        W33043   2.133   2.733   5.436 -0.2890  0.1380  0.2202
16570W        W33044  15.897  16.305   2.035 -0.3241  0.1182  0.1431
16571W        W33045  11.117   2.898   3.064  0.3886 -0.1713 -0.0408
16572W        W33046  10.224  15.330   0.080 -0.2131  0.1377  0.6002
16573W        W33047   3.876  13.445   1.541  0.2792  0.0452  0.2098
16574W        W33048  18.661  12.998  13.792  0.1006  0.2356 -0.0679
16575W        W33049   8.750   5.850   3.574  0.3138  0.1085 -0.0951
16576W        W33050   8.814   7.684  10.318 -0.2514  0.0016  0.0161
16577W        W33051   5.559  17.542  11.139  0.1912  0.1533 -0.0522
16578W        W33052  18.711  12.878   2.209  0.2352  0.0480  0.2708
16579W        W33053  11.137  18.392  13.423 -0.0227 -0.0033 -0.0454
16580W        W33054  14.149   0.677   2.803  0.2187  0.2831 -0.2681
16581W        W33055   9.709   7.975  14.097  0.2059 -0.1805  0.0795
16582W        W33056   0.037  12.157   2.675 -0.2221 -0.0961 -0.0154
16583W        W33057  19.565  16.002  13.321  0.3194 -0.0401  0.0351
16584W        W33058   0.152  11.046   0.493 -0.0477  0.2177  0.0061
16585W        W33059   9.402  15.115  12.352  0.2368 -0.2915  0.0309
16586W        W33060  17.221  17.599   1.974 -0.0679  0.1411  0.4525
16587W        W33061  10.442   7.306   3.362  0.1804 -0.1793 -0.4057
16588W        W33062   7.286   9.370  13.020  0.3050 -0.3011  0.2441
16589W        W33063   3.403  10.947   3.383  0.1226 -0.5661 -0.1284
16590W        W33064   8.967   4.057  11.309  0.2719 -0.3461  0.1735
16591W        W33065   6.470   8.162  14.227  0.0763  0.0518 -0.0403
16592W        W33066  16.958  18.422   2.646  0.0233  0.1226  0.2637
16593W        W33067   8.445  11.852  10.383 -0.0102  0.0424 -0.0352
16594W        W33068   0.181  17.917  12.314  0.2857 -0.3191  0.1000
16595W        W33069   0.382  18.837   3.163 -0.2812 -0.1533  0.0617
16596W        W33070   6.522  17.862   3.658 -0.2696 -0.2773 -0.0975
16597W        W33071  18.703   9.148  12.569 -0.0241  0.2926  0.0735
16598W        W33072  16.699   7.676   1.910 -0.0648 -0.2141  0.1335
16599W        W33073   6.641   0.355   0.328  0.3891  0.0391  0.0478
16600W        W33074  13.951  10.205   4.663 -0.1034 -0.0621  0.0475
16601W        W33075   5.447   1.085   0.145  0.0955  0.0084  0.1092
16602W        W33076  16.300   4.194  12.778  0.0134  0.1206  0.1351
16603W        W33077   9.844   0.526  10.916 -0.0832  0.2245 -0.0619
16604W        W33078   5.776  18.037  14.524 -0.2192  0.0539  0.1572
16605W        W33079  12.479   5.401   4.758  0.2934 -0.3693 -0.0791
16606W        W33080  19.165  13.038   2.630  0.0362  0.3516  0.0078
16607W        W33081   0.956   3.323   4.190  0.1087 -0.0944  0.0318
16608W        W33082   3.821   8.274   5.221 -0.0049  0.1778  0.0714
16609W        W33083   5.457   1.544  13.318 -0.4303 -0.1670 -0.0798
16610W        W33084  10.481   0.548   3.109 -0.1826  0.0760 -0.0330
16611W        W33085  17.189  12.998   1.274  0.1338  0.0222 -0.1317
16612W        W33086   1.839   5.395  13.849 -0.4384  0.0728 -0.0484
16613W        W33087  14.054   6.923   4.074  0.2646  0.0436  0.0346
16614W        W33088  15.066   1.893   3.975  0.0041  0.2199  0.2123
16615W        W33089  18.437   0.428   3.621  0.2495 -0.3089  0.1132
16616W        W33090  16.524   4.875   2.402  0.1221  0.1200  0.4788
16617W        W33091  14.240   0.982   3.287  0.2158  0.0834 -0.0224
16618W        W33092   0.792   7.794   1.978  0.2240  0.0605  0.0393
16619W        W33093   1.007  18.883   1.984 -0.1528  0.2383 -0.0518
16620W        W33094  11.790  19.309   5.059  0.1697 -0.0304  0.1137
16621W        W33095  10.893   2.716  11.803  0.3092  0.0100  0.1045
16622W        W33096   0.705  15.056  12.258  0.2509  0.0753 -0.0534
16623W        W33097  15.015   5.183   1.990 -0.0095 -0.1298 -0.0666
16624W        W33098  13.156   5.523  13.681  0.1973  0.0393  0.1675
16625W        W33099   0.260   7.150   0.471  0.1462 -0.0133 -0.1548
16626W        W33100   3.837  17.497  12.113  0.1525  0.1167  0.1710
16627W        W33101  14.276  19.047  13.959  0.0280 -0.0204  0.0073
16628W        W33102   1.690  11.115   5.437 -0.2305 -0.0522  0.0213
16629W        W33103   4.301   1.011   4.045 -0.1110  0.1466 -0.0825
16630W        W33104   2.670  11.209  12.919 -0.2128 -0.1769  0.0384
16631W        W33105   6.930   3.305  14.338  0.1467 -0.1246 -0.0844
16632W        W33106   2.567   9.140  12.276 -0.0249 -0.0889  0.0561
16633W        W33107   9.608  11.779   4.624  0.0176 -0.4237  0.1087
16634W        W33108  12.938  18.653  12.067 -0.2809  0.1673  0.3078
16635W        W33109   7.138   7.470   2.214  0.2503 -0.2058  0.1298
16636W        W33110   1.344   4.924   1.005  0.0958  0.1825 -0.0292
16637W        W33111  16.109   4.450  11.962 -0.0234 -0.1722  0.0533
16638W        W33112   7.172  15.671  10.670 -0.1182 -0.4019 -0.1793
16639W        W33113   1.980   0.983   4.521  0.0028  0.2346  0.0203
16640W        W33114   3.459   1.696   4.782  0.0810 -0.1626 -0.1636
16641W        W33115  15.994   5.533  10.691 -0.2556  0.1473 -0.0086
16642W        W33116   0.383  16.086   1.596 -0.2494 -0.0590  0.1210
16643W        W33117  17.831  17.395  14.343 -0.2443  0.0245  0.3095
16644W        W33118   3.346  14.760  10.993  0.3346 -0.0496  0.1445
16645W        W33119   1.688  12.847  11.309 -0.2803 -0.3869  0.0869
16646W        W33120   7.408  17.737   2.595  0.1208 -0.2090 -0.4032
16647W        W33121  12.640  11.674  11.902  0.0765 -0.2819 -0.0217
16648W        W33122  14.051   6.468   4.390 -0.4368 -0.1471 -0.2873
16649W        W33123  16.405  12.915  12.567 -0.3563 -0.2091  0.0556
16650W        W33124   6.027  14.934   3.950 -0.0665 -0.0906 -0.2137
16651W        W33125   6.488  13.959   2.673 -0.0264  0.1810 -0.1533
16652W        W33126  14.705  19.102  10.610  0.2195 -0.0916 -0.2501
16653W        W33127   6.621   5.450   3.923 -0.2774  0.0183  0.0966
16654W        W33128   0.095   5.835   1.810  0.1044  0.3166  0.0245
16655W        W33129   1.225   2.370   3.226 -0.0110 -0.0584  0.3634
16656W        W33130  12.512  15.826  13.623 -0.0218 -0.0392  0.0528
16657W        W33131   6.591  12.704  12.768 -0.3578  0.4494  0.0061
16658W        W33132  12.446   5.369  13.897 -0.2162 -0.2998 -0.0363
16659W        W33133  16.267  17.749  13.013 -0.0740  0.0763 -0.1838
16660W        W33134  13.682  12.960   1.336  0.1003 -0.0547 -0.1273
16661W        W33135   8.417   1.546  12.432 -0.1225 -0.2234  0.0676
16662W        W33136  15.599   3.410   9.416 -0.2420 -0.0839  0.0369
16663W        W33137   0.921  16.621  10.604 -0.1289  0.2910 -0.1778
16664W        W33138  15.943   7.655   4.995 -0.2186  0.1034  0.1132
16665W        W33139  19.147  18.083  10.415 -0.0015 -0.1513  0.0968
16666W        W33140  15.547  17.773  11.340 -0.1248  0.0970  0.1154
16667W        W33141   6.431  10.694   1.692 -0.0510 -0.0596  0.1069
16668W        W33142  13.429   4.275  11.517  0.0667  0.0094 -0.1279
16669W        W33143   3.354  11.303  12.610  0.2742 -0.3183  0.0421
16670W        W33144  10.280   0.850  14.139 -0.2490 -0.0781  0.1154
16671W        W33145   0.645  16.548   4.719 -0.2162  0.0810 -0.2118
16672W        W33146  12.452  12.532  11.055 -0.1224  0.0313  0.5913
16673W        W33147  10.221   1.379  12.398  0.0778 -0.0859  0.0904
16674W        W33148  16.927  15.177   0.801  0.0761  0.0623 -0.1313
16675W        W33149   2.804   3.286  11.476  0.2804 -0.0033 -0.3001
16676W        W33150  14.735   7.155   4.097  0.2517 -0.1914 -0.0933
16677W        W33151  11.996   0.289  11.320  0.0356  0.0371  0.0018
16678W        W33152  17.342   3.492  11.289  0.0369  0.1825  0.1298
16679W        W33153   4.202   2.508  10.347 -0.3818 -0.0169  0.0338
16680W        W33154   7.750   4.831   1.093 -0.2550 -0.1454  0.1079
16681W        W33155  19.243  15.855   0.418  0.3214  0.0567  0.2230
16682W        W33156   2.821   5.271  10.176 -0.2131 -0.1570 -0.0476
16683W        W33157   1.355  18.450  12.406 -0.0486  0.1333 -0.1302
16684W        W33158  19.469   0.451   0.564 -0.0853  0.0898 -0.0483
16685W        W33159   8.619  12.155   4.507  0.2615 -0.1621  0.2921
16686W        W33160  16.496   0.284  11.310  0.0804  0.0919 -0.0727
16687W        W33161  12.453   5.044  11.402 -0.1119 -0.1520  0.1340
16688W        W33162   1.970  13.173  11.978 -0.1015  0.3119  0.0720
16689W        W33163  17.966  13.346  11.731 -0.1511 -0.0879 -0.3247
16690W        W33164  14.273  18.776  10.432 -0.1300  0.0813  0.0913
16691W        W33165  12.145  17.840   2.645 -0.2491  0.1199 -0.1759
16692W        W33166  17.447   3.941  14.643 -0.4012  0.2120  0.0534
16693W        W33167  18.960  10.878  12.506  0.0640 -0.0876 -0.0937
16694W        W33168   1.038   2.883   3.657  0.2096  0.3062  0.1651
16695W        W33169   1.514  17.184  11.858  0.0325  0.0743 -0.0906
16696W        W33170  14.748   2.732   1.572 -0.3181  0.0319 -0.1247
16697W        W33171   5.829   8.932   3.850  0.0871  0.0094  0.0252
16698W        W33172  16.394   5.328   4.489  0.0071 -0.1718 -0.0722
16699W        W33173   5.159   3.751  14.068  0.1892 -0.3234 -0.1048
16700W        W33174   2.546   1.550  14.544  0.3343 -0.0999 -0.1496
16701W        W33175   4.787   0.202  10.185 -0.0386 -0.1349 -0.0289
16702W        W33176  17.803   5.098  11.871  0.1053  0.3139  0.0495
16703W        W33177   5.815   9.499   2.409  0.1565  0.0192  0.0931
16704W        W33178   1.674  15.460  13.307 -0.3313 -0.0498 -0.4192
16705W        W33179   7.035   6.308   4.030  0.0580 -0.1431  0.2729
16706W        W33180  17.625   2.590  10.030  0.1747 -0.0570 -0.2387
16707W        W33181  15.331  17.863  10.897 -0.2649  0.1223  0.1794
16708W        W33182  17.672  17.288   5.316  0.4755 -0.0560 -0.0165
16709W        W33183   0.977   0.193  12.737 -0.2111 -0.0802 -0.2236
16710W        W33184  11.969  10.940   0.021  0.0441 -0.2851  0.2793
16711W        W33185   0.930  10.942   1.654  0.2511 -0.0170 -0.2634
16712W        W33186   8.553   0.881  12.013  0.1372 -0.1308 -0.1402
16713W        W33187  13.750   6.039  12.029  0.0415 -0.2765  0.1976
16714W        W33188   5.349  10.705   3.656 -0.0131  0.2866  0.1805
16715W        W33189  15.513   7.134  11.413  0.4064  0.0128  0.0635
16716W        W33190  17.616  12.867  11.620  0.1852 -0.2712 -0.1161
16717W        W33191  17.822   8.717   0.935 -0.0160 -0.0592 -0.1253
16718W        W33192  16.142  16.533  11.169 -0.2086 -0.1389 -0.6029
16719W        W33193  13.384   3.244  13.460 -0.0676  0.2749 -0.2306
16720W        W33194   1.034  15.489   4.039  0.2615 -0.1330  0.0515
16721W        W33195   6.825  13.617  13.508 -0.0840  0.1223 -0.0246
16722W        W33196   6.726  13.118   0.147 -0.1735  0.2643  0.1311
16723W        W33197  19.090  10.032  10.324 -0.3830 -0.2829  0.1125
16724W        W33198   0.574   1.168   2.821  0.2833  0.1135  0.2364
16725W        W33199  15.163  15.171   2.695 -0.0440  0.1594  0.0391
16726W        W33200  17.751   8.217   4.298  0.0389  0.0364  0.2905
16727W        W33201  10.730  18.783   4.692  0.1873  0.1189 -0.0466
16728W        W33202  17.751   6.243  14.399 -0.3459 -0.0753 -0.0386
16729W        W33203  18.412   7.629   3.219  0.4657 -0.2329  0.2444
16730W        W33204  13.625   7.923  10.531  0.0882  0.0064  0.1681
16731W        W33205   5.935   8.687   4.869  0.0520  0.0408  0.2105
16732W        W33206   2.826   1.923   0.182 -0.1054 -0.2100 -0.0367
16733W        W33207   3.970   7.639  14.521  0.1610 -0.1537  0.2355
16734W        W33208  16.716   9.695   5.812  0.1119  0.0163 -0.0583
16735W        W33209  17.254   8.708   0.835 -0.0203  0.0280  0.1917
16736W        W33210   6.751  15.917   0.347  0.0082 -0.0174 -0.0161
16737W        W33211  11.063  16.374   2.681  0.0071  0.4822 -0.0030
16738W        W33212  16.871  14.859  10.995 -0.0849 -0.0480  0.1699
16739W        W33213   6.792  12.136   2.598 -0.2198  0.0974  0.2018
16740W        W33214  10.687  11.920   3.705 -0.1548  0.0893  0.0859
16741W        W33215   6.158   9.852   0.660 -0.3258 -0.0341 -0.1679
16742W        W33216  19.605  17.432   1.210 -0.1493  0.1045  0.4608
16743W        W33217  14.253   2.692   1.319 -0.1408  0.1433 -0.1811
16744W        W33218   3.505   3.506  11.720 -0.1220  0.3578 -0.0913
16745W        W33219  15.439   5.529  12.392  0.0539  0.0898  0.2822
16746W        W33220  19.128  19.022  14.417 -0.4771  0.1446 -0.0767
16747W        W33221  11.283  11.731  10.723  0.0034 -0.0189 -0.0460
16748W        W33222   9.836   8.392  12.052 -0.0569  0.2512  0.1408
16749W        W33223   8.340   0.544  14.099 -0.2261 -0.1581 -0.2062
16750W        W33224  10.090   1.174   2.652  0.2259  0.3560  0.1705
16751W        W33225  17.327   3.283  13.024 -0.0169  0.0976 -0.2408
16752W        W33226   5.459  15.912   3.085 -0.0270  0.3226 -0.2120
16753W        W33227  15.872   2.882   2.683  0.1203  0.2684  0.1591
16754W        W33228  14.359  18.207  11.065 -0.3422 -0.1029 -0.0930
16755W        W33229   7.038  14.776   1.533 -0.2196  0.3352 -0.1384
16756W        W33230   0.433  12.348  12.254 -0.0126 -0.0197 -0.2930
16757W        W33231  12.837  18.365  12.489 -0.2379  0.0147  0.0197
16758W        W33232  16.660   2.379   2.982  0.4427 -0.0654  0.0144
16759W        W33233   7.914  14.085  12.924 -0.0631 -0.2700 -0.0628
16760W        W33234   3.361  12.463   2.639 -0.1412  0.0752  0.4338
16761W        W33235   8.572  16.353  13.670 -0.0322 -0.3228 -0.4341
16762W        W33236   4.614  12.077   4.067 -0.2825  0.0336 -0.1137
16763W        W33237   4.096   8.300  10.628 -0.5230 -0.0630  0.0494
16764W        W33238   1.256   5.416   0.824 -0.2668  0.2479 -0.0383
16765W        W33239  15.867  11.364   1.977  0.0241  0.0596  0.1185
16766W        W33240  18.814  13.343   0.301  0.2962 -0.0539 -0.0026
16767W        W33241  16.278   4.553   3.630  0.2094 -0.2461  0.2427
16768W        W33242  12.110   1.756  12.973 -0.1738  0.1483  0.1513
16769W        W33243  17.982  15.068   9.418 -0.0410 -0.0217 -0.1480
16770W        W33244  17.768  10.731  12.098  0.0826 -0.0201 -0.0326
16771W        W33245  15.269   9.481  12.993  0.2674 -0.1138 -0.2073
16772W        W33246   2.339  11.172  12.527  0.0261 -0.0748  0.2197
16773W        W33247  15.384   8.376   4.125  0.1302 -0.0967  0.1874
16774W        W33248   3.331  14.963   2.796  0.1316  0.0011  0.0005
16775W        W33249   3.970   6.444  11.668 -0.2338 -0.0163  0.2320
16776W        W33250  17.351  13.112  10.507  0.3311 -0.1776  0.1872
16777W        W33251  17.546  15.922   2.204  0.0041 -0.1041 -0.0316
16778W        W33252  18.579  10.273  10.203  0.1049  0.0580 -0.0160
16779W        W33253  13.569   6.173   3.414 -0.1770 -0.1132 -0.3013
16780W        W33254   1.125   8.162   4.106  0.3252  0.2514 -0.1092
16781W        W33255   4.958   8.552  13.548  0.2021  0.0350  0.1298
16782W        W33256   9.052  11.668   2.021 -0.0442  0.3301 -0.0618
16783W        W33257  18.814   2.153  13.667  0.0229 -0.0271 -0.1642
16784W        W33258   0.534   2.961   2.899  0.2303 -0.0247  0.3789
16785W        W33259  10.291  15.032  10.641 -0.2401 -0.1007 -0.0107
16786W        W33260  10.026  14.367   2.989  0.0145  0.0498 -0.1153
16787W        W33261  19.578   5.627  10.516  0.2926  0.1961  0.0288
16788W        W33262   5.728  16.305   3.000 -0.1620 -0.1538 -0.1886
16789W        W33263  15.148   2.471   2.023 -0.1170  0.0378  0.2659
16790W        W33264   5.047   6.514  11.465  0.0755  0.0348  0.1439
16791W        W33265   3.998  10.637   3.729 -0.0639  0.1834 -0.0925
16792W        W33266  11.931   9.241  10.398 -0.1076  0.0791  0.0630
16793W        W33267   2.026   1.858  11.776 -0.1023  0.2427 -0.0813
16794W        W33268  13.157  11.484   1.935 -0.0873  0.4097  0.2408
16795W        W33269  18.597  18.543  10.624 -0.0798  0.0676  0.3154
16796W        W33270   3.427   1.676  11.984  0.2360  0.0731 -0.0660
16797W        W33271   9.193  15.158   5.131  0.5873  0.1482 -0.0839
16798W        W33272   6.658   5.820  12.576 -0.0286  0.2191 -0.1816
16799W        W33273  11.597   9.445   0.805  0.0994  0.2125  0.2597
16800W        W33274  17.699   6.101  10.494 -0.1394 -0.0028 -0.2117
16801W        W33275  18.687   8.195   4.042  0.0979 -0.1515  0.0769
16802W        W33276  17.487   0.792   0.814 -0.0716  0.3236 -0.1270
16803W        W33277   0.673  12.432  14.443  0.1444  0.4027  0.0492
16804W        W33278  15.034   8.465   5.408 -0.2502  0.0657 -0.0710
16805W        W33279   7.176   1.386   1.568  0.3318  0.0507  0.0332
16806W        W33280  19.085  10.687   0.964 -0.1584  0.1358 -0.0671
16807W        W33281  19.039  12.283   0.534 -0.1026 -0.3301 -0.4364
16808W        W33282   0.098  10.572   0.711  0.0575 -0.0276  0.1284
16809W        W33283   7.990   6.600   3.060  0.4291  0.1287  0.1307
16810W        W33284  18.435   8.165   0.901 -0.4152 -0.0698 -0.0055
16811W        W33285   6.910  12.117   1.188 -0.1443 -0.1795  0.2476
16812W        W33286  10.562   2.469   3.871  0.2452 -0.1887  0.0483
16813W        W33287  18.194   7.118  13.836  0.0274 -0.1788 -0.3947
16814W        W33288  18.716  11.481  12.432 -0.0521 -0.1264  0.0557
16815W        W33289  13.532   9.410  10.348 -0.0523 -0.0596  0.2355
16816W        W33290   4.588  13.613  13.446 -0.1165  0.2875  0.0064
16817W        W33291  10.990   1.111   1.801 -0.2053  0.0367  0.0611
16818W        W33292  10.318   3.285  10.867  0.0386 -0.1676 -0.1274
16819W        W33293  17.672   7.468   2.636 -0.1781 -0.0425  0.0346
16820W        W33294   9.727   1.267  12.301 -0.1119 -0.1278 -0.2106
16821W        W33295  10.466   0.992   0.064 -0.1343  0.3460 -0.0724
16822W        W33296  13.755   6.092   5.316  0.1259  0.2137 -0.1704
16823W        W33297   4.126   8.865   3.067  0.1092 -0.2708 -0.1533
16824W        W33298   2.704   7.015   3.836  0.0272  0.0360 -0.1757
16825W        W33299  19.343  17.479  14.625 -0.1347 -0.0693 -0.3155
16826W        W33300  12.489   4.050  10.149  0.3829  0.0441 -0.0290
16827W        W33301  15.707  13.559  11.934  0.1497  0.0595  0.2440
16828W        W33302  15.183  13.488   1.181 -0.0910  0.1310  0.2391
16829W        W33303   4.118   2.000  11.458  0.1302 -0.0875  0.0450
16830W        W33304  12.726   4.849   2.631  0.1978  0.1766  0.0273
16831W        W33305  12.407   7.211  10.975 -0.0760  0.1245  0.3334
16832W        W33306   1.750   4.959   0.668  0.1540 -0.0323 -0.3792
16833W        W33307  12.082  16.199   2.063 -0.2931 -0.0478 -0.2137
16834W        W33308   1.716  18.876  12.628 -0.0026  0.0174  0.0640
16835W        W33309  13.602  13.911  10.556 -0.0353 -0.2577  0.2772
16836W        W33310   4.109  15.118  11.283  0.2953 -0.1405  0.1572
16837W        W33311  14.976  10.402   9.747 -0.1198  0.1379 -0.3552
16838W        W33312  14.533   3.637  14.535 -0.0254  0.4134 -0.0357
16839W        W33313   7.630   8.299   4.339 -0.1443 -0.1116  0.3911
16840W        W33314  13.913   3.731   3.946  0.1354  0.0003  0.1383
16841W        W33315   6.830  14.572   0.531  0.2556 -0.0538  0.0550
16842W        W33316   6.826  13.545  14.060  0.0884  0.4567  0.1466
16843W        W33317   5.719  14.528   5.285 -0.1122 -0.1377 -0.0733
16844W        W33318  11.731   5.409  12.573  0.1543  0.0261 -0.1047
16845W        W33319  18.961   7.109  12.679 -0.1336  0.1605 -0.1574
16846W        W33320   9.775  12.840   2.675  0.1757 -0.2986  0.0848
16847W        W33321  18.054  18.824   3.416 -0.2274  0.0834 -0.0067
16848W        W33322   2.956   8.713  13.984 -0.3596 -0.2211 -0.1363
16849W        W33323   7.844  15.201   3.948  0.1511  0.2520  0.1866
16850W        W33324   8.916  11.499  12.178 -0.2339  0.3482  0.0616
16851W        W33325  10.221   0.911  11.158  0.0551  0.2162 -0.0095
16852W        W33326   2.863   0.081  13.246  0.2331  0.0642  0.6011
16853W        W33327   8.759  17.587  12.125  0.4174  0.1003 -0.0814
16854W        W33328  19.190   8.097  10.106  0.2532  0.1492  0.0337
16855W        W33329  18.229   3.960  10.838 -0.1192 -0.0294  0.3574
16856W        W33330   0.056  16.703  13.670  0.3473  0.3245  0.0524
16857W        W33331  15.535   4.059   3.131  0.0426  0.1231  0.0933
16858W        W33332   1.922   0.351   0.494 -0.4402 -0.4846  0.0737
16859W        W33333   6.764  13.085  11.703 -0.1783  0.3461 -0.1516
16860W        W33334   2.818   2.253   1.079  0.2118 -0.0151  0.0041
16861W        W33335  11.784   7.822   4.634 -0.0515  0.0586 -0.2807
16862W        W33336   0.607   8.038   4.022  0.3399  0.0958 -0.2249
16863W        W33337  10.942  11.322   4.838 -0.1755  0.0907 -0.3620
16864W        W33338  11.730   3.672  11.108  0.3981 -0.1939 -0.0210
16865W        W33339   8.400   5.645  14.075  0.2254  0.0931  0.0074
16866W        W33340   9.886  13.525  10.823 -0.0781 -0.2146 -0.2476
16867W        W33341   7.936   1.267   2.726 -0.1105  0.3061 -0.1517
16868W        W33342  11.259  13.237  14.458 -0.0411  0.1177  0.3707
16869W        W33343  16.808  11.945   3.425 -0.0573 -0.1318 -0.3302
16870W        W33344  14.874  14.083  14.184 -0.4932 -0.3503  0.2165
16871W        W33345  16.919  17.527  13.862  0.0476  0.2136  0.2387
16872W        W33346   9.327  19.486   3.614 -0.1548  0.1453 -0.1610
16873W        W33347  16.368   6.873  11.062 -0.0577  0.0498 -0.4453
16874W        W33348  11.991  17.425  12.157  0.4156  0.0246 -0.0233
16875W        W33349  18.546   0.297   2.584 -0.0332  0.1346  0.0307
16876W        W33350  12.255  12.862   0.344  0.1975  0.4363 -0.0649
16877W        W33351   9.267  18.176   4.190 -0.1067  0.1316 -0.0803
16878W        W33352  17.322  13.358  12.337 -0.1656 -0.2123 -0.0064
16879W        W33353  10.342   1.140   4.902 -0.3445 -0.2830  0.2301
16880W        W33354  17.075  15.982   2.096  0.3746 -0.3167 -0.3700
16881W        W33355  13.743   5.570  11.850  0.1072 -0.0092 -0.0033
16882W        W33356  15.658   1.896   4.955  0.0582 -0.0914  0.4597
16883W        W33357  18.713  12.621   0.416 -0.1279  0.0667 -0.0191
16884W        W33358  10.885  19.056   0.895 -0.0412 -0.1622  0.1061
16885W        W33359   0.907  11.836  13.600  0.4224  0.3523 -0.1588
16886W        W33360   7.791  17.780   3.090  0.2385  0.1539 -0.0177
16887W        W33361   3.176  10.879  11.397  0.0379 -0.0356 -0.0912
16888W        W33362   3.658  12.947  14.177  0.0403  0.0149 -0.0073
16889W        W33363   6.796   4.389  12.459 -0.0924 -0.0589 -0.1905
16890W        W33364  10.599  11.831  13.285  0.2316  0.0708 -0.0209
16891W        W33365   9.288  18.888   1.806  0.0286  0.1174  0.2604
16892W        W33366   6.312  12.298  12.789  0.0836 -0.0644  0.4154
16893W        W33367  12.400   5.884  13.080  0.1154  0.1216  0.0552
16894W        W33368   2.495  10.242  11.724  0.0590 -0.1794 -0.2401
16895W        W33369  13.527  19.138   3.860 -0.2502  0.0234 -0.2720
16896W        W33370  18.214   4.387   4.903 -0.1915  0.2774  0.1627
16897W        W33371  10.515   7.039  10.530 -0.6087  0.0671 -0.0572
16898W        W33372   5.795  19.265   1.484  0.4915 -0.0132  0.0618
16899W        W33373   6.960   5.449   5.695  0.0213 -0.1938  0.0667
16900W        W33374   0.340   8.820  12.177  0.1331 -0.1056  0.0349
16901W        W33375  18.624  12.755  11.290 -0.0794  0.0765 -0.1459
16902W        W33376  16.769  14.356  14.301 -0.1471  0.1992 -0.0472
16903W        W33377  16.595   6.688   3.252  0.1841 -0.0437 -0.0556
16904W        W33378  10.364   6.493   1.217  0.1924  0.2403 -0.1548
16905W        W33379   6.295   8.147   4.480  0.3391 -0.0058  0.1287
16906W        W33380  15.162  13.005   3.144  0.2922 -0.0185 -0.0266
16907W        W33381  17.483  13.833  11.210  0.0501 -0.0013  0.0103
16908W        W33382  19.590  16.326  14.649 -0.0276  0.0354 -0.0678
16909W        W33383  17.088  15.859  12.906  0.0807  0.0214  0.0420
16910W        W33384  16.938  17.913   1.539  0.1142  0.1519 -0.1036
16911W        W33385   6.477  18.146  10.378 -0.3486  0.1172 -0.2105
16912W        W33386   9.329   9.273   1.295  0.0612  0.0592  0.0746
16913W        W33387   6.977   8.534  11.943 -0.4379  0.0026  0.0031
16914W        W33388  10.587  19.280   2.947  0.3050 -0.1215  0.3742
16915W        W33389  11.808   8.351   4.313 -0.0738 -0.2955 -0.1118
16916W        W33390  16.930  10.963  12.212 -0.2201  0.0088 -0.4176
16917W        W33391  17.398   3.911  13.567 -0.0491  0.0459  0.3628
16918W        W33392  17.334  10.601   0.487 -0.1329 -0.2283  0.1723
16919W        W33393   2.787   2.067  12.165 -0.1801 -0.0865 -0.0629
16920W        W33394  14.992   1.446   3.706 -0.0188 -0.1611  0.0216
16921W        W33395   9.186  17.231   1.376 -0.1545 -0.0286  0.3507
16922W        W33396   5.513   1.725   0.330  0.3111  0.0663 -0.1761
16923W        W33397   0.067   3.603   3.920  0.2831 -0.2145 -0.1373
16924W        W33398  15.326   0.032  12.648  0.0031 -0.0361  0.2866
16925W        W33399   8.639  17.107   4.804 -0.3296  0.1164 -0.0837
16926W        W33400   5.804  16.446  12.785 -0.1186 -0.1054 -0.0542
16927W        W33401  13.484  19.229  11.995  0.0784 -0.0953  0.1385
16928W        W33402   5.576   9.572  12.408 -0.2889 -0.0210 -0.1569
16929W        W33403   0.920   4.045  13.109 -0.0801 -0.0646 -0.1829
16930W        W33404   2.711   0.880  12.492  0.0360 -0.3485 -0.4293
16931W        W33405   4.681   8.037   2.564  0.0199  0.2352 -0.2529
16932W        W33406  12.483   8.758   1.965  0.2246  0.1730  0.2688
16933W        W33407  13.187   2.610  10.620  0.1381 -0.2101 -0.2601
16934W        W33408   7.500  15.004   1.711  0.0149  0.0398  0.2860
16935W        W33409   2.908  18.925   2.923  0.0777  0.1827  0.1885
16936W        W33410   8.299  17.790   5.308 -0.0969 -0.0019 -0.0970
16937W        W33411  15.926  19.054  10.475  0.0296 -0.0166  0.2805
16938W        W33412  18.555   7.215   2.986 -0.2250  0.0377 -0.0507
16939W        W33413   6.208  19.375   1.139  0.3720  0.2595 -0.0475
16940W        W33414   3.986   1.153  14.012  0.0509 -0.3653  0.0456
16941W        W33415   2.010   7.661   4.013 -0.1213 -0.0288  0.1230
16942W        W33416   5.567  17.942  13.589  0.2948  0.2645  0.1436
16943W        W33417   7.258  11.157  12.763  0.3066 -0.3980  0.3192
16944W        W33418  15.791   0.980   1.193 -0.1781 -0.1046 -0.1844
16945W        W33419   5.311  17.963  13.029 -0.2042 -0.0108 -0.0225
16946W        W33420  13.774   2.422   3.787  0.2927 -0.1426 -0.0015
16947W        W33421  18.343   4.179   1.472  0.0385  0.2213  0.1046
16948W        W33422  18.774   1.259  14.062  0.2120  0.0536 -0.0773
16949W        W33423  13.361   9.226   0.723  0.0459  0.0401  0.1047
16950W        W33424  16.801   4.405   3.595  0.0471 -0.2175 -0.3927
16951W        W33425   8.839  11.737   2.508 -0.1281 -0.2832 -0.1516
16952W        W33426  17.269  19.368   3.607  0.1226  0.0711 -0.0841
16953W        W33427  14.494   8.128  12.166 -0.5256  0.0498 -0.0235
16954W        W33428   9.653  14.704  11.983 -0.0214 -0.2988  0.1085
16955W        W33429   3.291   3.174  10.855 -0.0130  0.0072 -0.2795
16956W        W33430   5.995   3.302   0.445  0.2462 -0.2366 -0.0042
16957W        W33431  17.562  15.205   0.950 -0.1497  0.0510 -0.1947
16958W        W33432   2.478   8.303   4.977 -0.3279 -0.0142  0.0790
16959W        W33433  14.476   3.554   5.254  0.0218  0.1610  0.2930
16960W        W33434   1.114  14.335  14.535 -0.1254  0.1370 -0.0828
16961W        W33435   8.420  12.504  14.342 -0.2983  0.2875 -0.0198
16962W        W33436   6.366   8.565  12.952  0.1115  0.2043  0.0882
16963W        W33437   6.068   0.670   9.657  0.0795  0.4216 -0.3179
16964W        W33438   0.947  10.365   4.801  0.2257  0.2427  0.5456
16965W        W33439   9.374  12.432  11.043  0.0194  0.1690 -0.0831
16966W        W33440  10.078  14.543   3.751  0.3850  0.1298  0.0033
16967W        W33441   9.378   8.735  10.951  0.0431  0.0600  0.1693
16968W        W33442   3.417  12.176  10.769 -0.0115  0.1214 -0.3574
16969W        W33443  15.715   3.323  13.595  0.0509  0.0838 -0.3454
16970W        W33444   5.606   8.122  13.357 -0.1467  0.0289  0.0569
16971W        W33445   8.818  18.337   1.077 -0.1577 -0.0699  0.0444
16972W        W33446   1.237  16.382  12.038  0.1798  0.1526 -0.0993
16973W        W33447   4.765  15.697  13.665  0.0860  0.0993  0.1043
16974W        W33448   2.836   2.750   2.831  0.0830  0.0881 -0.0095
16975W        W33449   4.544  18.780   2.673 -0.0784 -0.1411  0.1121
16976W        W33450  13.587   8.942   1.065 -0.1405  0.2875  0.1325
16977W        W33451  15.933   3.018   5.410 -0.0644 -0.1025  0.1053
16978W        W33452   4.966  16.828   3.037  0.3959  0.3889 -0.0075
16979W        W33453   5.590  19.262   4.618  0.1767  0.0171 -0.0482
16980W        W33454  16.597  10.188   2.939 -0.3654 -0.0852 -0.0941
16981W        W33455  11.351   0.023   3.869 -0.1039  0.0881  0.3982
16982W        W33456   0.289   4.777  12.650  0.0596  0.0753 -0.0856
16983W        W33457  17.621   5.252  12.937  0.0012  0.0503 -0.0138
16984W        W33458   5.248   5.454  13.222  0.0559 -0.0091  0.0900
16985W        W33459  12.315   8.059  14.039 -0.0898 -0.1382 -0.0603
16986W        W33460  19.464   5.368   3.098 -0.4254  0.2026 -0.2231
16987W        W33461   9.948   4.557   3.729  0.2262  0.0722 -0.3038
16988W        W33462   1.225   7.162  11.445 -0.2399  0.1645 -0.1040
16989W        W33463  12.963  11.834   2.229 -0.2986 -0.1744  0.0018
16990W        W33464  18.618  18.951  10.850  0.0970 -0.2168 -0.0525
16991W        W33465  18.259  12.639   0.650 -0.1178 -0.3999  0.0105
16992W        W33466   1.069  13.226  12.102 -0.2010  0.0621 -0.0452
16993W        W33467   1.733   3.368  11.269 -0.0772  0.0944  0.3212
16994W        W33468  16.687  10.257  13.402  0.0088  0.1012  0.1288
16995W        W33469  11.645   8.670  10.141  0.2205  0.2535  0.1784
16996W        W33470  12.840  17.727   5.704  0.2845 -0.1235 -0.0977
16997W        W33471   8.191   3.101   0.365 -0.1099 -0.1723 -0.1330
16998W        W33472   7.507   7.205  13.331  0.0760 -0.2334 -0.0187
16999W        W33473   3.122   4.766   1.959 -0.0791  0.3057  0.0273
17000W        W33474   0.568  13.867   3.625  0.2603  0.0154  0.0189
17001W        W33475   6.491  14.490   2.672  0.0702  0.0268 -0.2165
17002W        W33476  17.026   6.376   2.251  0.0970  0.0679 -0.0409
17003W        W33477  16.087   4.221   0.390  0.1198  0.1354 -0.0340
17004W        W33478   6.014  17.673   3.797 -0.2596 -0.5371  0.1062
17005W        W33479  15.203   0.069   2.083 -0.1755  0.1745  0.0279
17006W        W33480   5.551  19.138   2.452 -0.1180 -0.1600  0.1628
17007W        W33481  16.880  18.877   1.896  0.0796  0.5308  0.1926
17008W        W33482   6.239  11.888   4.560 -0.0335  0.0430  0.1976
17009W        W33483  15.803  18.851   3.776 -0.0189  0.0220 -0.2167
17010W        W33484   2.909  18.223   0.804  0.1513 -0.3212  0.2528
17011W        W33485  11.060  11.090  10.410 -0.3815 -0.1274 -0.1247
17012W        W33486  12.419  17.260   3.873  0.0777  0.2064  0.1576
17013W        W33487  15.198  15.103   1.756  0.0280 -0.1214 -0.0945
17014W        W33488   3.676  10.939   1.725 -0.0154  0.0975 -0.0935
17015W        W33489   0.997  14.981   1.287 -0.0333 -0.3843  0.4912
17016W        W33490   5.704  17.474  13.803  0.0405 -0.0464  0.0390
17017W        W33491   0.034  11.801   3.971 -0.1980 -0.0558  0.1979
17018W        W33492  17.275  16.707  12.318 -0.1084 -0.2254  0.2372
17019W        W33493   1.730  13.788  11.194  0.2761  0.0556 -0.0034
17020W        W33494  16.024   4.908  11.566 -0.2281 -0.1372  0.0104
17021W        W33495  16.879   6.019  12.762 -0.4463 -0.0752  0.1023
17022W        W33496  17.703  17.644  12.696 -0.4091  0.1593 -0.6593
17023W        W33497   9.153   9.059  13.964  0.2351 -0.0064 -0.0365
17024W        W33498   5.611  11.261   4.925  0.0287  0.0714 -0.0810
17025W        W33499   3.079  14.134  11.507 -0.0119  0.1658 -0.0394
17026W        W33500  15.127  16.435  13.806  0.0884  0.1557  0.1782
17027W        W33501  12.683   5.325   2.487  0.1966 -0.2217  0.1673
17028W        W33502  13.989  13.687   5.354  0.1891  0.0395  0.1975
17029W        W33503   0.279   9.957  10.147 -0.0246  0.5924  0.1627
17030W        W33504   8.152   5.155   1.345  0.3189  0.1267 -0.3025
17031W        W33505  17.977   8.467   2.325  0.0151  0.0868 -0.1099
17032W        W33506  11.873   1.413  11.638  0.0207 -0.0791  0.5299
17033W        W33507   5.414   4.035   4.772 -0.0671  0.0177 -0.0294
17034W        W33508   9.892   0.288   2.774 -0.0407 -0.0629  0.2396
17035W        W33509  11.371   2.173   5.092  0.2054 -0.2472  0.4906
17036W        W33510  16.836  10.896   4.387 -0.0077  0.1091  0.1297
17037W        W33511   3.971  10.721  10.336  0.0326 -0.3853  0.0652
17038W        W33512  10.956   1.846  10.572  0.1225  0.0775 -0.0758
17039W        W33513   2.751   9.926  13.476  0.0883  0.0596  0.0500
17040W        W33514  16.907   0.014  11.188  0.3216  0.2361  0.0149
17041W        W33515   6.974  16.079   4.681 -0.1562 -0.0063 -0.5176
17042W        W33516  14.164   3.655  13.738  0.1193  0.2635  0.1446
17043W        W33517   6.768  13.583  12.560  0.1004 -0.0417 -0.4194
17044W        W33518  16.645   2.675  10.543  0.2950  0.0650 -0.1209
17045W        W33519   4.219   3.519   9.009  0.0291 -0.0449  0.1744
17046W        W33520   7.626   6.746   2.656  0.0592  0.0115  0.3573
17047W        W33521   4.252   6.532  12.079 -0.1595 -0.3063  0.1261
17048W        W33522  18.298   3.671   3.469 -0.1230  0.3545  0.0169
17049W        W33523  17.548  11.127   3.425  0.1163 -0.0251 -0.0149
17050W        W33524   6.220   0.524   4.433  0.0865  0.0459 -0.1098
17051W        W33525  16.960   8.085   1.949 -0.2227  0.0771 -0.1612
17052W        W33526   8.042   1.674  13.087  0.2192 -0.3239  0.2366
17053W        W33527   7.823   9.178  12.656 -0.0990  0.1507 -0.1314
17054W        W33528  15.572   3.525   2.402 -0.1706  0.1588 -0.3387
17055W        W33529  18.950  15.760   1.102 -0.3443  0.1536 -0.0958
17056W        W33530   9.626   0.841   1.277  0.3039  0.1140  0.1631
17057W        W33531   5.777  15.911   2.592 -0.1141  0.1330  0.2056
17058W        W33532   3.322  14.994  12.791 -0.1133 -0.0614  0.1966
17059W        W33533  10.763  17.969   0.665  0.1782 -0.6160 -0.2762
17060W        W33534   3.090  13.643  11.046 -0.0698 -0.2969  0.2758
17061W        W33535   4.349   2.967   2.630  0.0873  0.2595  0.0640
17062W        W33536  10.366  12.036   1.974 -0.1491  0.0813  0.1938
17063W        W33537   3.515   5.903   4.762  0.2404  0.4621 -0.1197
17064W        W33538  13.521  15.990   5.652  0.0935  0.2636 -0.2844
17065W        W33539   4.803   7.604  10.835 -0.0105  0.1476 -0.5256
17066W        W33540   9.599   5.897   2.876 -0.1948  0.1587  0.0082
17067W        W33541   9.803   1.188   3.988  0.3182 -0.0637  0.2029
17068W        W33542   5.449   9.744   2.189 -0.1041 -0.0444  0.3406
17069W        W33543  13.274  19.464   3.092  0.2445  0.2177 -0.0014
17070W        W33544   0.955   7.630  12.790 -0.0559  0.3343  0.1831
17071W        W33545   8.688  11.358  11.203  0.0217  0.1840  0.5550
17072W        W33546  14.076   1.782   1.421 -0.2824 -0.1446 -0.0011
17073W        W33547   6.615   5.078  11.488  0.2197 -0.0233  0.0110
17074W        W33548  10.047   6.405   3.525  0.2542  0.1511  0.3428
17075W        W33549  15.601   4.883  11.256 -0.0204 -0.0377  0.4885
17076W        W33550  16.067   7.473   3.042  0.6220  0.0370 -0.1102
17077W        W33551  16.264  15.678   5.598  0.3201  0.1131  0.5413
17078W        W33552   8.550   1.035   0.018  0.1282  0.0610 -0.2169
17079W        W33553   1.161  10.026  10.634  0.1449 -0.0441  0.0349
17080W        W33554  12.655   7.642  10.761  0.3307  0.3701  0.0441
17081W        W33555  13.936   8.023  14.461 -0.0326  0.4770  0.1068
17082W        W33556   8.025   7.641   1.635 -0.2686  0.2263  0.1493
17083W        W33557   5.993   5.519   2.210 -0.0786  0.2249  0.0661
17084W        W33558   5.141   7.793   0.827 -0.0037 -0.0054  0.1210
17085W        W33559   6.701  15.272  14.397 -0.0888 -0.0723 -0.0383
17086W        W33560  14.006  11.777   4.326 -0.3306  0.2405  0.0845
17087W        W33561  15.667  16.599   1.346 -0.3778 -0.1025 -0.2342
17088W        W33562  19.353  13.758   0.898 -0.0144  0.1900  0.0871
17089W        W33563  15.895  18.486   3.369 -0.1970 -0.1079  0.1800
17090W        W33564  16.091   1.576   1.775 -0.2840  0.2758  0.0558
17091W        W33565  12.100  17.044  12.870 -0.2127  0.0968 -0.0808
17092W        W33566  18.134  16.703  12.617 -0.0615 -0.1855  0.0745
17093W        W33567  14.990   6.864  12.396  0.1393 -0.2377 -0.0173
17094W        W33568   9.612  15.165  14.523  0.1307 -0.1077  0.0624
17095W        W33569  19.133  15.140  11.826  0.0291 -0.0812  0.1463
17096W        W33570   4.415  18.652   3.893 -0.1184  0.0412 -0.1022
17097W        W33571   4.000   8.804  13.670 -0.2468  0.2779 -0.0289
17098W        W33572   7.033   2.700  11.434 -0.0682 -0.0387  0.4393
17099W        W33573   1.686  18.115   0.167 -0.1666 -0.2253  0.0261
17100W        W33574  15.705  19.400   4.573 -0.0162 -0.2280  0.1478
17101W        W33575  11.323  17.796   1.332  0.1733  0.1283  0.3988
17102W        W33576   1.639  14.982  12.043 -0.1909 -0.1328 -0.0732
17103W        W33577   2.731  13.507  12.111 -0.0423 -0.1669  0.0113
17104W        W33578   4.486   0.407   1.222  0.1084  0.0711  0.0826
17105W        W33579  15.939  16.732   2.431 -0.1052  0.1797 -0.0158
17106W        W33580  10.095   3.204   0.844 -0.2785 -0.1862  0.0373
17107W        W33581   6.425  12.328  10.626  0.1519 -0.2937  0.1793
17108W        W33582   5.064  18.485   0.389  0.0127 -0.0883  0.1209
17109W        W33583   8.091  17.805  11.558 -0.0141 -0.3363  0.1349
17110W        W33584  19.576  15.544   1.814 -0.0516 -0.4094 -0.1367
17111W        W33585   2.538   4.306   4.056  0.1371 -0.2466 -0.0935
17112W        W33586   8.428   4.368  14.326 -0.0369 -0.0525 -0.1367
17113W        W33587   2.242  10.312   2.500  0.1204  0.0272 -0.1067
17114W        W33588  10.729  16.228   1.801  0.0430 -0.0764  0.3122
17115W        W33589  11.847  13.605   1.898  0.2016 -0.1563 -0.0614
17116W        W33590   3.839  19.526  14.485 -0.1018 -0.2513 -0.1127
17117W        W33591  12.716   2.764  10.645  0.1329 -0.5601  0.1029
17118W        W33592  16.387   1.831   2.081 -0.2847 -0.0052  0.1107
17119W        W33593   2.327  13.256  13.081  0.0664 -0.0589  0.1036
17120W        W33594   2.317  18.048   9.486  0.0197  0.0767  0.0712
17121W        W33595   5.893  12.697   4.552  0.0232 -0.0499  0.0632
17122W        W33596  15.622  11.790  12.558 -0.1743 -0.1726 -0.0928
17123W        W33597  14.161  17.514  13.512 -0.0845 -0.3204  0.1221
17124W        W33598   7.229   2.708   5.125 -0.0218 -0.0126 -0.0182
17125W        W33599  12.131   5.907   1.709  0.2412 -0.1656 -0.0936
17126W        W33600   0.761   2.607   1.615  0.0005 -0.0156 -0.2395
17127W        W33601  11.002   1.387  14.495  0.0514 -0.3885 -0.1292
17128W        W33602  16.078   6.724   3.375 -0.2209  0.0559 -0.1593
17129W        W33603   8.647   5.262  10.286  0.0158  0.4515  0.2356
17130W        W33604   6.139  15.330   0.076 -0.3123  0.0186  0.1032
17131W        W33605   1.494  11.238   3.388 -0.1106 -0.2563 -0.1023
17132W        W33606   6.059   3.478   2.502  0.0033 -0.2007  0.1247
17133W        W33607   4.406   5.328   3.565  0.3890 -0.2537 -0.1902
17134W        W33608  19.245  11.230  10.033  0.0190 -0.0871  0.0474
17135W        W33609   7.851  10.101   3.430 -0.1251  0.2629  0.0576
17136W        W33610  14.079   2.674   0.048  0.0831  0.3051 -0.1717
17137W        W33611   7.533   6.402  10.225 -0.0845  0.3055  0.2155
17138W        W33612  17.509   1.116   4.349  0.2511  0.0917 -0.3358
17139W        W33613  19.145  15.011   4.543 -0.0840  0.0886 -0.0266
17140W        W33614  13.219   3.693  13.181  0.3814 -0.2634  0.1972
17141W        W33615  10.479  15.606  14.427  0.1226 -0.0423 -0.1025
17142W        W33616   5.960   2.008   0.188 -0.1098  0.0675  0.0494
17143W        W33617  13.924  16.056  13.179  0.1974 -0.1095 -0.1708
17144W        W33618   9.472   6.259   1.102 -0.1504 -0.0094  0.0032
17145W        W33619   2.861   7.909   0.777 -0.1679 -0.2316 -0.1670
17146W        W33620   2.496  15.153  13.059  0.3044 -0.1316  0.0369
17147W        W33621  15.437  18.619   3.261 -0.0741 -0.0967 -0.8150
17148W        W33622   0.632  15.023   9.526 -0.0186 -0.1575  0.0391
17149W        W33623   0.386  17.470   0.813 -0.1808 -0.1999 -0.1905
17150W        W33624   4.547  13.904   1.856 -0.4013 -0.2242  0.1326
17151W        W33625   0.065  10.070   2.700  0.3197 -0.1168 -0.0190
17152W        W33626   0.081   3.968  10.865 -0.1866  0.1174  0.0928
17153W        W33627  11.274  10.820   1.390 -0.1811  0.3134  0.4596
17154W        W33628   8.595   3.302  10.128  0.3610 -0.0013  0.0646
17155W        W33629  13.335  15.841   0.138 -0.2250  0.0707 -0.0850
17156W        W33630   6.822  10.627  11.187 -0.0443  0.0199  0.0381
17157W        W33631   8.101   8.686   1.697 -0.1731  0.2838  0.0875
17158W        W33632   8.601   9.193   0.811  0.1320  0.3660 -0.3290
17159W        W33633   4.598  14.273  11.478 -0.1390  0.0452  0.4119
17160W        W33634   0.140  10.871   2.786 -0.0511  0.1564 -0.1387
17161W        W33635   1.028   5.959   0.192 -0.2074 -0.0885 -0.0658
17162W        W33636   2.693   3.292  14.243  0.1353 -0.0294 -0.0290
17163W        W33637  15.118   4.365  14.342 -0.3257  0.3810 -0.2773
17164W        W33638  14.309   1.452   1.782  0.6094  0.0407  0.0641
17165W        W33639  14.624   5.591   3.750 -0.0593  0.0656 -0.0428
17166W        W33640   1.251   7.339   2.933  0.0033 -0.1680  0.0340
17167W        W33641  12.792  18.505  14.424  0.0081 -0.1019 -0.2517
17168W        W33642  18.644   7.074   1.989  0.1354  0.0203  0.2201
17169W        W33643  14.391  10.446   2.260 -0.1639  0.1932  0.0421
17170W        W33644   4.302   0.924   1.356 -0.0330 -0.0641 -0.2039
17171W        W33645  17.781   4.704   3.141 -0.1473 -0.0288 -0.0689
17172W        W33646   5.270  10.530  14.515  0.2753  0.1997  0.1769
17173W        W33647   9.156  16.962   4.006  0.3048 -0.0308  0.1013
17174W        W33648   1.476   9.807  13.857  0.2289 -0.4546  0.0274
17175W        W33649  19.246   2.874   3.288 -0.2609 -0.1962 -0.0968
17176W        W33650  11.183  19.103  11.880 -0.1540 -0.0915 -0.0137
17177W        W33651   9.932  18.206  12.631  0.3879 -0.1544 -0.1403
17178W        W33652  14.479   6.480   3.308  0.3920 -0.3508 -0.0223
17179W        W33653   8.436   5.914   2.751 -0.0478  0.1965  0.0871
17180W        W33654   7.578  10.482   3.205  0.2827 -0.1156  0.2487
17181W        W33655  19.227   9.789   5.280 -0.2118 -0.2111 -0.0536
17182W        W33656  10.407  13.747   2.480  0.1237 -0.1779 -0.0969
17183W        W33657   4.755   2.869   0.753 -0.1769 -0.2526  0.0445
17184W        W33658   3.805  11.471   0.037 -0.1193  0.1108  0.0609
17185W        W33659  13.929   6.248  10.284  0.1353  0.1168  0.3011
17186W        W33660  13.858   9.711   5.508  0.2708 -0.0864 -0.1382
17187W        W33661   5.676   7.825   4.664 -0.3217 -0.0375  0.3717
17188W        W33662  14.339  16.820  13.041  0.0951 -0.0560  0.0922
17189W        W33663  16.063  15.174  12.456  0.1189  0.1398  0.0244
17190W        W33664   0.621  17.082   3.387 -0.1330 -0.0937 -0.1815
17191W        W33665   3.143   3.757   3.491  0.1103 -0.0244 -0.0176
17192W        W33666   7.764  15.936   0.674 -0.1060 -0.3608  0.0751
17193W        W33667   0.090  15.245   0.949 -0.0684  0.1325  0.0490
17194W        W33668  11.850   4.923  11.640  0.5831  0.1369  0.0990
17195W        W33669  17.035   6.284   4.708 -0.0128  0.4171  0.1687
17196W        W33670   6.113   3.486   4.302 -0.1664 -0.0762  0.2095
17197W        W33671   2.392  17.776  14.587  0.0669 -0.0990  0.3297
17198W        W33672  12.812   5.167  14.610 -0.2738 -0.0293 -0.3431
17199W        W33673  10.196  13.659   3.746  0.0186  0.3447  0.0190
17200W        W33674  13.853   0.807   3.499 -0.2220 -0.1016  0.0218
17201W        W33675   5.405  10.028   0.576 -0.3326 -0.1292 -0.0369
17202W        W33676  11.774  11.714   4.623 -0.2895 -0.0039 -0.0521
17203W        W33677   2.842   0.174   2.458  0.3373  0.1162 -0.0904
17204W        W33678  15.503   3.316  11.700 -0.2189 -0.4819  0.1995
17205W        W33679  18.433  18.644  13.415 -0.1077  0.0482  0.0824
17206W        W33680  17.437   0.251   3.625  0.0641  0.2006  0.0423
17207W        W33681   3.324   0.769   4.997 -0.0452  0.2542 -0.0665
17208W        W33682   3.855   0.326   1.965 -0.3151  0.3013  0.2458
17209W        W33683  12.113   8.709   1.280 -0.1822 -0.3544 -0.3022
17210W        W33684  14.025   4.687   1.097  0.0089  0.4034  0.0835
17211W        W33685   9.892  16.587  11.110 -0.3648  0.0868 -0.1812
17212W        W33686   1.217   0.043   5.460 -0.3690 -0.2210 -0.0173
17213W        W33687  11.106   9.731  11.794  0.0023  0.1089  0.3864
17214W        W33688  16.319   1.595   3.363  0.0524  0.1570  0.1770
17215W        W33689  16.531  10.087   0.735 -0.2527 -0.0281  0.1007
17216W        W33690   3.969  16.392  10.794  0.0349  0.1925 -0.1016
17217W        W33691  17.806  18.265   1.451 -0.0600  0.5291  0.2046
17218W        W33692  14.844   3.588   0.798  0.1729  0.0480  0.1327
17219W        W33693  19.524  13.610  10.169  0.2962 -0.0386 -0.0800
17220W        W33694   9.637  18.936  12.059  0.0276  0.1202  0.2563
17221W        W33695  10.906  17.497   2.761  0.1919  0.1296  0.4290
17222W        W33696   6.003   6.400   0.196 -0.0527  0.0402 -0.1050
17223W        W33697   4.296  14.535   4.115  0.4986 -0.0756 -0.1076
17224W        W33698  17.690   2.268   0.910 -0.0962  0.0777 -0.0137
17225W        W33699  11.531  13.278   3.009  0.0089 -0.1500 -0.3724
17226W        W33700  19.059  11.585  14.169 -0.0969 -0.1788  0.0646
17227W        W33701  18.818  14.826  12.384  0.0843  0.3843 -0.1673
17228W        W33702   7.094   8.120  13.688  0.1596  0.1837 -0.0256
17229W        W33703  17.026   5.138   4.480 -0.1263  0.1416 -0.2807
17230W        W33704  16.479  10.429   1.094 -0.3133  0.0587 -0.1538
17231W        W33705   5.798  14.340  13.386  0.2015 -0.2332  0.0981
17232W        W33706   7.609   7.711   5.215  0.0302 -0.2217  0.0033
17233W        W33707  15.802  12.504   1.869 -0.0453 -0.1798  0.1395
17234W        W33708   4.235  18.328  12.092  0.2755  0.0507  0.2959
17235W        W33709   2.631  13.953  13.912 -0.0554  0.1510  0.1676
17236W        W33710  10.655  15.458  11.171  0.3523 -0.2449  0.2379
17237W        W33711   7.370  13.082   0.176 -0.0254 -0.1237  0.2457
17238W        W33712  13.870  13.420  13.841 -0.2423  0.0552  0.2979
17239W        W33713  16.089   6.390   4.307  0.0451  0.0561 -0.0830
17240W        W33714  12.512  10.343  12.531  0.1726  0.0301  0.0798
17241W        W33715   4.743  14.659   4.297  0.2270  0.2907 -0.0233
17242W        W33716   7.784   9.996   1.810  0.3350  0.2053 -0.2318
17243W        W33717  12.756  17.931   4.700  0.2560  0.1510 -0.1328
17244W        W33718   9.427   6.148  12.118  0.0881 -0.2948  0.1682
17245W        W33719   4.908   7.082   2.314  0.0651  0.2157  0.2839
17246W        W33720   0.061   9.254  12.963  0.1208 -0.1657 -0.1807
17247W        W33721   8.679  12.002   3.931  0.0315  0.0094  0.0426
17248W        W33722  17.539   1.650  14.598 -0.1521 -0.3591  0.1721
17249W        W33723   5.491   5.641   5.042 -0.0742 -0.3435  0.0121
17250W        W33724   0.323   3.615  13.363 -0.4382 -0.4300 -0.0143
17251W        W33725   4.479   9.016   1.760  0.0651 -0.0458  0.0806
17252W        W33726   5.213  16.031  13.492  0.2884  0.0200  0.1417
17253W        W33727   8.165   6.418  10.038  0.0929 -0.1306  0.4350
17254W        W33728  17.191  16.125   2.573 -0.4252  0.2964 -0.1441
17255W        W33729   0.182  13.451   3.768 -0.1440 -0.3226 -0.1641
17256W        W33730   7.964  16.248  11.630  0.1910  0.1050 -0.1369
17257W        W33731   0.077  18.687   0.328 -0.1730  0.0873 -0.4065
17258W        W33732  15.418  17.488   0.824  0.0606  0.2710  0.2048
17259W        W33733  15.478  17.169  11.896 -0.0727  0.0496 -0.1013
17260W        W33734  18.320  15.212  11.284  0.0389 -0.0420  0.1339
17261W        W33735   5.688   7.227  13.677  0.0514 -0.0290 -0.2500
17262W        W33736   6.740   6.139  10.708 -0.3318  0.1375  0.1548
17263W        W33737  17.475   5.594   3.168 -0.1219 -0.1086 -0.0445
17264W        W33738  13.246   0.674   2.374 -0.3697 -0.1824  0.2489
17265W        W33739  13.836   9.858  13.606  0.1654  0.0157  0.0214
17266W        W33740   3.980  18.837   2.876 -0.1072 -0.1832  0.1066
17267W        W33741   9.172  11.240   2.257 -0.0930 -0.1289  0.0533
17268W        W33742  17.902   6.511   4.993 -0.0957 -0.1135  0.1156
17269W        W33743  12.535   3.343   3.128  0.1255  0.0922 -0.1373
17270W        W33744   0.957  13.398   0.069 -0.0747  0.0830  0.0079
17271W        W33745  17.360   7.312   1.095  0.1756 -0.4237  0.0545
17272W        W33746  15.749   1.747   9.759  0.0260 -0.1273 -0.1414
17273W        W33747  10.175   2.214   9.947 -0.1424 -0.2618  0.1109
17274W        W33748   7.321   9.184   0.455 -0.0049  0.2787 -0.6035
17275W        W33749  14.184   3.556   3.561  0.2037  0.1429  0.0506
17276W        W33750   2.924  17.346   0.563  0.1711 -0.1920  0.0550
17277W        W33751   0.257  14.888  12.054  0.3203  0.0794 -0.0416
17278W        W33752   8.795   0.975   3.266  0.0353 -0.1458 -0.5652
17279W        W33753  11.687  11.264   1.562 -0.2622 -0.3797 -0.1493
17280W        W33754  11.561   8.169  12.815  0.2957  0.0305  0.3790
17281W        W33755  12.115   5.823   2.763 -0.0776  0.1141  0.0047
17282W        W33756   3.891   0.297   3.591  0.2533  0.1219 -0.2247
17283W        W33757   8.302   0.055   5.045 -0.0679  0.0218  0.1817
17284W        W33758   5.846   5.411   3.467 -0.0773 -0.1818  0.0109
17285W        W33759  14.045  10.130   1.924  0.0238 -0.3221  0.2535
17286W        W33760  17.931  17.273  12.594 -0.1150  0.0628  0.0649
17287W        W33761  14.855  18.368  13.746  0.1030 -0.3425  0.2381
17288W        W33762  17.008   1.794  12.886  0.0225 -0.4566  0.2769
17289W        W33763  12.682  17.234   2.899 -0.0827 -0.0618 -0.1516
17290W        W33764  13.568  15.375   3.095 -0.3749  0.1414 -0.0627
17291W        W33765   1.981   1.755   9.218 -0.0793  0.1505  0.1818
17292W        W33766  12.438   5.096   4.253 -0.3133  0.0658 -0.1032
17293W        W33767   6.042   5.351  10.410  0.2190 -0.1612 -0.1601
17294W        W33768   9.088   5.360  10.479 -0.0386 -0.0318  0.0834
17295W        W33769  19.367   5.625   9.927 -0.1369 -0.1127  0.0746
17296W        W33770   0.859   4.790   9.170 -0.0549  0.1019  0.1479
17297W        W33771   4.002   0.334  12.771 -0.1017  0.2327  0.3453
17298W        W33772  15.547   8.791   0.097 -0.0273  0.3671 -0.0266
17299W        W33773  16.893   5.525  12.512  0.1850  0.1855  0.2191
17300W        W33774   9.211   3.763   0.040  0.0912 -0.2027 -0.1916
17301W        W33775   1.710   3.785  12.875  0.2074 -0.0432 -0.0539
17302W        W33776  10.070   3.849  14.643 -0.0036  0.2870 -0.1942
17303W        W33777   1.125  16.113  13.847 -0.0924  0.0528 -0.2802
17304W        W33778  18.084   3.683   1.911  0.0857  0.0964  0.0021
17305W        W33779  18.831  18.130  12.535 -0.2891 -0.1611  0.2137
17306W        W33780   4.525  10.494   0.486  0.0293  0.2294  0.2711
17307W        W33781   7.515   8.913   4.370  0.2961 -0.0517 -0.0038
17308W        W33782  16.277  13.592   2.622  0.3644 -0.1613  0.0832
17309W        W33783   5.149  16.093  12.019  0.1666  0.2095  0.1311
17310W        W33784  15.324   1.765  11.333  0.0091  0.0983 -0.0065
17311W        W33785   3.476  13.486   1.205  0.3464 -0.3293  0.1700
17312W        W33786  10.017   7.460  13.315  0.1561  0.0652  0.3213
17313W        W33787   0.918   2.713   3.166  0.1754 -0.1882  0.0842
17314W        W33788  13.505   3.898   3.027  0.1098  0.1920 -0.0239
17315W        W33789   7.872   2.539  12.564 -0.1123 -0.1728 -0.0214
17316W        W33790  11.505   3.386  11.546 -0.0122 -0.1857  0.2195
17317W        W33791  12.031   6.328  11.019  0.1266 -0.0770 -0.3089
17318W        W33792   7.618  12.994   4.637  0.2917 -0.0005 -0.5298
17319W        W33793   8.652  13.490  13.365 -0.0909  0.1789 -0.0329
17320W        W33794  17.757   9.202   1.163  0.0331  0.0126 -0.1637
17321W        W33795  15.643   5.216  12.900  0.0748 -0.1969  0.0194
17322W        W33796   3.068   3.317   3.178  0.2203 -0.0345  0.0979
17323W        W33797   7.563  16.778  11.306 -0.0024  0.2212  0.0097
17324W        W33798  14.746   9.513   0.510  0.6468 -0.3011 -0.2773
17325W        W33799   4.651  16.037   1.242  0.0503 -0.0789 -0.0325
17326W        W33800   2.968   3.935  10.665 -0.3112  0.4903 -0.2560
17327W        W33801  19.028   7.480   4.404 -0.0601 -0.1588 -0.0219
17328W        W33802   8.433   7.940   1.597  0.0615  0.1430 -0.0415
17329W        W33803  10.090   5.131   1.554 -0.1657 -0.4621 -0.0844
17330W        W33804  14.348  13.888  12.133  0.0329  0.3808 -0.0136
17331W        W33805   2.266  13.293  14.466 -0.1189  0.0268  0.5748
17332W        W33806   7.227  10.060   1.304  0.1855 -0.4720  0.0490
17333W        W33807   9.295   2.280   4.443  0.0807  0.0330  0.2702
17334W        W33808  17.008  13.880  14.575  0.2522 -0.2576 -0.2630
17335W        W33809  17.850  10.254   4.060  0.0355 -0.1371  0.2960
17336W        W33810  14.171   4.098  11.025 -0.0891 -0.3599  0.0856
17337W        W33811  19.199   9.547  11.472  0.3084 -0.0148  0.0396
17338W        W33812  15.173  14.020   4.891  0.0933 -0.0963  0.3625
17339W        W33813   4.601   5.735   3.300 -0.3014  0.3420  0.1495
17340W        W33814   5.247   3.872   3.248 -0.0178 -0.2687  0.0329
17341W        W33815   1.912  19.240   9.831  0.1384  0.2050 -0.0212
17342W        W33816  12.401   7.688   3.751  0.1626 -0.1190  0.0125
17343W        W33817   5.414   5.677  12.257  0.0690 -0.5687  0.2024
17344W        W33818   5.997  15.186  10.899 -0.0875 -0.1268  0.1235
17345W        W33819   0.233  10.373   1.994  0.0609 -0.0227  0.0776
17346W        W33820   8.803   9.118   1.324 -0.1319  0.3190  0.1341
17347W        W33821   2.293   0.241   0.064  0.0162  0.2380  0.3456
17348W        W33822   0.820   1.856   3.677 -0.3355  0.3678 -0.0473
17349W        W33823  13.030  15.674  13.810  0.0484 -0.2484  0.0842
17350W        W33824   0.164  10.829   2.199 -0.0839 -0.3570  0.2086
17351W        W33825   1.929   4.520  10.683  0.0227  0.2685 -0.0991
17352W        W33826  15.458  10.509  13.207 -0.0100  0.1718  0.0614
17353W        W33827   8.376  10.028  10.928  0.0359  0.0300  0.0264
17354W        W33828   5.061   0.845   2.722 -0.4194  0.1018  0.2547
17355W        W33829  15.847  19.482  10.211 -0.0391 -0.2647  0.0597
17356W        W33830   5.449   8.260  11.818  0.0722  0.0859 -0.2478
17357W        W33831  15.028  12.762   1.307  0.1350 -0.1611  0.0842
17358W        W33832  14.508   9.964   2.152  0.1796 -0.0887  0.0155
17359W        W33833  15.225  12.783  12.154 -0.1999  0.1731 -0.0068
17360W        W33834   9.912   7.565  10.701  0.0828 -0.4952 -0.2085
17361W        W33835   7.319  19.308   0.738  0.2184  0.0751 -0.2367
17362W        W33836  11.577  13.055   3.811  0.2273 -0.2415 -0.2637
17363W        W33837  16.344   0.634  11.659 -0.1033 -0.5986 -0.2831
17364W        W33838  16.721   7.405  11.232  0.1872  0.1847  0.1110
17365W        W33839   2.316  19.348   4.567  0.1056 -0.1496  0.1015
17366W        W33840  15.243  14.886  12.216 -0.1592 -0.1193 -0.0297
17367W        W33841  13.862  18.816   2.748  0.1802 -0.1866  0.1791
17368W        W33842  10.460   6.753  11.931 -0.1440  0.1026 -0.1084
17369W        W33843   8.918  16.805   9.559  0.3264 -0.0963  0.2477
17370W        W33844   1.701   6.023  14.245  0.2935 -0.0137  0.0940
17371W        W33845   4.618  19.470  13.907  0.2188  0.0283  0.0301
17372W        W33846  10.020  11.136   0.992 -0.1028 -0.0540 -0.1335
17373W        W33847   3.564   6.598  12.222  0.0440 -0.0395 -0.0580
17374W        W33848  17.526   5.140  10.565 -0.2090  0.0654  0.0824
17375W        W33849   3.422  12.704   1.393  0.1586 -0.1825 -0.2209
17376W        W33850   8.424   2.416   5.015 -0.2779  0.4659  0.0419
17377W        W33851  17.785   0.524   0.485 -0.3211 -0.1710 -0.1878
17378W        W33852  10.582  19.005   3.558  0.2693  0.0791  0.0518
17379W        W33853   5.737   3.692  14.181  0.1302  0.0492 -0.0157
17380W        W33854   8.127   3.942  14.188  0.2246  0.2314  0.3465
17381W        W33855  17.816  11.395  14.187 -0.2673  0.1047  0.0647
17382W        W33856  17.870  13.765   1.747  0.0541  0.5719 -0.0992
17383W        W33857  17.700  11.978   2.933  0.1864  0.0448  0.1084
17384W        W33858   1.694   2.914  13.394  0.3180  0.2076  0.2672
17385W        W33859   0.222   7.791   3.137  0.0119 -0.0486  0.1239
17386W        W33860  13.627   0.964  13.877  0.2709 -0.0055 -0.1022
17387W        W33861   6.879   8.317  11.403 -0.2140 -0.1376 -0.2974
17388W        W33862   7.748   4.863  13.695 -0.0594 -0.1946  0.1533
17389W        W33863   2.313  18.610  14.329 -0.4220 -0.0636  0.0419
17390W        W33864   7.293  13.642  13.778  0.2693 -0.1757  0.2376
17391W        W33865   6.910  12.060   3.950  0.3102  0.2954 -0.0288
17392W        W33866  18.564   6.114  10.413  0.2454 -0.0236 -0.0839
17393W        W33867   5.752   5.523   2.943 -0.0295  0.0059 -0.0452
17394W        W33868   0.193  18.935  13.750 -0.0334 -0.0041  0.1152
17395W        W33869  11.736  14.553   2.139 -0.2213 -0.2132  0.2754
17396W        W33870  13.836   8.219  12.101 -0.1826 -0.2798 -0.0007
17397W        W33871  14.284  12.671   4.372 -0.0211  0.2733 -0.0372
17398W        W33872   9.369   2.731   1.417 -0.1773  0.3619  0.2580
17399W        W33873  11.302  12.884   1.595 -0.3208  0.1772 -0.3229
17400W        W33874  18.442  17.076  11.299  0.0487  0.2801 -0.1975
17401W        W33875   2.724   1.134   2.183  0.0549 -0.2562 -0.0519
17402W        W33876   7.502   3.258  14.332 -0.1611 -0.2813  0.2067
17403W        W33877  19.576   6.832  13.706 -0.1251  0.1768 -0.1043
17404W        W33878   6.567   2.681  13.146  0.4031  0.1492  0.1220
17405W        W33879  18.048  18.353  13.403  0.0120  0.2278 -0.1702
17406W        W33880   5.174   4.967  10.015 -0.0940  0.0941  0.0731
17407W        W33881   1.279  14.270  10.421  0.2295 -0.1051  0.0539
17408W        W33882   0.926  14.763  10.283  0.2824  0.0281 -0.0928
17409W        W33883  13.957  15.064  12.094  0.0698 -0.2152 -0.2375
17410W        W33884   2.073   5.411  12.228 -0.0248 -0.4597  0.1181
17411W        W33885  15.726  13.949   3.776 -0.2948  0.1081  0.3967
17412W        W33886   7.029   0.124   2.749 -0.1935  0.0102 -0.1736
17413W        W33887   2.818  10.788   3.144  0.0588 -0.1223  0.2131
17414W        W33888   6.584  17.636  12.833 -0.0601 -0.0077  0.1023
17415W        W33889  14.972   8.780   3.793 -0.0137  0.0364  0.0525
17416W        W33890  17.024  15.632   2.587 -0.0242 -0.0241 -0.0673
17417W        W33891  19.408  11.764   0.143  0.3576 -0.1304  0.0482
17418W        W33892   4.508   5.647  11.053  0.0354  0.2330  0.1093
17419W        W33893  17.299   3.518   2.160 -0.2030  0.3092  0.0067
17420W        W33894   1.378   2.030   2.923  0.1223 -0.0960 -0.0598
17421W        W33895   8.204   5.705  12.677 -0.0583 -0.1576  0.1699
17422W        W33896  14.330  12.322  14.276 -0.2566  0.1057 -0.3400
17423W        W33897   1.648   0.564   1.550  0.3001 -0.0801 -0.1747
17424W        W33898   5.770  15.402  12.873 -0.0948 -0.1507  0.5923
17425W        W33899  14.821   7.828   2.041 -0.0268  0.1209  0.0171
17426W        W33900  11.488  10.237  11.557 -0.1748  0.0382 -0.1436
17427W        W33901   6.713  18.958   2.070 -0.2161 -0.0881  0.0966
17428W        W33902  15.082  19.437   2.520  0.2659 -0.2268  0.0071
17429W        W33903   2.498   8.317   3.993 -0.0006 -0.0514  0.2052
17430W        W33904  12.615  15.906  11.512 -0.0324 -0.3757 -0.1171
17431W        W33905   7.189   4.245   4.711  0.4003 -0.3633  0.0606
17432W        W33906  17.592   1.848  12.255 -0.0158 -0.0607  0.1138
17433W        W33907   4.465  11.024  11.837  0.0715 -0.2450 -0.4452
17434W        W33908   2.671   8.688   5.256  0.1707 -0.1709 -0.2534
17435W        W33909   0.412  11.733  13.748  0.2636 -0.0524  0.1013
17436W        W33910   6.648   5.913   3.754 -0.2162 -0.0448 -0.1857
17437W        W33911  17.601  16.504   5.101 -0.1118 -0.0528  0.1901
17438W        W33912  10.201   4.253   2.429 -0.0715 -0.0727  0.0930
17439W        W33913  10.385   7.809   1.676 -0.0682  0.1901 -0.4337
17440W        W33914   2.560   2.310   2.732 -0.1901 -0.0318 -0.1388
17441W        W33915  13.464  12.383  12.117 -0.1155  0.0350  0.2709
17442W        W33916   9.082  19.400  11.971  0.2012 -0.1997 -0.1195
17443W        W33917  15.277  13.929   2.490  0.0751  0.1173  0.1766
17444W        W33918   3.232   0.622   9.799 -0.1140 -0.0540 -0.1084
17445W        W33919   9.981  19.192   0.897  0.0569 -0.2736 -0.0242
17446W        W33920   5.144  15.007  12.096 -0.1099 -0.0911  0.2274
17447W        W33921  17.922   6.982  12.286 -0.1347  0.0506 -0.0284
17448W        W33922   2.566   2.448   4.106  0.2868 -0.2932 -0.2769
17449W        W33923   2.902   8.563  14.482  0.3522  0.1779 -0.1651
17450W        W33924   2.858   3.081   3.614  0.0928  0.3096 -0.0087
17451W        W33925  11.058  17.299   1.512  0.0468  0.4548  0.2021
17452W        W33926   4.786   3.860   3.996  0.0523 -0.0507  0.1030
17453W        W33927   2.235  10.089  10.545  0.0246 -0.0852  0.0155
17454W        W33928   5.885  19.290  13.546 -0.2505 -0.4285  0.0502
17455W        W33929  16.960   7.298   3.105  0.1125  0.2244 -0.1967
17456W        W33930   0.742   6.530  12.177 -0.0433 -0.4023 -0.0889
17457W        W33931  12.134   2.146   9.537 -0.2992 -0.0441  0.1703
17458W        W33932  10.063   5.228   1.003 -0.2395 -0.3121 -0.3008
17459W        W33933   8.430   1.040   4.453  0.2028  0.0582  0.3845
17460W        W33934   0.430   5.896   2.667 -0.1786 -0.2737  0.3931
17461W        W33935  17.660   7.572   0.177  0.1573  0.1128  0.1435
17462W        W33936  13.903  13.300   3.706  0.0558  0.1828 -0.0057
17463W        W33937   5.802  17.585  13.293  0.0334 -0.0721 -0.0813
17464W        W33938   2.935   5.304  12.864 -0.0002 -0.0614  0.0075
17465W        W33939   7.499   6.298   3.221 -0.0917  0.2900  0.2402
17466W        W33940   1.481  17.076   5.516 -0.2896  0.2490  0.1034
17467W        W33941  14.086   0.108  11.625 -0.2825 -0.0077  0.4296
17468W        W33942  16.547   5.871   2.153 -0.3205 -0.2470  0.1688
17469W        W33943  14.022  16.998   0.322 -0.1075  0.2103  0.0605
17470W        W33944   0.796  19.102   5.282 -0.0401  0.2335  0.3672
17471W        W33945  19.033  10.275   9.865  0.6052 -0.0825 -0.1213
17472W        W33946   9.923   7.353   2.191  0.0535 -0.2505 -0.2496
17473W        W33947  12.043   9.859   4.276 -0.2631 -0.2548 -0.1910
17474W        W33948   3.283   1.148   1.359 -0.0698 -0.1358 -0.1299
17475W        W33949  16.216   6.237   3.429 -0.0870 -0.1237 -0.0152
17476W        W33950   2.675  16.815   0.208 -0.1776 -0.0005  0.3901
17477W        W33951  12.867   0.159   4.692 -0.1931 -0.0013 -0.1331
17478W        W33952   6.109  12.632  12.427 -0.2541  0.0422  0.2335
17479W        W33953   1.771   2.444   0.128  0.2020  0.2877  0.2401
17480W        W33954   7.304   7.455   0.658 -0.3706 -0.1001  0.1407
17481W        W33955   7.766  16.520  12.768  0.2716 -0.0783 -0.1870
17482W        W33956  14.119  15.305   3.078 -0.2894  0.2546  0.1261
17483W        W33957  10.991  14.280   5.261 -0.0841  0.1292 -0.1029
17484W        W33958  17.590   8.545   0.520 -0.0065  0.2060 -0.2205
17485W        W33959   0.112   9.442   3.567 -0.1540 -0.2076 -0.0932
17486W        W33960  16.412  12.367  10.993  0.0250 -0.2213 -0.1075
17487W        W33961  17.280  16.129  14.090  0.0376 -0.1012  0.0352
17488W        W33962  11.635  19.504  14.298 -0.2464 -0.1113  0.1960
17489W        W33963  12.669   9.040  13.257 -0.1453  0.2293  0.2924
17490W        W33964   0.892   0.267   0.471  0.0882  0.0790  0.1687
17491W        W33965  19.024  16.887  10.501 -0.3024  0.0783 -0.1947
17492W        W33966  13.476  14.588   1.022  0.1633  0.0179  0.1997
17493W        W33967   3.882  11.859   4.817 -0.2800 -0.0305 -0.0007
17494W        W33968  15.331  14.766   2.530 -0.0227 -0.0340  0.5015
17495W        W33969   5.355   0.316   1.499 -0.0827  0.2253 -0.2584
17496W        W33970  18.348   9.209  13.437  0.0577 -0.0447 -0.0288
17497W        W33971   3.033   7.741  13.193  0.2864 -0.0383 -0.1428
17498W        W33972  13.247  10.867   3.856 -0.3140 -0.1487 -0.2711
17499W        W33973  18.503   4.363   0.387  0.0689  0.2063 -0.2009
17500W        W33974   2.155   3.431  12.975 -0.1058  0.1991 -0.0707
17501W        W33975  13.088  12.725   2.293  0.1094  0.1520 -0.1196
17502W        W33976  15.735   5.125  10.751 -0.2309  0.1782  0.2667
17503W        W33977  15.675   2.027  13.720  0.0779 -0.1901  0.0658
17504W        W33978  17.643  11.544  12.620  0.0328 -0.3245 -0.2901
17505W        W33979  17.492   7.880   3.525  0.0035  0.0902  0.1108
17506W        W33980   7.658   9.871  13.309 -0.1320 -0.1358 -0.1743
17507W        W33981   1.772  12.989  14.667  0.1094 -0.3781 -0.3143
17508W        W33982  15.569   3.322   9.887  0.1407  0.2149  0.0949
17509W        W33983  16.250   4.894   0.786 -0.1503  0.2449 -0.5344
17510W        W33984   4.109   6.140   2.666  0.0298 -0.0220  0.1374
17511W        W33985   8.872  18.858  13.539 -0.1736 -0.0787  0.0414
17512W        W33986  18.629   5.629   9.983 -0.2319  0.2036 -0.0199
17513W        W33987   8.255   3.183  12.723  0.1477  0.1732 -0.1581
17514W        W33988   2.178  16.429   4.604 -0.3285 -0.0576 -0.3404
17515W        W33989  16.668   1.688   2.534  0.1332  0.1228  0.1434
17516W        W33990   7.286   5.034   3.615 -0.0025 -0.1695  0.0481
17517W        W33991   3.256  15.037   9.244  0.1200  0.4123 -0.0693
17518W        W33992  18.888   9.852   1.535  0.0197 -0.1260  0.2290
17519W        W33993  16.705   3.378   4.981 -0.1076  0.3762  0.0152
17520W        W33994  17.038   2.928  10.698  0.0539 -0.1784 -0.0297
17521W        W33995   1.373  13.618   3.894 -0.1477  0.2005 -0.1343
17522W        W33996   0.318   3.837   4.631  0.2298 -0.0898  0.1707
17523W        W33997  12.093  14.252  12.527  0.0533  0.1875  0.1914
17524W        W33998   1.140  11.171   0.038  0.2869 -0.0702 -0.4378
17525W        W33999   9.966   0.155  10.564 -0.2666  0.1581 -0.2907
17526W        W34000  19.573   4.675   0.218 -0.0133 -0.0160 -0.0333
17527W        W34001   4.388   2.689  12.174 -0.0366 -0.1884 -0.2438
17528W        W34002  15.811  18.915   0.636 -0.2071 -0.1485  0.0993
17529W        W34003   9.832  15.976   2.370 -0.1023  0.0422  0.2078
17530W        W34004   6.152   1.859  14.391 -0.1546  0.0520  0.4197
17531W        W34005  13.396   0.059   2.517  0.1829  0.1372 -0.0287
17532W        W34006   4.257  17.612   1.164 -0.1376  0.1165  0.2250
17533W        W34007  17.226  11.662   4.140 -0.1818  0.1562 -0.0563
17534W        W34008  10.698   3.061  11.094  0.0022  0.4375  0.3124
17535W        W34009  10.052  19.112   2.390 -0.0518 -0.0416 -0.3062
17536W        W34010   2.783  18.551   1.998  0.0960 -0.0845 -0.1067
17537W        W34011   4.907  16.088  13.938  0.1707  0.2138  0.0869
17538W        W34012  16.555   5.639  11.289  0.1420 -0.1557 -0.1182
17539W        W34013  14.693  10.796  13.236  0.3309 -0.2769 -0.0812
17540W        W34014   8.565  15.863  14.024 -0.1035 -0.3076  0.2054
17541W        W34015  10.003  11.934  12.103 -0.1478  0.0308  0.1380
17542W        W34016  10.391   0.196  11.729  0.0474 -0.0717 -0.0284
17543W        W34017  19.237   9.777  13.259  0.0866 -0.0324 -0.0767
17544W        W34018  14.503   6.582   0.672 -0.0251  0.1455  0.1997
17545W        W34019   9.319   0.185  13.026  0.0500  0.2662 -0.1884
17546W        W34020   2.300   9.484  11.431  0.3164 -0.2451  0.0912
17547W        W34021   4.948   0.403   1.032 -0.1161 -0.0566 -0.0379
17548W        W34022   1.314   6.237  14.065 -0.1580 -0.4185  0.0715
17549W        W34023   4.282   3.887  13.199  0.1373  0.1382 -0.0168
17550W        W34024  17.072  18.606  11.881  0.0026 -0.0755 -0.0267
17551W        W34025   8.451   9.990   2.818  0.1407  0.2271  0.2095
17552W        W34026  16.120  10.698  12.374 -0.0526 -0.1370  0.1842
17553W        W34027   7.073   4.066  11.475 -0.2362  0.1124 -0.1528
17554W        W34028  16.327   4.831  14.043  0.0046 -0.0041  0.2047
17555W        W34029   1.604  17.849   1.792  0.0091  0.0988 -0.1245
17556W        W34030   3.899   4.976   4.362  0.2416 -0.2045 -0.2268
17557W        W34031  18.182   0.375   4.196 -0.2636 -0.3189 -0.0375
17558W        W34032   1.279   6.181   3.285  0.0045 -0.1103 -0.2875
17559W        W34033  18.092   0.163   1.929 -0.1844 -0.0277  0.0635
17560W        W34034  15.778   6.452   3.683  0.0838  0.0494  0.2203
17561W        W34035   7.467   3.694   0.670  0.1395  0.2000  0.0735
17562W        W34036  15.752  18.804   0.181 -0.0757  0.2000 -0.2279
17563W        W34037   9.333  11.799  12.275  0.1299  0.0265 -0.0020
17564W        W34038   7.860  17.577   2.515 -0.4580 -0.1926 -0.0115
17565W        W34039  15.447   5.444  11.423  0.1280  0.0143 -0.4590
17566W        W34040  16.576   5.135  13.285  0.2491 -0.0868 -0.2235
17567W        W34041   1.212   5.571   3.831  0.1102 -0.1161 -0.1312
17568W        W34042   8.496  14.820  13.060 -0.0080 -0.0485 -0.0745
17569W        W34043   3.957   9.877   0.946  0.4560 -0.1984  0.0063
17570W        W34044   4.661  14.610  11.045  0.1327 -0.0396 -0.2527
17571W        W34045  19.411  11.057   0.801 -0.0166 -0.0562  0.1464
17572W        W34046   2.944  11.798   2.056 -0.1020 -0.0335  0.1140
17573W        W34047  12.427   0.747   3.729  0.2561  0.2882 -0.2406
17574W        W34048  14.904   4.715   3.586 -0.2740  0.0501 -0.0265
17575W        W34049  16.079  18.374   1.823  0.1781  0.2964 -0.1810
17576W        W34050   6.036  10.696  10.247 -0.0710 -0.0413 -0.0165
17577W        W34051   2.471  11.227   0.254 -0.1568  0.0043  0.0285
17578W        W34052  15.827   6.837  10.098  0.1848  0.2446  0.3028
17579W        W34053  13.642  19.187   2.923  0.2548 -0.0995  0.0259
17580W        W34054  14.801  12.532  14.413  0.0299  0.3241  0.0993
17581W        W34055   5.173   7.788  11.141  0.0195  0.2836  0.1065
17582W        W34056   5.014  17.023  14.301 -0.0148  0.0024 -0.1637
17583W        W34057   7.821  16.226   4.001  0.1837 -0.1595  0.0731
17584W        W34058   4.953  14.114   1.571 -0.0494 -0.1580 -0.0127
17585W        W34059   7.971   2.436   2.481 -0.1438 -0.1187  0.2677
17586W        W34060  14.232  16.835   0.804  0.1615 -0.1760  0.1264
17587W        W34061  11.088   4.597   1.948  0.2775 -0.2551 -0.1997
17588W        W34062  19.321  15.316   2.572 -0.0155  0.2700 -0.0661
17589W        W34063   6.696  14.888  10.446 -0.1429  0.1510 -0.0423
17590W        W34064  15.260  16.350   3.537 -0.2682 -0.0366 -0.1710
17591W        W34065  12.839   6.493   3.774 -0.0849  0.0165  0.2593
17592W        W34066  15.638   7.875  11.626 -0.1589 -0.3205  0.0632
17593W        W34067   7.323   7.225   3.563 -0.0197  0.1520  0.2478
17594W        W34068  15.736   4.064  11.090  0.0001 -0.1597  0.0335
17595W        W34069  17.897  14.123   0.103 -0.0323  0.0773  0.0639
17596W        W34070   2.229   2.629  13.514  0.0511  0.0543 -0.1287
17597W        W34071   5.194  10.399   4.439 -0.1294 -0.1179 -0.2843
17598W        W34072  17.443  15.669   1.058 -0.0625 -0.0333  0.1464
17599W        W34073   4.434   4.214   4.877 -0.2623  0.1632  0.4290
17600W        W34074  14.392   0.591  11.853  0.1702 -0.0718  0.0592
17601W        W34075  10.418  17.857  11.275  0.0303  0.1176 -0.1624
17602W        W34076   3.826   4.230  10.211  0.0069  0.1103 -0.2450
17603W        W34077  19.131   8.278  13.570 -0.3163 -0.0104  0.0008
17604W        W34078   2.385  11.336  13.900  0.1375 -0.0908 -0.0098
17605W        W34079  16.898   9.275  10.747 -0.0848 -0.1333  0.2503
17606W        W34080  17.151  19.497  13.373  0.3609 -0.0722 -0.3052
17607W        W34081   5.089  15.851  12.605  0.1574 -0.0537  0.0529
17608W        W34082   1.120  11.495   3.577 -0.0446 -0.0082  0.0579
17609W        W34083  16.791  12.675  11.212  0.2440 -0.1049 -0.1076
17610W        W34084   6.624  11.264   2.900  0.1516  0.0766 -0.2562
17611W        W34085   1.122  17.741   1.885 -0.1672  0.1593  0.0152
17612W        W34086   3.152  15.969   9.488  0.0365  0.3202 -0.1401
17613W        W34087   8.482  11.860  12.110  0.0096  0.4119  0.3443
17614W        W34088  15.696   8.000  14.548  0.2042 -0.3174  0.0164
17615W        W34089  12.969   5.374  14.147 -0.1450 -0.0621  0.0788
17616W        W34090   5.739   7.756   2.453 -0.0425 -0.0630 -0.3852
17617W        W34091   5.633   7.450   2.007 -0.0368 -0.2791 -0.1183
17618W        W34092  15.493   2.823  10.975 -0.2003 -0.0050 -0.2050
17619W        W34093  15.864   0.182  14.176  0.1050 -0.1069  0.0868
17620W        W34094   1.922   7.750   1.693  0.2336 -0.0516 -0.0201
17621W        W34095   6.688  14.954   1.201  0.0165 -0.2685  0.0265
17622W        W34096  11.934  10.376  11.906  0.0493 -0.2917  0.3003
17623W        W34097   9.167   5.317   1.057 -0.2331 -0.1117  0.0348
17624W        W34098   7.226  15.434  12.885 -0.2449  0.0659 -0.1365
17625W        W34099   3.566  18.553   2.955 -0.1904 -0.0448  0.2091
17626W        W34100   8.256  11.826  12.778 -0.0005  0.0075 -0.3214
17627W        W34101  17.577  11.117  12.891  0.1347 -0.0366 -0.0974
17628W        W34102  14.207   8.664   3.287  0.0276 -0.3423  0.1554
17629W        W34103  18.406  10.009  12.442 -0.0727 -0.0551  0.1408
17630W        W34104  13.881   8.164   2.847  0.0091 -0.0545  0.1296
17631W        W34105   7.415   4.712  14.434 -0.0387 -0.0825 -0.0967
17632W        W34106  11.300  14.740  11.981 -0.0823 -0.1267 -0.5485
17633W        W34107   7.778   1.860  10.778  0.1397  0.1928  0.1466
17634W        W34108   0.382   4.462   1.910  0.3655  0.1853  0.1073
17635W        W34109  18.806  16.890  14.024  0.1001 -0.0632  0.0508
17636W        W34110  10.642  12.120   1.556  0.0283 -0.1257 -0.1505
17637W        W34111  11.173  10.685  13.425 -0.1489 -0.2917  0.0485
17638W        W34112  14.069  18.742  12.756  0.1551  0.0431 -0.1888
17639W        W34113   2.814  15.616  13.165 -0.0710  0.1594  0.1049
17640W        W34114   3.628  13.684   2.018  0.0798 -0.1401  0.1436
17641W        W34115   8.681   1.897  13.879 -0.2146  0.3280 -0.0605
17642W        W34116  13.685   5.940  11.064 -0.1298 -0.1434 -0.1667
17643W        W34117  18.283   5.022  11.839 -0.1676  0.3697 -0.1248
17644W        W34118   1.592   6.003  12.678 -0.0989  0.0811  0.0706
17645W        W34119  14.680  16.530   0.976  0.2023 -0.3135  0.3941
17646W        W34120   8.543  18.530  10.626  0.2764 -0.4670 -0.3592
17647W        W34121   6.805  17.341   1.189 -0.0476  0.2465  0.0886
17648W        W34122   2.554   1.287  13.406  0.0792  0.2189  0.2912
17649W        W34123   5.721   6.533  11.156  0.4746  0.2307  0.0203
17650W        W34124   9.965   1.730   3.253 -0.0268 -0.2854  0.0692
17651W        W34125   8.940   5.692   4.935 -0.1206 -0.0055  0.2701
17652W        W34126  17.399   9.636   0.538 -0.0169  0.4437 -0.0320
17653W        W34127   8.341  12.386   3.163  0.2395 -0.5068 -0.0113
17654W        W34128  10.497   0.054  14.467  0.0692  0.1168  0.1569
17655W        W34129  14.735   9.756   0.981 -0.0183 -0.3084  0.3138
17656W        W34130  16.607  12.924   3.350 -0.2020  0.0923 -0.2953
17657W        W34131   7.362   6.781   3.887  0.0352 -0.0675 -0.0603
17658W        W34132  15.978   2.389   1.195  0.0621 -0.1722 -0.0751
17659W        W34133  17.254  17.459  10.870  0.0435 -0.0358  0.1903
17660W        W34134  10.479  15.788  11.529  0.3621  0.2098  0.0018
17661W        W34135  10.193   2.150  14.093 -0.3056  0.3700  0.3568
17662W        W34136  11.099  12.187  10.877 -0.0244 -0.2861  0.5361
17663W        W34137   5.807  11.059   1.283  0.0056  0.1468 -0.3661
17664W        W34138   7.710   1.546   4.336 -0.2442 -0.0743  0.0152
17665W        W34139   2.746  15.199   0.951  0.0800  0.3229  0.0301
17666W        W34140  18.758   1.546   4.586 -0.2235 -0.0463 -0.0073
17667W        W34141   5.532   1.547   3.840  0.1224 -0.1939 -0.2050
17668W        W34142   1.264   8.418  13.695  0.1243 -0.3544  0.1096
17669W        W34143  18.222   8.495  12.593 -0.1521 -0.2702  0.0495
17670W        W34144  17.894   5.910   2.661 -0.2254  0.0458 -0.1772
17671W        W34145   5.181   6.699  14.426  0.1836  0.3202  0.1387
17672W        W34146   9.442   7.875  12.784  0.1882 -0.0124  0.3000
17673W        W34147  12.189  19.136   4.841  0.0057 -0.2181  0.0109
17674W        W34148   0.218  16.507  11.470 -0.2222  0.1672 -0.0211
17675W        W34149  13.521   0.978   5.445  0.2433  0.1556 -0.0338
17676W        W34150   7.203   2.551  14.492  0.0675  0.0700  0.0365
17677W        W34151   1.666   9.178   2.149  0.1264 -0.0187  0.0825
17678W        W34152  14.812   4.479   2.893  0.0916  0.0112 -0.1226
17679W        W34153  14.410   1.643  11.738  0.1942 -0.0526  0.1215
17680W        W34154  12.924   2.702   3.334  0.2077 -0.3998 -0.2856
17681W        W34155  14.292   2.961   4.239  0.2670 -0.0150  0.0155
17682W        W34156   5.328   7.084   1.415  0.2588  0.0490  0.3736
17683W        W34157   5.392  12.416  11.338 -0.2048  0.1521  0.1065
17684W        W34158  16.271   1.781   9.095  0.0091 -0.1825 -0.1939
17685W        W34159   1.537  17.104  10.887  0.0189 -0.2461  0.0320
17686W        W34160  14.899   5.878   4.486  0.2323 -0.0564  0.2330
17687W        W34161  19.582  16.442  10.934  0.1880 -0.2486 -0.0253
17688W        W34162   6.889   9.459  14.301 -0.0221 -0.0044 -0.3194
17689W        W34163   1.519  16.586   3.968 -0.0633 -0.1483 -0.1215
17690W        W34164  11.802  19.457  11.469  0.0869  0.0327 -0.0395
17691W        W34165   7.144   6.014   4.560  0.0902 -0.1932  0.2588
17692W        W34166  17.703  17.467  11.761  0.0549  0.1100  0.0065
17693W        W34167  14.382  11.325   1.841 -0.2214  0.0250  0.3856
17694W        W34168  18.129   1.557  10.902  0.0933  0.0582 -0.0686
17695W        W34169  11.263  15.818   3.438 -0.1318  0.1007 -0.0889
17696W        W34170  15.313   3.620   1.025  0.2236  0.0325  0.0850
17697W        W34171  15.886  19.289  12.630  0.0478  0.0444 -0.0169
17698W        W34172   1.844   8.809   1.745  0.1626 -0.0712 -0.1352
17699W        W34173  10.337   4.370  13.848 -0.1488  0.1418 -0.0323
17700W        W34174   1.947  11.976   0.514  0.2652  0.1269  0.1484
17701W        W34175  16.404  19.169   3.081  0.1062 -0.1524 -0.1732
17702W        W34176   3.158   5.043   2.450 -0.4588 -0.0265 -0.0580
17703W        W34177  14.644  11.503  11.094  0.2546 -0.1343  0.1330
17704W        W34178   4.102   9.146   4.752  0.2356 -0.2602  0.1466
17705W        W34179  10.556  15.168  12.159  0.1236  0.0747 -0.1652
17706W        W34180  14.873   9.825  10.823 -0.0879  0.0354 -0.1106
17707W        W34181   9.035   7.947   1.466  0.1257 -0.3239  0.0003
17708W        W34182   6.262  12.270  13.957 -0.0176  0.1046  0.0271
17709W        W34183  14.295   0.041  14.624 -0.0886  0.2199 -0.1739
17710W        W34184   9.240  13.345  12.647  0.0513  0.1102  0.3195
17711W        W34185  12.905  13.867   5.108 -0.3022 -0.0650 -0.0812
17712W        W34186   1.751  13.869   5.595 -0.2007 -0.0222  0.4266
17713W        W34187  15.035   6.348  14.081 -0.0324  0.0763  0.0411
17714W        W34188  13.550  17.557   0.742 -0.0342  0.0832 -0.1830
17715W        W34189   9.937  10.083   0.396 -0.1860  0.1104 -0.2091
17716W        W34190   4.514  16.505  13.170  0.2829 -0.2559  0.2427
17717W        W34191   4.791   7.674   1.704  0.0362 -0.0769 -0.2069
17718W        W34192  17.300   5.786   0.967 -0.1356 -0.1994 -0.1665
17719W        W34193  16.290  17.422   2.808  0.1095 -0.2942 -0.2247
17720W        W34194   6.763  18.536  10.166  0.1702 -0.2758 -0.1468
17721W        W34195   4.064   3.446   1.032  0.3234 -0.0018  0.2589
17722W        W34196   0.290   0.728  11.067  0.0864  0.0323  0.1228
17723W        W34197  18.051  13.081   1.062 -0.0023 -0.1265  0.4846
17724W        W34198   8.186  13.972   1.400  0.1357  0.1589 -0.1426
17725W        W34199   0.435  12.393  12.953  0.0361  0.3240  0.1377
17726W        W34200   1.232  12.274  12.435  0.0601 -0.3163  0.3182
17727W        W34201  15.638  15.880  12.601  0.2655  0.1403 -0.0323
17728W        W34202  15.410  18.339   2.791  0.0261  0.0755 -0.0921
17729W        W34203  14.646  16.346   0.375 -0.1368 -0.3078 -0.3313
17730W        W34204   7.689   3.979  13.753 -0.1164  0.0070 -0.1671
17731W        W34205  19.614  15.047  10.939 -0.0785  0.2405 -0.3747
17732W        W34206  13.731  15.341   4.519 -0.2343 -0.0339  0.2658
17733W        W34207   0.344   3.355   1.836  0.1195  0.1289 -0.0706
17734W        W34208  14.616  18.199   0.409 -0.1764 -0.2625 -0.2656
17735W        W34209   4.306   5.032   2.738  0.1350 -0.0058 -0.0510
17736W        W34210  15.704   2.388  10.492  0.0400  0.0662 -0.1396
17737W        W34211  12.376  11.966   2.823 -0.0216  0.1435 -0.1849
17738W        W34212  11.786   5.050   1.329  0.0107 -0.0251 -0.0905
17739W        W34213  12.154   7.654  10.935  0.2172 -0.2639 -0.1752
17740W        W34214  18.282  10.669   5.267 -0.2566 -0.3062 -0.4455
17741W        W34215   2.941  17.063  10.249  0.1398 -0.1007 -0.1834
17742W        W34216  10.834   4.641   3.496  0.0702  0.2764  0.2064
17743W        W34217   1.769   4.203   1.116  0.4940  0.2944  0.1186
17744W        W34218  16.105   1.267   3.790 -0.1237  0.1703  0.4442
17745W        W34219  19.314  19.036  10.577  0.2535 -0.1993  0.1631
17746W        W34220   5.992   1.443  12.424 -0.3675 -0.3238 -0.1997
17747W        W34221  12.847  13.483  13.572 -0.0815  0.3592 -0.2151
17748W        W34222  17.582  18.718  11.902  0.0082  0.2031  0.0497
17749W        W34223   9.269  19.174   3.244  0.1593 -0.0778  0.1044
17750W        W34224  12.083  17.966  13.249  0.0400  0.0768  0.2145
17751W        W34225   4.819  10.261  12.143 -0.1514 -0.1464 -0.1933
17752W        W34226  18.315   9.180   1.740  0.3213 -0.0675 -0.0136
17753W        W34227  12.969  14.889   4.753 -0.2205  0.1525  0.0678
17754W        W34228   9.835  17.104   4.685 -0.2704  0.0248 -0.3709
17755W        W34229  18.612   3.007   0.497  0.1672  0.2626 -0.4048
17756W        W34230  12.171  18.655  11.704 -0.0644 -0.0725 -0.2149
17757W        W34231  18.369  16.725   2.847 -0.1777  0.0737  0.0707
17758W        W34232  16.545   2.371  13.801 -0.0512  0.2534  0.1289
17759W        W34233  17.240   8.879  12.754 -0.0247 -0.3051 -0.0718
17760W        W34234   4.192  19.346   0.151  0.0474 -0.1071 -0.0744
17761W        W34235   2.543   5.464   1.451 -0.1722  0.0825  0.1791
17762W        W34236  18.783  15.270   4.763 -0.0424 -0.0381  0.1529
17763W        W34237   3.883   9.626  10.518  0.1266  0.0474  0.0252
17764W        W34238   2.155  12.472   0.807 -0.0459 -0.0752  0.1595
17765W        W34239   4.094   5.645  12.425 -0.1277 -0.4927  0.1010
17766W        W34240  16.690  16.214   4.626 -0.0420  0.0376  0.0322
17767W        W34241   9.706   3.986   1.047  0.1014 -0.0448 -0.1109
17768W        W34242   1.776   6.558  10.062  0.3475  0.2188  0.0373
17769W        W34243   5.787   1.415  13.801 -0.0555 -0.2162  0.0216
17770W        W34244  17.684   2.107   4.102 -0.3042 -0.0813 -0.0715
17771W        W34245   1.865  19.223   4.290  0.2151  0.1706 -0.0420
17772W        W34246   3.996   3.319   0.087  0.1485  0.2166  0.0004
17773W        W34247  10.594   1.901   2.096 -0.1414 -0.1943  0.2337
17774W        W34248  13.031  18.039  14.567 -0.2612  0.0607 -0.0701
17775W        W34249  18.542   9.215   4.189 -0.0773 -0.0229 -0.0416
17776W        W34250   8.342   2.640  13.781  0.0553  0.2264 -0.1675
17777W        W34251   9.175  17.136  14.144  0.1464 -0.2342 -0.1592
17778W        W34252  16.608  12.767  14.020 -0.3125  0.0648 -0.1211
17779W        W34253  13.774  15.088   5.016 -0.1993  0.3359  0.2599
17780W        W34254  10.799   4.092  11.307  0.1508  0.0910  0.1726
17781W        W34255   7.826  14.187   2.154  0.0055  0.0319 -0.1676
17782W        W34256  14.266   5.159   0.666 -0.1779 -0.3497  0.0962
17783W        W34257  15.203   2.433  10.520  0.0241 -0.1592 -0.0632
17784W        W34258  14.268  14.058   0.814 -0.0663 -0.0757 -0.0960
17785W        W34259   0.139  15.712   1.267 -0.0234  0.3412 -0.1582
17786W        W34260   4.841   0.426   2.933  0.0102 -0.2312 -0.0026
17787W        W34261  12.447   8.375  10.579 -0.1584 -0.0826 -0.0483
17788W        W34262   6.537  14.160   0.307 -0.1201 -0.0833  0.2544
17789W        W34263  10.697  11.458  13.861  0.4868  0.0052  0.1642
17790W        W34264   1.504   0.980   2.579  0.1861 -0.2289 -0.1484
17791W        W34265  17.470   8.409   5.318 -0.0638 -0.1591 -0.2801
17792W        W34266   5.062  13.891  13.318 -0.1441  0.1060 -0.3176
17793W        W34267   9.712   5.930  10.854  0.1970  0.0609 -0.1332
17794W        W34268  16.290   3.085   4.871  0.0386 -0.1671 -0.2429
17795W        W34269  12.771   1.651   3.775  0.2098 -0.0377 -0.2612
17796W        W34270  15.133   1.314  13.247  0.0766  0.1376 -0.0285
17797W        W34271  13.106   3.036   0.043  0.1084  0.2377 -0.3111
17798W        W34272   1.940  13.439  12.569  0.0684 -0.0928  0.0081
17799W        W34273  17.124   4.543   0.363 -0.1536  0.0411 -0.3638
17800W        W34274  19.560   2.120   0.451 -0.4023  0.1288  0.1114
17801W        W34275  14.400  19.528   2.294  0.0459  0.0924  0.1084
17802W        W34276  18.943   0.474   3.484  0.2805 -0.0271 -0.3378
17803W        W34277  19.048  17.271   4.021 -0.4412  0.2281  0.1011
17804W        W34278   4.717   4.433  14.361  0.2064 -0.0424  0.1833
17805W        W34279   3.921   5.833   5.091 -0.2425  0.1527  0.1556
17806W        W34280   2.444  12.350  14.545 -0.0730 -0.0081  0.3018
17807W        W34281   4.219   3.422   3.809  0.0035 -0.2638 -0.0117
17808W        W34282  16.655  16.855   2.421 -0.1538 -0.0500  0.1648
17809W        W34283   4.999   6.401  13.415  0.2681 -0.0011  0.0092
17810W        W34284   0.429   8.718  12.655 -0.1502 -0.1945  0.0234
17811W        W34285  11.135  11.097   2.722  0.1681 -0.0826 -0.2142
17812W        W34286   9.253   1.237  12.482 -0.3361 -0.3651 -0.1699
17813W        W34287   3.711   0.968   0.341  0.1460 -0.2087  0.1684
17814W        W34288   3.286   4.196  11.703 -0.0217 -0.0017 -0.0508
17815W        W34289   8.744  11.311  14.560  0.1168 -0.1923  0.0491
17816W        W34290   3.386  19.242   1.744 -0.1525  0.0944 -0.2150
17817W        W34291   5.376   4.513   3.500  0.1562 -0.0570 -0.5515
17818W        W34292  15.301   8.158   3.218 -0.0004 -0.0989  0.1318
17819W        W34293   7.341   2.940   4.140  0.2149 -0.1438 -0.1043
17820W        W34294  10.014  13.138   1.690 -0.1035  0.0469  0.0507
17821W        W34295   9.186  19.308  13.584 -0.2310  0.0906  0.2375
17822W        W34296   8.775   6.042  14.291  0.1980  0.3665  0.1322
17823W        W34297  15.926  13.545   3.969  0.2485  0.0357  0.3028
17824W        W34298   7.865   4.177  11.885 -0.0731  0.3252  0.0711
17825W        W34299  19.270   4.970  13.342 -0.6138 -0.2943  0.1362
17826W        W34300   0.114  13.298  10.470  0.4455  0.1475 -0.2585
17827W        W34301  14.457   1.450  10.959  0.0160 -0.1553  0.1542
17828W        W34302  10.103   9.159   1.695  0.1147  0.0111 -0.0787
17829W        W34303   1.031  15.945  14.537  0.0884  0.3049  0.0911
17830W        W34304  14.859  11.627  10.628 -0.2614  0.0011 -0.1582
17831W        W34305   8.314  18.137   1.160  0.0086  0.2479  0.2053
17832W        W34306  16.471   8.087   2.266 -0.1165 -0.1920  0.2107
17833W        W34307   7.342  10.966   4.170 -0.0790 -0.0159 -0.1223
17834W        W34308  19.405   6.189  10.321 -0.1122 -0.1794  0.0517
17835W        W34309   3.786  16.323   0.287 -0.1095 -0.0779  0.1281
17836W        W34310   2.569   4.930  14.140 -0.0158  0.0362  0.5767
17837W        W34311   3.090   3.100  14.010  0.0347 -0.1212  0.0551
17838W        W34312   9.666   5.194   2.534 -0.2067  0.1695  0.0274
17839W        W34313   8.677  15.389  12.038 -0.3192 -0.0222  0.0092
17840W        W34314  10.280   7.097  10.947 -0.0775  0.0956 -0.1268
17841W        W34315   6.288  14.623  12.608 -0.3671 -0.3026 -0.0526
17842W        W34316   2.208   3.287  11.659  0.0606  0.0889  0.0337
17843W        W34317  15.776   8.588   3.184 -0.1486  0.3092  0.0169
17844W        W34318   6.774   0.605  11.926 -0.2991  0.3747 -0.3900
17845W        W34319   3.370  19.372  11.002  0.3613 -0.2278  0.1329
17846W        W34320   2.251  12.277   2.182  0.1708 -0.1924  0.2209
17847W        W34321   4.312  13.177  10.670  0.1043 -0.1304  0.1292
17848W        W34322  10.081  11.926   3.796 -0.1080 -0.0798 -0.1316
17849W        W34323  12.530   3.291  10.702 -0.2623 -0.0692 -0.0484
17850W        W34324  10.828  10.321  13.512  0.3375 -0.1226 -0.0981
17851W        W34325  14.924  16.232  11.422  0.0975  0.2535  0.1994
17852W        W34326   4.354   9.580   0.971  0.1138 -0.1001  0.0204
17853W        W34327  18.535  15.468   2.953  0.0365 -0.0049  0.2073
17854W        W34328   7.382   3.074  11.186  0.0245  0.0831 -0.0605
17855W        W34329   8.799  16.724  12.773 -0.0527  0.1631  0.0942
17856W        W34330   4.409  10.335  10.054 -0.1628  0.0048 -0.1399
17857W        W34331   0.321   5.171   0.561 -0.1350 -0.2257 -0.4731
17858W        W34332  16.479  11.388   2.661  0.1228 -0.0823  0.1305
17859W        W34333  14.426   9.111   0.354  0.0532  0.0684  0.1781
17860W        W34334   8.441  18.930  10.920 -0.2757  0.0147 -0.1243
17861W        W34335  10.826  17.744  11.595  0.3651 -0.0454  0.0295
17862W        W34336  17.714   0.402  10.939  0.0972 -0.2611  0.2906
17863W        W34337  13.662  16.765  10.768 -0.2339 -0.0277  0.0826
17864W        W34338  16.391   1.521   0.683 -0.2411 -0.1135  0.0830
17865W        W34339  10.928   3.890  11.982  0.1592 -0.1249  0.0381
17866W        W34340  12.364  17.234  12.486 -0.1112  0.1419  0.1351
17867W        W34341  10.118   5.566  14.387  0.2416 -0.4492  0.1888
17868W        W34342  14.513  19.198  12.850  0.1817 -0.1033 -0.0379
17869W        W34343  17.609   4.919   4.489  0.0775  0.1615  0.1915
17870W        W34344   4.839  16.765   5.435  0.1052  0.2344  0.0515
17871W        W34345   3.302  13.684   9.517  0.4151  0.0032  0.0514
17872W        W34346   4.986   4.711  10.815  0.0795  0.0843 -0.3842
17873W        W34347  18.640  18.125   1.068 -0.1388  0.1640 -0.0010
17874W        W34348   9.644  12.854   3.642 -0.0779  0.3359  0.1286
17875W        W34349   9.330   9.446   2.576  0.0296 -0.0322  0.1674
17876W        W34350  17.804  14.674   3.775  0.2384 -0.0633  0.2317
17877W        W34351  18.823   3.036   4.001  0.1128 -0.3108  0.0871
17878W        W34352   9.584   5.972  13.192  0.1687  0.1369 -0.0202
17879W        W34353   9.052  15.527   4.203  0.1334  0.1554 -0.1515
17880W        W34354   0.589  18.378  14.210 -0.0901  0.0186  0.1197
17881W        W34355   7.764  13.598  10.440  0.0661 -0.3258  0.3618
17882W        W34356  18.530  19.071  13.674 -0.1808  0.0485 -0.0232
17883W        W34357  16.823  14.794   4.140 -0.0338 -0.0603  0.4299
17884W        W34358  16.946  12.254   2.516  0.0268 -0.1982  0.0346
17885W        W34359  14.069   8.639  11.163 -0.1317 -0.2288  0.4653
17886W        W34360  14.838   4.652  14.601 -0.0932  0.1350  0.3578
17887W        W34361   8.565   3.576  11.593 -0.0778 -0.0011 -0.1411
17888W        W34362   6.602  16.738  11.115  0.2338  0.3776  0.0534
17889W        W34363  17.374   6.370   1.137 -0.3205 -0.1740 -0.1020
17890W        W34364   6.314   1.382  10.939  0.2206  0.0918 -0.3002
17891W        W34365   4.956  19.486  11.162 -0.1612 -0.0336  0.1301
17892W        W34366   9.520   8.666  12.318 -0.1522  0.1274 -0.1879
17893W        W34367   5.667  13.879   9.694 -0.0513 -0.1830 -0.1224
17894W        W34368  14.448   7.562   1.873 -0.0207 -0.0070  0.0918
17895W        W34369  17.327  15.854   5.760  0.1632  0.0712 -0.3756
17896W        W34370   2.278   8.983  11.401  0.0116 -0.1742  0.1125
17897W        W34371  10.686   4.546  11.153  0.1159 -0.1423  0.2529
17898W        W34372   6.260   2.817   2.338  0.2656  0.2487 -0.2699
17899W        W34373   2.591   8.151   1.970  0.0398  0.1486  0.0976
17900W        W34374   2.410   0.118   1.650  0.0420  0.0618  0.1040
17901W        W34375   4.195   3.132  14.244 -0.0982 -0.0423  0.1255
17902W        W34376   7.388   2.201   0.556 -0.4594 -0.0581 -0.0010
17903W        W34377   4.079   1.019  14.560  0.1833 -0.4411 -0.2412
17904W        W34378   8.346   6.120  10.370 -0.0132 -0.2083 -0.1856
17905W        W34379   0.470   1.176  11.402 -0.0819  0.4952 -0.1159
17906W        W34380  19.258  16.248   2.909 -0.0030  0.0623 -0.0111
17907W        W34381   9.518   1.626   2.894  0.3128 -0.2672  0.3564
17908W        W34382   0.190  12.583   2.419  0.4086 -0.0225 -0.0888
17909W        W34383  17.113  12.473   3.525 -0.0726  0.0327  0.3398
17910W        W34384   2.643   3.892   2.813 -0.1762 -0.2550 -0.1848
17911W        W34385  15.597   1.470  10.169 -0.2010  0.2735  0.0607
17912W        W34386  18.867   3.493   0.871  0.0089 -0.0871 -0.2248
17913W        W34387   7.930  15.327  12.840 -0.2938 -0.1819  0.2411
17914W        W34388   4.327  19.561  12.927 -0.0487 -0.3020 -0.0704
17915W        W34389   3.603   0.341  10.073  0.4016  0.2027 -0.1008
17916W        W34390  19.140  15.220  12.433 -0.0729 -0.0344 -0.1444
17917W        W34391   8.911   6.336  13.018  0.3201 -0.0009 -0.1713
17918W        W34392   6.751  12.013   4.466 -0.2478 -0.0998 -0.1516
17919W        W34393   4.147  12.089   3.833 -0.4147  0.0416 -0.2003
17920W        W34394   6.925   1.051  12.272 -0.0392 -0.0016  0.1745
17921W        W34395  15.460   7.524  14.345  0.1562  0.2092 -0.0431
17922W        W34396  17.158   2.182  12.115 -0.1238  0.0010  0.1743
17923W        W34397  14.838   9.607   3.991 -0.0102 -0.0061 -0.1662
17924W        W34398  16.793  15.676   1.234  0.0586  0.0456  0.3494
17925W        W34399   5.528   4.322   4.418  0.0596 -0.1465  0.0560
17926W        W34400  18.325  16.384  12.949  0.1353  0.0659  0.3684
17927W        W34401  14.461  18.317  12.879 -0.1752  0.0609  0.1918
17928W        W34402   4.174  16.913  10.216  0.0812  0.1957 -0.1257
17929W        W34403   8.949  12.814  13.497 -0.3810  0.1722  0.1102
17930W        W34404  12.432  15.500  11.261 -0.2155 -0.2190 -0.0484
17931W        W34405  12.453  11.415   0.444  0.3396  0.0761  0.3520
17932W        W34406  17.030  15.592  13.923 -0.2425  0.2062  0.4438
17933W        W34407  18.263  19.480   2.643 -0.2143  0.3523  0.2244
17934W        W34408  12.880   5.135   1.942  0.2462  0.3096  0.1339
17935W        W34409   6.790  18.661   9.218  0.1817 -0.1220  0.2641
17936W        W34410  15.255  15.400   0.759 -0.0231  0.0727  0.2874
17937W        W34411  10.315   6.824   3.453  0.1598 -0.2592 -0.4656
17938W        W34412   2.585   9.294   4.732  0.0981  0.1337 -0.1224
17939W        W34413  15.054   4.471   4.604 -0.0340 -0.1359 -0.2676
17940W        W34414   4.870  14.730   3.800 -0.0294 -0.0255 -0.1966
17941W        W34415  14.745   3.705   1.366  0.0814 -0.3071  0.1754
17942W        W34416   1.191   9.861   1.579 -0.1114 -0.1405 -0.0148
17943W        W34417  12.673   9.806  10.785 -0.0883  0.1373  0.2445
17944W        W34418   8.426  11.193  11.622  0.0534  0.0128  0.0319
17945W        W34419   3.263   4.028  12.202 -0.2743 -0.0774  0.0329
17946W        W34420  15.473   4.391   1.151  0.1062  0.0428  0.0212
17947W        W34421  17.092   7.365   2.570  0.3070  0.2513  0.1866
17948W        W34422   0.645   5.493  11.756 -0.1304  0.0482  0.2829
17949W        W34423  12.319  11.927  13.496  0.1125  0.1626  0.1342
17950W        W34424  16.655  17.233  13.380 -0.0669  0.1119  0.1828
17951W        W34425   7.111  11.219   3.614 -0.1125  0.4239 -0.2645
17952W        W34426  15.813  17.771   1.062 -0.0625 -0.1511 -0.2149
17953W        W34427  11.320  13.590  11.125  0.0493 -0.2517 -0.1473
17954W        W34428  12.661  15.529  12.978  0.0945 -0.2474  0.2498
17955W        W34429   0.578  11.456   3.307 -0.0701  0.0780 -0.0752
17956W        W34430  16.654   5.533  12.946 -0.3043 -0.0463  0.1010
17957W        W34431  17.293  12.741  14.446  0.3667  0.0001 -0.0353
17958W        W34432   8.310   0.271   3.571 -0.3348  0.0741  0.0032
17959W        W34433  10.813   1.164   4.919  0.0265  0.1740 -0.0441
17960W        W34434   9.720   8.679   1.203  0.2579 -0.1893 -0.0844
17961W        W34435   0.427  17.090   3.813 -0.0728  0.1417 -0.0326
17962W        W34436  10.814  11.453  12.035  0.1641  0.3294 -0.0521
17963W        W34437   4.705   5.066   3.926  0.1460 -0.0817 -0.0586
17964W        W34438  16.098  10.439   0.768 -0.1658  0.0703 -0.1924
17965W        W34439  19.341   2.076  10.133 -0.3317 -0.0445 -0.1190
17966W        W34440   8.239  17.469   0.112 -0.4275 -0.0412 -0.2144
17967W        W34441  13.785   5.233  13.077  0.0170 -0.0201 -0.3926
17968W        W34442  17.067   2.650  12.808  0.0501 -0.3422 -0.0596
17969W        W34443   1.605  18.387   3.119  0.1384 -0.1071  0.0261
17970W        W34444  10.162   8.564   2.380 -0.3254 -0.0436  0.1853
17971W        W34445   4.957  12.263  12.508 -0.0807 -0.3161 -0.0932
17972W        W34446   2.671   4.604   1.109  0.0234  0.1539 -0.0761
17973W        W34447  18.917   0.333  10.749  0.1660  0.1294  0.2207
17974W        W34448  11.937   6.325  11.477  0.1160 -0.1047  0.0554
17975W        W34449   3.512  15.914   4.386  0.1221  0.2623 -0.1030
17976W        W34450  15.079   7.235   0.842  0.0852  0.4968 -0.0297
17977W        W34451   5.170   2.079  10.525  0.0321 -0.0695  0.1628
17978W        W34452  14.221  11.404   3.223  0.2090 -0.2905 -0.0828
17979W        W34453  15.470  14.476   3.508 -0.0618  0.1490  0.1529
17980W        W34454   8.469  14.222  10.019 -0.1670 -0.2571  0.0086
17981W        W34455   5.696   8.912  12.472 -0.0026  0.1035 -0.2497
17982W        W34456   5.066  14.463   4.662  0.4072  0.2326  0.5312
17983W        W34457  16.235  19.496   4.503  0.0877 -0.0851 -0.0301
17984W        W34458  12.150   3.037  13.765 -0.1664  0.1809 -0.2074
17985W        W34459  18.223   1.319  11.882 -0.4158 -0.0570  0.1459
17986W        W34460   8.398  17.327   3.792 -0.3143 -0.0280  0.1156
17987W        W34461  14.856  16.721  12.115  0.2428 -0.0244  0.2893
17988W        W34462   8.545  18.416  11.104  0.1486  0.2203 -0.1563
17989W        W34463   1.730   2.014   1.435  0.1082  0.1257  0.0794
17990W        W34464  18.618   4.339   2.273  0.0363  0.2540 -0.0042
17991W        W34465  11.657   4.859  12.771 -0.1481 -0.2060  0.1507
17992W        W34466   6.234   2.904   3.509 -0.0140 -0.0877 -0.0083
17993W        W34467  19.061   1.006  12.931  0.2095 -0.0320  0.1788
17994W        W34468   6.831  16.846   0.835 -0.0097 -0.1335  0.1784
17995W        W34469  16.648  13.531  11.714 -0.0659 -0.3253 -0.1614
17996W        W34470   6.370   1.768   4.929  0.1258 -0.2755  0.1776
17997W        W34471   5.719  11.129   0.331  0.0655 -0.2187 -0.2750
17998W        W34472  15.864   3.347   9.006 -0.0251  0.0014 -0.3466
17999W        W34473   8.840   2.106  13.420  0.1072  0.0894 -0.0159
18000W        W34474  18.397  10.405   0.396  0.2710  0.0017  0.2612
18001W        W34475  13.548  11.654   4.622  0.0495 -0.0901  0.0416
18002W        W34476   3.022   2.412   1.484 -0.2826 -0.0664 -0.1743
18003W        W34477  19.433  14.124  10.356 -0.1206  0.0158  0.3235
18004W        W34478   7.639   2.822  12.217  0.1045 -0.0617 -0.2919
18005W        W34479  16.545   2.742   4.107 -0.0172 -0.0423  0.2466
18006W        W34480  15.685   6.296   1.636 -0.0456  0.0666  0.2947
18007W        W34481  17.703  11.658   4.321  0.0629  0.0458 -0.0340
18008W        W34482  18.622   5.253  14.336  0.0422  0.0284 -0.3024
18009W        W34483  18.319  13.132   2.487 -0.1447 -0.2430  0.0875
18010W        W34484   1.671  15.234   3.200  0.0112  0.3853  0.2691
18011W        W34485   1.045   8.453  10.523  0.0708 -0.1598 -0.1969
18012W        W34486  16.738   5.881  14.658  0.0502 -0.0393  0.1253
18013W        W34487  15.177  12.258   0.516  0.1291 -0.0083 -0.0701
18014W        W34488  11.719   3.777  10.408  0.0499  0.2612  0.0100
18015W        W34489   4.908   6.570   4.161  0.1205 -0.1704  0.1651
18016W        W34490   0.588   6.861  13.689  0.1196 -0.1338  0.0857
18017W        W34491  18.638  15.839  13.019  0.1316 -0.1495  0.0412
18018W        W34492  16.344   2.837  13.943  0.1837  0.2241 -0.3216
18019W        W34493   6.405   1.291   4.268  0.0252 -0.1701 -0.0790
18020W        W34494   1.281   9.208   0.734 -0.0145  0.0150  0.2130
18021W        W34495  18.636   6.632   3.250 -0.0371  0.4528  0.2124
18022W        W34496   8.987  10.153  10.673  0.0505  0.0294 -0.0744
18023W        W34497  18.222   0.310  11.597  0.0561 -0.0366 -0.0474
18024W        W34498   1.663  17.314   0.525 -0.1194  0.3806 -0.0312
18025W        W34499  15.866  18.035   3.553  0.1281 -0.1579  0.2998
18026W        W34500  10.099   5.402  10.132  0.0896  0.0517  0.1379
18027W        W34501  18.796   8.219  12.656  0.0969  0.0696 -0.2805
18028W        W34502  11.371   7.279  14.508 -0.0665 -0.0550 -0.1203
18029W        W34503   1.960   8.140   1.156 -0.3176 -0.1074 -0.1094
18030W        W34504   7.100  18.411   3.212 -0.1511 -0.1540  0.3636
18031W        W34505   7.820   6.895  13.701 -0.1512  0.0688  0.4354
18032W        W34506  13.370   7.960   1.696 -0.1490 -0.0283  0.2898
18033W        W34507   0.935   5.312  10.645  0.0074  0.1687  0.1529
18034W        W34508   0.248  13.073   4.562 -0.1272 -0.2989  0.0535
18035W        W34509  13.592  10.569   4.814 -0.2252  0.2763  0.0271
18036W        W34510   7.072   3.320  12.867  0.2109  0.2139 -0.0586
18037W        W34511  15.964  16.249  12.693  0.2391  0.2654  0.0888
18038W        W34512  19.066   3.132   0.285  0.0865  0.0895 -0.2200
18039W        W34513  18.260  12.383  12.604  0.1984  0.0544 -0.1535
18040W        W34514   0.639  14.676   2.028 -0.2889  0.0051 -0.3565
18041W        W34515  15.062   0.371  10.107  0.1195 -0.1294  0.2484
18042W        W34516   0.091  15.265  13.024  0.1459 -0.1540 -0.1719
18043W        W34517  18.620   0.486   9.935 -0.1165 -0.1938 -0.3543
18044W        W34518  13.558  17.023  14.172  0.0314 -0.1212  0.2420
18045W        W34519  10.092  13.296   4.598  0.2509  0.0335  0.0784
18046W        W34520  15.152   0.480   5.290 -0.1071  0.0773  0.3296
18047W        W34521  13.243   1.547   1.216 -0.4439  0.0159 -0.3093
18048W        W34522  16.174  13.161   3.402  0.0076 -0.4207 -0.1709
18049W        W34523   6.131   7.037   1.440 -0.6378  0.1183 -0.0855
18050W        W34524   8.735   9.500  14.530  0.0718  0.0080  0.2902
18051W        W34525   1.905  16.595   9.497 -0.1530 -0.1378 -0.4254
18052W        W34526  18.077  15.548  10.087  0.0047  0.0405  0.0163
18053W        W34527   1.780   7.840   3.039 -0.1415 -0.2726 -0.1714
18054W        W34528   4.777  17.397  10.632  0.0800  0.1833 -0.0216
18055W        W34529  15.398   9.615  10.928 -0.1316  0.1498  0.1504
18056W        W34530   7.302   9.272  14.595 -0.0800  0.1711  0.2850
18057W        W34531   6.035  19.255   3.068  0.1459 -0.1540 -0.2767
18058W        W34532   2.778   6.584   0.256  0.0075 -0.0973  0.2760
18059W        W34533  16.402   8.108  10.427 -0.0933  0.3478 -0.0334
18060W        W34534  15.146   2.316   4.289  0.0932  0.1987  0.1112
18061W        W34535   2.750   4.843  11.058  0.0985 -0.0971  0.1229
18062W        W34536   1.877   2.352  11.980 -0.0165 -0.0227  0.2193
18063W        W34537  17.305   3.503   0.220 -0.0331 -0.0837 -0.1579
18064W        W34538   2.278  10.025  11.278 -0.0192 -0.1491 -0.0230
18065W        W34539   2.765  11.649   0.467 -0.2333 -0.0204  0.1144
18066W        W34540  12.653  18.948  10.770 -0.0037  0.2788 -0.1515
18067W        W34541   2.605   3.361  11.964 -0.2918  0.0321  0.2027
18068W        W34542   8.291   1.424   0.958  0.3030 -0.0158  0.3091
18069W        W34543  14.026  14.894   0.449 -0.2892 -0.1151 -0.2621
18070W        W34544   9.646   8.809  11.721  0.1376  0.2770 -0.1870
18071W        W34545   6.262   5.079  12.462  0.0299 -0.3308 -0.1724
18072W        W34546   2.287   7.782  12.812 -0.0623  0.1926  0.2219
18073W        W34547  11.988   9.126   0.547 -0.1575  0.4285  0.1887
18074W        W34548  14.884  14.017   1.010 -0.1085  0.3912  0.2025
18075W        W34549  11.695   5.757  11.504  0.2584  0.0090 -0.0592
18076W        W34550  12.446  19.117   3.154 -0.3940 -0.1210 -0.3005
18077W        W34551   0.490   9.919  11.687  0.1276 -0.0072  0.0030
18078W        W34552   4.620   8.526   3.453 -0.0360 -0.0177 -0.0644
18079W        W34553   8.636   6.597  10.275  0.0909 -0.3891  0.3248
18080W        W34554   3.749  12.731   9.647 -0.1560  0.0136  0.0867
18081W        W34555   5.002   6.958   3.231  0.0828 -0.0991  0.0177
18082W        W34556   7.184  10.460   5.461 -0.0425 -0.1360  0.1614
18083W        W34557  17.337   4.077   3.477 -0.2368 -0.1157  0.1807
18084W        W34558  16.759  16.045   1.670 -0.1217  0.1044 -0.1675
18085W        W34559  16.970   7.327  13.810 -0.0318  0.2566 -0.1087
18086W        W34560   4.371   4.894  11.679 -0.2382  0.0040  0.0157
18087W        W34561  17.544  13.817   3.306  0.1041  0.0671  0.3897
18088W        W34562   2.147  13.048   5.348 -0.2431  0.0925 -0.1450
18089W        W34563   5.137   6.073   2.133  0.2059  0.2375  0.0119
18090W        W34564  14.480   8.524   1.189 -0.0561  0.0326 -0.2468
18091W        W34565  14.418  16.108   1.107 -0.2753  0.0541  0.2108
18092W        W34566  15.524  11.587   2.732 -0.1753 -0.0126 -0.0575
18093W        W34567   6.772  13.506  10.842 -0.1584 -0.2643  0.2084
18094W        W34568   5.378   0.816   3.160  0.1283 -0.0561  0.2440
18095W        W34569   5.854  13.918   2.575 -0.2962 -0.1524 -0.3255
18096W        W34570  19.417   0.408  10.671  0.3469  0.0525 -0.1533
18097W        W34571   2.049  14.675   3.116  0.0344  0.4075  0.1883
18098W        W34572   1.069  19.333  12.437 -0.0973  0.1285  0.0530
18099W        W34573  16.789  13.273  10.562 -0.4008 -0.1959 -0.0168
18100W        W34574   6.543  17.177  11.271 -0.1833  0.0663 -0.1135
18101W        W34575   2.213  14.302   0.018  0.3102  0.0620 -0.1013
18102W        W34576   4.801   3.370  13.437 -0.1098  0.0238 -0.1002
18103W        W34577   0.879  11.888   3.445  0.1303 -0.2974  0.1482
18104W        W34578  13.608   7.463  10.775  0.2336 -0.2114 -0.0235
18105W        W34579   6.989   5.777  10.931  0.1463 -0.0834 -0.0027
18106W        W34580   6.288  16.991   9.659  0.2507 -0.3307  0.1132
18107W        W34581  15.613  18.966  13.794 -0.0210  0.0850 -0.0339
18108W        W34582   5.975  16.119   1.379  0.0715 -0.0391 -0.4357
18109W        W34583   4.284  14.350   1.816 -0.1162  0.1537  0.2987
18110W        W34584   1.372  18.537  10.342 -0.0563 -0.0629 -0.1625
18111W        W34585  12.891   2.077   0.400 -0.0286  0.0184  0.0254
18112W        W34586  15.597   1.000  10.329 -0.1621  0.1395  0.0167
18113W        W34587  16.863  16.046   3.039  0.0614  0.0625 -0.2541
18114W        W34588   8.988  14.658  14.070 -0.1309  0.1194  0.1328
18115W        W34589   5.849  16.321   0.501  0.1029 -0.0498  0.1219
18116W        W34590   1.569  16.486   2.488  0.0412  0.1246 -0.0227
18117W        W34591   8.201   6.878   4.084  0.0107 -0.3280 -0.2639
18118W        W34592   5.351   3.313  13.360 -0.1403 -0.0155 -0.2098
18119W        W34593  18.224  16.648   3.916 -0.2582 -0.2476  0.2068
18120W        W34594  10.807  12.985   1.094  0.1311 -0.3288  0.0567
18121W        W34595   8.527  14.766   3.440  0.0958 -0.2240 -0.1688
18122W        W34596   3.546  16.878   3.531  0.0261 -0.1981 -0.4695
18123W        W34597  11.873  18.387  14.627  0.2742  0.2994 -0.0666
18124W        W34598   7.167   2.800   1.837 -0.1915 -0.0961  0.1047
18125W        W34599  17.580   5.699  12.679 -0.0430  0.1423 -0.0919
18126W        W34600   6.954   8.271   0.684  0.1132  0.2400 -0.1623
18127W        W34601   7.668  12.392  10.547 -0.0847  0.0318 -0.2659
18128W        W34602   5.395  13.692   2.213  0.0895  0.3029 -0.1916
18129W        W34603   1.816   0.963  14.205  0.0570  0.1710  0.1887
18130W        W34604   7.433  18.267  12.856  0.1902 -0.4520  0.3606
18131W        W34605   0.450  12.421  11.801  0.2434 -0.0958  0.1838
18132W        W34606   3.080   5.211  10.832  0.0591 -0.2536 -0.2127
18133W        W34607  16.585   3.140   3.813 -0.1418  0.0946 -0.3194
18134W        W34608   5.436   5.433  13.651 -0.3296 -0.2795  0.1276
18135W        W34609  14.409   8.735  12.566 -0.0303 -0.1473  0.1170
18136W        W34610   9.528   6.490   0.618  0.1129 -0.0313  0.1293
18137W        W34611   1.825  12.474  12.480  0.0640  0.0805 -0.1211
18138W        W34612   1.339  16.830   2.052  0.1257  0.1914 -0.1961
18139W        W34613  18.509  14.991   5.146 -0.2252 -0.0598 -0.0582
18140W        W34614   0.046  16.240   3.724 -0.1407 -0.3308  0.0286
18141W        W34615   1.486   4.971  11.626  0.1490  0.2879  0.0699
18142W        W34616  10.022   2.833  13.020  0.1531  0.1914  0.2385
18143W        W34617  16.510  15.443  12.498  0.1111 -0.0723 -0.1165
18144W        W34618  11.276   6.719  12.084  0.1653 -0.3257 -0.1069
18145W        W34619   7.184  17.539   4.302  0.0670  0.2001  0.1696
18146W        W34620   3.600   1.190  13.635 -0.0515 -0.0638 -0.0802
18147W        W34621   9.170  19.256   4.890  0.3750  0.4042 -0.0408
18148W        W34622   9.247   8.535   3.361 -0.4540 -0.1839 -0.1292
18149W        W34623   5.488   6.445  12.576  0.2129  0.1769  0.0685
18150W        W34624  10.876   1.811   4.729 -0.1565 -0.1146  0.1622
18151W        W34625  13.791   5.139   4.238 -0.0500 -0.2674  0.1013
18152W        W34626  19.216   3.284   5.178 -0.1504 -0.2034  0.1905
18153W        W34627  18.823   6.987  10.380 -0.1720  0.0177  0.1328
18154W        W34628   3.708   3.938  11.483 -0.0548 -0.0628 -0.0227
18155W        W34629   7.047  19.370  11.738 -0.2850  0.2928 -0.1665
18156W        W34630  14.316  10.217  13.982  0.1638 -0.3178 -0.2803
18157W        W34631   0.981   0.216   2.258 -0.2279  0.4646 -0.1350
18158W        W34632   6.501  12.713  11.395  0.2377 -0.1270 -0.1936
18159W        W34633  17.923  11.366   2.108  0.0979  0.2482  0.1850
18160W        W34634   1.020   2.281   2.472 -0.1628  0.1373 -0.1618
18161W        W34635   9.497   6.342   3.360  0.1157 -0.2474 -0.2431
18162W        W34636  12.249   6.218   3.190  0.3117 -0.1054 -0.0722
18163W        W34637   5.560  19.407  14.575 -0.0096  0.1459  0.4447
18164W        W34638   2.300  16.401   3.752  0.2093  0.2853 -0.0439
18165W        W34639   6.290  13.465   0.060  0.2748  0.5108  0.0364
18166W        W34640   0.646  12.272   3.597  0.0047 -0.0421 -0.1578
18167W        W34641  18.129  19.389   1.568  0.1673  0.2834  0.0016
18168W        W34642   1.460  10.194  12.977 -0.1097  0.1264 -0.1719
18169W        W34643   7.995   7.757  13.900  0.2751  0.1301  0.1780
18170W        W34644   7.499   2.587   3.067  0.0800  0.0740 -0.0273
18171W        W34645  10.448  13.708   1.391 -0.0667 -0.3828  0.1526
18172W        W34646  10.486   9.228  13.198 -0.0652 -0.1024  0.0431
18173W        W34647  11.477   6.713   0.376 -0.2179 -0.0155  0.1569
18174W        W34648  18.257   1.459   1.079  0.0975  0.3520 -0.1160
18175W        W34649   9.056  17.259   4.464  0.0088 -0.1481  0.1599
18176W        W34650   3.371   1.966  14.219  0.1048 -0.0942  0.2623
18177W        W34651  19.570  13.162  12.863  0.4202  0.1554  0.0433
18178W        W34652   8.903  10.252   4.756 -0.0199  0.3503  0.0089
18179W        W34653  18.484   7.574   1.836 -0.1029  0.1378 -0.0695
18180W        W34654   2.734   7.437  10.602  0.1150 -0.0761  0.1579
18181W        W34655   3.530   1.280   1.951  0.2190 -0.0935  0.1437
18182W        W34656   1.914  17.367   3.651 -0.1838  0.4597 -0.0449
18183W        W34657   9.695   1.078  10.397 -0.0449 -0.4197 -0.1647
18184W        W34658  18.156  10.547   1.055 -0.1064  0.3511 -0.1979
18185W        W34659   5.944   2.144   2.413  0.0114 -0.0428 -0.0828
18186W        W34660  13.869  12.206   3.853 -0.0052  0.3520 -0.2357
18187W        W34661   0.780  12.441   4.192 -0.1283  0.0250 -0.3159
18188W        W34662   5.594  12.817  10.761  0.0489 -0.0373 -0.1439
18189W        W34663   7.862  16.214  11.131 -0.0245  0.1117 -0.0251
18190W        W34664  14.795  13.060  12.014 -0.4881 -0.1051  0.2725
18191W        W34665  14.655  17.273  12.924  0.0841 -0.1794  0.3173
18192W        W34666  13.033  14.191  12.027  0.2778  0.2227 -0.1074
18193W        W34667  14.358   0.220  12.732 -0.1856 -0.1238 -0.5465
18194W        W34668  10.766  14.523   3.792  0.0237 -0.0105  0.3058
18195W        W34669  16.096   0.530  13.891  0.0543  0.1593  0.0141
18196W        W34670  16.362   6.812   0.151 -0.1818  0.1957  0.0624
18197W        W34671  15.367   5.895   4.373 -0.3514  0.2227  0.1054
18198W        W34672  12.173  16.942   1.340  0.1729  0.0277  0.0022
18199W        W34673   6.187   5.708   3.778 -0.2392 -0.2782 -0.1211
18200W        W34674   7.005  16.575  13.082 -0.2084  0.0894  0.0347
18201W        W34675   4.397   4.384  12.489 -0.2646 -0.1890 -0.1275
18202W        W34676   1.986  18.500  12.854  0.0755  0.1605 -0.1455
18203W        W34677  15.055   7.536  12.674  0.0190  0.3108 -0.1097
18204W        W34678  12.530  18.059  14.554 -0.3057  0.0428 -0.1973
18205W        W34679  15.196   4.937   1.524  0.1194  0.3086  0.1400
18206W        W34680  16.535   8.140   1.038 -0.1653 -0.1019  0.0453
18207W        W34681   9.633  15.268   2.730  0.0469  0.1036  0.0169
18208W        W34682  10.681   1.322   2.231  0.0955 -0.3443  0.1856
18209W        W34683   2.021   1.791  10.135  0.1660  0.2028 -0.3034
18210W        W34684   2.933  10.571  11.098  0.0497 -0.0792 -0.1696
18211W        W34685   8.107   3.046  14.236  0.2845  0.0247 -0.1956
18212W        W34686   7.878  12.306  13.227 -0.2431 -0.1629 -0.3748
18213W        W34687   8.344  14.329   3.225  0.3027  0.0164  0.0439
18214W        W34688  11.276   4.638  12.521  0.1814 -0.2474 -0.1024
18215W        W34689  18.830   2.368  11.336  0.2027 -0.2018 -0.2229
18216W        W34690   2.363   6.603   0.472  0.2655  0.0231  0.2289
18217W        W34691  17.355   3.562   3.488  0.1356 -0.0382  0.1584
18218W        W34692  16.223   7.705  12.480  0.5191 -0.3274 -0.0926
18219W        W34693   2.421  16.341  10.488 -0.0295 -0.0160  0.0368
18220W        W34694  10.603   6.229  12.338 -0.0646 -0.5209 -0.0879
18221W        W34695  11.682  14.436  10.721  0.1083  0.0832  0.0307
18222W        W34696  11.178   1.017  11.195 -0.6292  0.0740 -0.0221
18223W        W34697  17.629   5.619  10.358  0.0496  0.0851 -0.3609
18224W        W34698   2.436   8.490   0.774 -0.1311 -0.2886 -0.3326
18225W        W34699   3.550  12.984   0.051 -0.2847  0.3059  0.0653
18226W        W34700  18.848  14.652   1.002  0.0236 -0.0079 -0.2370
18227W        W34701  16.742  11.599   0.163 -0.1196 -0.1489  0.0786
18228W        W34702   4.753  12.956   2.689  0.1871  0.3078 -0.0550
18229W        W34703  12.609  14.930  11.710 -0.1605 -0.1609 -0.0620
18230W        W34704  13.262   9.000   1.422  0.1188  0.1364  0.1140
18231W        W34705   8.884  14.641   1.341 -0.2792  0.0908 -0.1276
18232W        W34706  10.086   3.138   0.008  0.1231  0.1284  0.4546
18233W        W34707   6.335  17.495  13.285 -0.0833 -0.3389 -0.0146
18234W        W34708   0.678   0.939   3.679 -0.0781  0.0226 -0.3515
18235W        W34709  15.561   0.152  11.341 -0.1555  0.0980  0.0915
18236W        W34710  14.142  14.070   0.175 -0.1324  0.3347  0.1716
18237W        W34711   7.162   3.005   2.470  0.1672  0.1136  0.1152
18238W        W34712  19.569   3.051  11.984  0.1370  0.0510  0.1343
18239W        W34713   1.346   6.061   2.787 -0.0083  0.0991  0.0693
18240W        W34714   3.842   4.917  13.938  0.1544  0.0506  0.2249
18241W        W34715  14.862  12.366   0.967 -0.0579 -0.0119 -0.1470
18242W        W34716  15.581  10.056   3.032 -0.0310  0.0145  0.0693
18243W        W34717  15.865   6.360  11.488 -0.2584  0.0405 -0.3339
18244W        W34718   4.225   4.649   4.667 -0.1644  0.2734  0.1329
18245W        W34719   4.692   6.156  13.032 -0.2513 -0.2168 -0.0541
18246W        W34720  12.220  11.815  14.335 -0.2772  0.2510  0.0517
18247W        W34721   4.103  10.355  11.645 -0.0882  0.0017 -0.0240
18248W        W34722   4.748  10.203   1.470 -0.1340  0.1114  0.1500
18249W        W34723   4.463  15.619   4.699  0.3098  0.0664  0.0611
18250W        W34724   5.644   5.692   1.414  0.0780  0.0385  0.1271
18251W        W34725   9.000   9.852  12.428  0.1311  0.0475  0.0184
18252W        W34726   3.401  12.692  11.660  0.1354 -0.3734  0.0590
18253W        W34727   7.784  16.299  10.630  0.0749  0.1682  0.0882
18254W        W34728   4.967   0.334  12.566  0.0471 -0.2886 -0.3050
18255W        W34729  10.023   5.888   1.946  0.2333  0.3997 -0.1307
18256W        W34730  19.522   5.052  10.588  0.1954 -0.0821 -0.2640
18257W        W34731   6.738   4.153  11.032  0.0632  0.0972  0.1780
18258W        W34732   8.129   2.692  11.560 -0.1804 -0.2200  0.0172
18259W        W34733  10.789  12.264  13.948 -0.1093 -0.1838  0.1368
18260W        W34734  12.027  12.634  14.501 -0.0719 -0.0166 -0.3534
18261W        W34735   4.660  17.642  11.186  0.2992  0.0162  0.2049
18262W        W34736  19.596   4.419  13.808 -0.1687 -0.0802  0.1312
18263W        W34737   8.269   2.043   2.309 -0.0346 -0.2112 -0.1498
18264W        W34738  17.847   2.600   4.127  0.1954 -0.2407 -0.4064
18265W        W34739   6.585  15.810   3.885  0.0916  0.0278 -0.2141
18266W        W34740  13.051   4.894  12.357  0.0711  0.0389 -0.0772
18267W        W34741   8.569  11.997   2.844 -0.3551  0.1130  0.0641
18268W        W34742  15.421   9.060   1.047 -0.0391  0.1377 -0.0981
18269W        W34743  11.334   2.181  10.545  0.0826 -0.0832 -0.0759
18270W        W34744   0.862  18.674   1.494  0.3534  0.3201 -0.0075
18271W        W34745  18.707  16.872   0.479  0.1645  0.2571  0.2477
18272W        W34746   8.430  13.641   1.030  0.0385  0.2155 -0.1479
18273W        W34747   2.912  15.217   1.713 -0.0826 -0.2199  0.1688
18274W        W34748   0.581   1.127   4.489  0.0257  0.3770  0.1253
18275W        W34749   1.977  19.076   0.969  0.5278  0.0107 -0.0255
18276W        W34750  12.529  18.260  13.315 -0.4041  0.2916 -0.0025
18277W        W34751  18.785  16.908   3.057 -0.1680  0.0594 -0.2069
18278W        W34752  11.032   5.702   0.886  0.1927 -0.0383 -0.0403
18279W        W34753   4.490   0.227   0.637  0.3633  0.2495  0.0067
18280W        W34754   1.638  10.720   0.068  0.1085  0.1114  0.0302
18281W        W34755  11.564  19.088   3.621  0.4055  0.2304  0.0915
18282W        W34756  15.664  17.807   4.022  0.5524 -0.1211  0.2640
18283W        W34757  12.226  12.186   0.593 -0.1391  0.0731 -0.0401
18284W        W34758   0.346  17.684  10.886  0.2559 -0.0729 -0.0229
18285W        W34759  18.486  19.611   1.207 -0.0717 -0.2779 -0.0990
18286W        W34760   6.812   4.487   4.096  0.0611 -0.1364  0.1340
18287W        W34761  13.645  18.541   1.969 -0.3335 -0.1473 -0.0786
18288W        W34762  13.812  10.915   2.395 -0.2772  0.0230 -0.2599
18289W        W34763   0.691  13.446   0.612 -0.1748  0.1223  0.1396
18290W        W34764  16.242  15.199   4.809 -0.2041  0.1274  0.0408
18291W        W34765  18.578  11.457   0.870 -0.2257 -0.3459  0.0781
18292W        W34766   0.043  16.033  11.456 -0.0691  0.0069  0.2476
18293W        W34767   9.920  12.526   3.146  0.3423 -0.2068  0.0136
18294W        W34768  14.172  16.364  11.916  0.1637 -0.0065  0.0239
18295W        W34769  15.720   4.023  13.418  0.2297 -0.1149  0.1307
18296W        W34770   6.356   8.525  11.256  0.0138  0.0727  0.2209
18297W        W34771  11.295  17.274   1.070 -0.0301 -0.0933 -0.3257
18298W        W34772   3.729  15.387   5.297  0.3114 -0.3253 -0.2250
18299W        W34773  15.673  12.200   4.186  0.1304  0.2251  0.0481
18300W        W34774   3.017   1.529  13.255  0.2377 -0.1864 -0.0650
18301W        W34775  13.181  10.870  11.440  0.0329  0.0075 -0.0518
18302W        W34776  11.686   4.204   3.833 -0.0004  0.2123  0.0503
18303W        W34777  10.279   2.799  12.564 -0.1606 -0.0938  0.0022
18304W        W34778  12.036   8.012  13.590 -0.2337  0.1658  0.0352
18305W        W34779  17.953   1.243   3.399 -0.1807  0.0273 -0.2157
18306W        W34780   5.310   8.636  12.346  0.0349  0.0251  0.0442
18307W        W34781  19.226  18.160  14.548 -0.0407  0.6480 -0.0569
18308W        W34782   6.501  11.878  12.590  0.0428 -0.1189  0.1061
18309W        W34783  12.607   6.887   3.505  0.1012  0.0061  0.0970
18310W        W34784  13.618   1.677  10.759  0.1345 -0.1344  0.0026
18311W        W34785   4.536  14.101  13.150  0.1625 -0.1229 -0.1571
18312W        W34786  10.804  11.540   2.726  0.0252  0.2212 -0.1507
18313W        W34787   0.695  17.852   3.003 -0.0206  0.0109 -0.2816
18314W        W34788  17.937   8.573  11.602 -0.2657  0.0455  0.2720
18315W        W34789   8.523  11.639   4.301 -0.2215 -0.1544 -0.1550
18316W        W34790   0.789  11.021  13.598 -0.1352  0.2156  0.0767
18317W        W34791  14.953   7.932  12.302  0.0198  0.1319  0.0108
18318W        W34792   7.906  19.535   4.272 -0.0494  0.0736 -0.2945
18319W        W34793  13.300   8.076   0.731 -0.1396 -0.4360  0.1730
18320W        W34794  10.503   0.862   4.445 -0.0286  0.0550 -0.1057
18321W        W34795   2.631  18.992  14.526  0.0370 -0.0181  0.1716
18322W        W34796  16.445   1.561  11.362  0.3244  0.0574  0.0836
18323W        W34797   0.783   5.113  12.065  0.2252 -0.0325  0.2159
18324W        W34798  13.866  14.435   0.746 -0.0272 -0.0314 -0.2538
18325W        W34799   9.340   5.083   3.299 -0.2453 -0.0205  0.0210
18326W        W34800  16.380  14.235  13.634  0.0905 -0.0313 -0.0310
18327W        W34801   7.396   9.854  11.936 -0.2300  0.1511  0.4186
18328W        W34802   3.009   6.338   0.632 -0.1596 -0.0364  0.0131
18329W        W34803   2.956  16.003   3.009  0.0549 -0.2150 -0.1645
18330W        W34804  11.212   0.627   0.833 -0.0470  0.0844  0.2678
18331W        W34805  17.900   2.370  14.088  0.0939  0.0130  0.0768
18332W        W34806   2.849   1.547  13.724 -0.0580 -0.0444 -0.1436
18333W        W34807  15.958  19.621  14.635  0.0646 -0.0313  0.1189
18334W        W34808  16.458   8.890   0.136 -0.2817  0.1612  0.1570
18335W        W34809  11.083  15.146  13.254  0.0614 -0.2201 -0.1238
18336W        W34810   1.832   5.463   0.836 -0.0669  0.0866  0.0552
18337W        W34811  18.079   7.893  12.050 -0.2817  0.1328  0.1991
18338W        W34812  12.238   9.124   1.486  0.0085  0.1174 -0.2325
18339W        W34813   3.965  14.506   1.361 -0.2408  0.3645 -0.2274
18340W        W34814  17.120  18.183  12.161 -0.1451  0.4049 -0.1719
18341W        W34815  19.397   4.006  14.168 -0.0815 -0.0011 -0.1139
18342W        W34816  12.308   1.727  14.522  0.2153  0.0125  0.1710
18343W        W34817  16.115   2.381   3.936  0.0424 -0.1256  0.3724
18344W        W34818   7.568  17.709   1.816 -0.0335  0.0975  0.0045
18345W        W34819   2.059  17.716   0.784  0.0944 -0.1658 -0.2150
18346W        W34820   1.946   6.492  13.886  0.0270 -0.0682  0.0612
18347W        W34821   5.096   4.085   4.384  0.2266 -0.1558  0.2199
18348W        W34822  13.701  11.958  10.838 -0.3546 -0.0951 -0.0024
18349W        W34823  10.473  19.510  12.602  0.3203  0.0712 -0.0655
18350W        W34824   7.916   8.486  13.213 -0.3919  0.2933 -0.0517
18351W        W34825  13.027   9.291  14.607  0.1156 -0.0425  0.2062
18352W        W34826   3.079  14.820  10.426  0.0394 -0.1156  0.3039
18353W        W34827  12.206   7.058   1.519 -0.0644  0.0117  0.0927
18354W        W34828  14.996  10.440   3.692  0.0200  0.0078 -0.3750
18355W        W34829  13.118  14.050  13.823  0.1241  0.1595 -0.0783
18356W        W34830  19.192   6.332  14.305  0.0213  0.1120  0.0802
18357W        W34831   6.737  11.480  12.178  0.0666 -0.3039 -0.0921
18358W        W34832  17.315   6.083  12.496  0.0656  0.0697 -0.0197
18359W        W34833  10.703  14.361   4.515  0.5034 -0.0117 -0.0964
18360W        W34834   6.722   7.241  12.788  0.1006 -0.0165 -0.1480
18361W        W34835   6.913  12.008  12.293  0.2213  0.0631 -0.2504
18362W        W34836   0.655  14.646   0.673 -0.3867 -0.0294 -0.0460
18363W        W34837   9.700   7.759  10.095 -0.0554  0.3152  0.1745
18364W        W34838   4.948  14.396   3.447 -0.1669 -0.1613  0.2396
18365W        W34839   8.693  18.920   1.000  0.0178  0.0195  0.4567
18366W        W34840  12.846   7.883  11.153 -0.0182 -0.2341  0.0053
18367W        W34841   6.968   1.881  13.369 -0.0369  0.0327 -0.0522
18368W        W34842  15.259  11.748   3.730 -0.0746 -0.1717  0.0533
18369W        W34843  19.293  13.585  13.113 -0.0670 -0.1242 -0.0277
18370W        W34844   0.041   6.341   1.871  0.0287  0.1228  0.3112
18371W        W34845   4.757   6.123   0.470  0.2165  0.0107  0.1951
18372W        W34846  11.793  19.296  12.613  0.1133 -0.4637  0.2899
18373W        W34847  19.266  18.987  12.315 -0.0434  0.0034 -0.1256
18374W        W34848   3.057   7.584   1.181  0.0050  0.0025  0.0828
18375W        W34849   0.927  13.485  10.477  0.5626 -0.0790 -0.1167
18376W        W34850  10.464   1.173   0.838  0.0899  0.1872  0.1551
18377W        W34851  14.354   8.363   2.893  0.1903  0.0744  0.2478
18378W        W34852   7.322   4.104  14.020  0.1273  0.0506  0.6691
18379W        W34853   6.842  15.397  11.177  0.0336 -0.4242  0.2075
18380W        W34854   0.286   1.732  11.862  0.0578  0.0343 -0.0538
18381W        W34855   0.857  14.347   5.463  0.4587  0.0202  0.2044
18382W        W34856  13.831  19.286  11.538  0.1189 -0.1120  0.0007
18383W        W34857   8.997  13.198   0.441 -0.2291  0.0075 -0.1440
18384W        W34858   3.328  15.623   5.557 -0.0715 -0.1081 -0.2201
18385W        W34859   8.847  11.697  10.842 -0.4555  0.1560 -0.0707
18386W        W34860  17.263   9.226   2.684 -0.1133  0.2075 -0.3220
18387W        W34861   8.351  18.622  12.647 -0.0443 -0.0037 -0.2750
18388W        W34862   0.290   2.643   2.391 -0.2228  0.0305 -0.0928
18389W        W34863   6.928   8.349  10.618  0.1722  0.0628 -0.0278
18390W        W34864   4.208  13.153   1.374  0.2166 -0.0602  0.1808
18391W        W34865  17.968  10.968  12.540  0.0152  0.0139 -0.3071
18392W        W34866  17.121   3.213  12.540 -0.2267  0.1974 -0.0124
18393W        W34867   9.914   4.879  12.378 -0.2442  0.2968  0.0640
18394W        W34868   4.023  12.987  13.138  0.0097 -0.0909 -0.1299
18395W        W34869  11.671  17.449   2.079  0.0436 -0.2442  0.0947
18396W        W34870   9.579   6.090   9.941  0.3196  0.0961 -0.1668
18397W        W34871   8.503   4.841   9.130 -0.2482 -0.2626 -0.0067
18398W        W34872  15.499   5.688   3.842  0.0040 -0.5345 -0.2549
18399W        W34873   8.092  15.532   1.317  0.1860 -0.3477  0.1383
18400W        W34874   2.650   9.116   2.828 -0.1705 -0.1678  0.1410
18401W        W34875  18.210   0.934  14.002  0.0898 -0.0110  0.3490
18402W        W34876   8.512  12.910   4.487  0.1920 -0.4870  0.1603
18403W        W34877  10.981  10.280   0.617 -0.1826  0.2272 -0.1592
18404W        W34878  15.412  12.131   5.552 -0.2350  0.0817  0.0787
18405W        W34879   4.188   2.227   1.648  0.0192  0.0793  0.0633
18406W        W34880  18.886  19.211   2.148 -0.0711 -0.0146  0.2147
18407W        W34881  14.268   9.820   4.865  0.0243  0.1449  0.3864
18408W        W34882  18.503  11.026  12.648 -0.1208 -0.0985  0.1318
18409W        W34883   0.412  18.508  11.430 -0.2760  0.2964  0.2188
18410W        W34884   2.582  13.641  10.838  0.1090  0.0432  0.2018
18411W        W34885   9.158  17.679   2.081 -0.0992 -0.5049 -0.2188
18412W        W34886   8.293  18.944   0.532  0.0538  0.1482 -0.0005
18413W        W34887  10.578   5.861   1.972 -0.2040 -0.1323 -0.0808
18414W        W34888   7.959   8.800   2.888 -0.3371  0.3379  0.1769
18415W        W34889  14.800   3.749   4.078  0.1652 -0.0100  0.3796
18416W        W34890  17.020  15.717   4.951 -0.0659  0.1482 -0.3356
18417W        W34891   5.877   5.890  11.962 -0.0126 -0.0304  0.0680
18418W        W34892  10.021   4.293   9.767 -0.0366 -0.0954  0.1151
18419W        W34893   6.628   6.861  12.426 -0.0140 -0.1229 -0.2303
18420W        W34894   0.877   7.232  14.032 -0.0046 -0.1980 -0.0207
18421W        W34895  15.952  17.407   1.513 -0.1582  0.3494  0.0122
18422W        W34896   8.712  19.314   2.376 -0.1408  0.0139 -0.1881
18423W        W34897   1.145   1.792  14.101 -0.1627 -0.2640 -0.1250
18424W        W34898   8.743  11.697   4.798 -0.0541 -0.0071 -0.1859
18425W        W34899  16.659   3.174   9.913 -0.0403 -0.0631 -0.1906
18426W        W34900   4.027  13.678  14.353 -0.2364  0.1864  0.2308
18427W        W34901   8.906   2.537   0.952 -0.2782  0.1227 -0.0239
18428W        W34902  11.849   7.087   0.227 -0.0846  0.3395 -0.2593
18429W        W34903   2.734   8.004  10.400 -0.2185 -0.2091  0.0746
18430W        W34904   8.212  15.545   4.891  0.1264  0.0280 -0.2505
18431W        W34905  16.892   9.270   9.819 -0.0302  0.0631  0.2120
18432W        W34906   9.800   8.797   2.093 -0.2319  0.0309 -0.1532
18433W        W34907   3.643   8.677   3.426  0.0085 -0.0745 -0.2523
18434W        W34908   3.629  13.280   3.855 -0.2830 -0.0035 -0.1544
18435W        W34909  14.677  16.134  13.526  0.0374 -0.1082 -0.0924
18436W        W34910   6.201  10.889   2.105 -0.1278 -0.3531 -0.0885
18437W        W34911   6.658   3.863  12.520 -0.1107  0.0523 -0.1501
18438W        W34912  13.674   0.833  12.612  0.1371 -0.2000 -0.4734
18439W        W34913   1.211  13.284   0.589  0.2667  0.2344 -0.1038
18440W        W34914  16.997   4.940  11.709 -0.1633 -0.0457 -0.1188
18441W        W34915   0.886   9.793   3.362 -0.1203 -0.1666  0.2959
18442W        W34916  11.185  17.869   4.308 -0.1322 -0.1763  0.2870
18443W        W34917  12.194   0.567  12.721  0.1446 -0.0793  0.3762
18444W        W34918   3.329   3.969  12.941 -0.1138  0.0387  0.0278
18445W        W34919  12.708  14.302   1.361 -0.4917  0.0181  0.0530
18446W        W34920  16.122  12.546  12.838  0.1419  0.0481 -0.3007
18447W        W34921  14.114   9.171  11.117 -0.1776  0.3560 -0.1917
18448W        W34922   7.338   6.932  13.787 -0.0613  0.2712 -0.1657
18449W        W34923   7.655   5.123   4.167 -0.2202 -0.1943 -0.0260
18450W        W34924   3.403   1.572  11.505 -0.1134 -0.0477  0.1034
18451W        W34925   8.294   0.961  10.507 -0.1338  0.3509 -0.5337
18452W        W34926  15.727  19.227  13.349 -0.0745  0.0061 -0.3770
18453W        W34927   5.815  16.406  11.430 -0.0753 -0.3751 -0.1877
18454W        W34928   7.158   6.793  11.308 -0.0066 -0.2871 -0.2277
18455W        W34929   4.387  16.068  11.733 -0.0623  0.2709 -0.0962
18456W        W34930  14.729   0.703   3.525  0.1996  0.0942 -0.5900
18457W        W34931  13.481   7.287  11.690 -0.2506 -0.0445 -0.2380
18458W        W34932   5.241   5.778   9.775  0.2144  0.0622 -0.1578
18459W        W34933  18.125   7.241  11.855 -0.1128 -0.0066 -0.0205
18460W        W34934   1.851  12.303  10.559 -0.3089 -0.2294 -0.2042
18461W        W34935   2.138   0.876   8.924 -0.1098 -0.0442 -0.1448
18462W        W34936  13.980   4.858   3.836  0.0214 -0.0223  0.0317
18463W        W34937   1.272  12.147   2.781 -0.0768 -0.3337 -0.1257
18464W        W34938  18.796   7.099  13.150 -0.0424  0.1616  0.2073
18465W        W34939   7.183   8.889  12.210  0.2813  0.1132 -0.2930
18466W        W34940   7.886   4.864  13.097  0.0812  0.2923 -0.2563
18467W        W34941  16.980  19.125   9.249  0.0615  0.2308  0.1431
18468W        W34942  19.041  10.385  12.642  0.2303 -0.0756 -0.4419
18469W        W34943  19.544  15.183   2.951  0.1834  0.3559  0.0339
18470W        W34944   0.347   2.840   1.845  0.3535  0.2307 -0.3911
18471W        W34945  10.122   1.057   0.500 -0.2303 -0.1192 -0.0022
18472W        W34946   8.316  12.291   1.178 -0.1610 -0.0289 -0.0867
18473W        W34947   8.127  16.388   3.135 -0.3189 -0.0766  0.0854
18474W        W34948   0.951   2.888   4.960  0.0307  0.1585  0.2547
18475W        W34949   8.425   4.819  11.364  0.1417  0.2033 -0.0350
18476W        W34950  11.584   1.046  10.855  0.1579 -0.2083 -0.2989
18477W        W34951   4.067  11.916  13.751  0.5312  0.2287  0.1974
18478W        W34952   1.641   8.526   1.317 -0.0731  0.3132  0.0415
18479W        W34953   5.484  11.167   4.386 -0.0312  0.1914 -0.0814
18480W        W34954  13.099  12.312  10.248  0.2331 -0.0584  0.1358
18481W        W34955  12.529   2.923  11.100  0.0519 -0.2323 -0.1647
18482W        W34956   0.664  14.564   2.992  0.4371  0.1010 -0.1542
18483W        W34957  15.405  18.500   4.637 -0.0707  0.0957  0.0089
18484W        W34958   8.223   2.081  11.832 -0.3262 -0.0795 -0.2682
18485W        W34959   8.661   2.044  12.573  0.0144  0.0758 -0.0174
18486W        W34960   7.639  17.329  12.548  0.0376  0.0885 -0.0590
18487W        W34961  12.312  11.017  11.326 -0.0603  0.0323 -0.2242
18488W        W34962   6.776   1.020   4.509 -0.1231  0.1349 -0.1286
18489W        W34963   0.312  11.105  12.976  0.3346 -0.0418 -0.1813
18490W        W34964  12.184  10.621  10.390  0.0966  0.0402  0.2967
18491W        W34965   5.227   7.904  12.301 -0.3157  0.0019 -0.1396
18492W        W34966  18.569   0.429   2.074 -0.2137 -0.4395 -0.0897
18493W        W34967  18.183   2.263   4.382 -0.1007 -0.0408 -0.1474
18494W        W34968  10.791   4.685  14.516  0.0204 -0.0256  0.1641
18495W        W34969   7.948  14.814  13.163 -0.1060  0.0300 -0.0776
18496W        W34970   4.633   7.592  12.119  0.4948  0.1616 -0.1474
18497W        W34971  13.152  10.971  13.493  0.0600 -0.2702 -0.1036
18498W        W34972   3.267   8.086  11.532 -0.1021 -0.3337  0.3720
18499W        W34973  13.280  16.221   0.653 -0.3403  0.0547  0.0856
18500W        W34974  12.244  17.647   0.817  0.1125  0.0657  0.3313
18501W        W34975  12.870   9.455  13.004  0.2085 -0.1043  0.0028
18502W        W34976  16.480  13.639  10.344 -0.0595  0.1451 -0.1918
18503W        W34977   7.511  14.932   0.192 -0.0724 -0.0884  0.1789
18504W        W34978  12.563  11.818   0.748  0.1745 -0.1071  0.2204
18505W        W34979   0.307  16.175  12.832  0.0813 -0.1245  0.1075
18506W        W34980  12.577   8.193  13.456 -0.1004  0.1734 -0.2142
18507W        W34981  18.613  11.042   0.045 -0.1268  0.3256 -0.0553
18508W        W34982  10.838   7.691  10.524  0.1449  0.3143 -0.0913
18509W        W34983   9.124  13.813  11.942  0.3181 -0.0456 -0.0606
18510W        W34984   4.267   5.166   1.385 -0.3361 -0.1239  0.2769
18511W        W34985   6.390   4.832   2.476  0.2824 -0.0272 -0.0311
18512W        W34986   3.072   2.781  13.571 -0.1715  0.2736  0.1032
18513W        W34987   2.322   6.559   4.585 -0.0087  0.4398 -0.0071
18514W        W34988   3.989  18.329  14.088  0.0589 -0.1931  0.1847
18515W        W34989   0.190  14.746  12.973 -0.0115 -0.1050 -0.1800
18516W        W34990   5.403  16.657   2.273 -0.1784 -0.3042  0.3487
18517W        W34991  15.769   4.099   1.519  0.2001 -0.1805  0.0709
18518W        W34992  13.064   6.475   3.326 -0.6074 -0.4793  0.2533
18519W        W34993  18.347  13.684  12.077 -0.0196  0.1501  0.2291
18520W        W34994   5.263  13.835   4.151  0.0928 -0.0495 -0.1666
18521W        W34995   5.867  15.510   0.525 -0.1677 -0.2255  0.4800
18522W        W34996  10.332  12.912   1.397 -0.2870 -0.0809  0.1609
18523W        W34997   7.071   0.153   4.558  0.2838  0.1858 -0.0892
18524W        W34998  11.385   5.594   3.404 -0.0668 -0.1814 -0.1278
18525W        W34999  13.690   1.363  10.383 -0.1124 -0.2067  0.1005
18526W        W35000  13.643   0.844   2.114 -0.1165  0.1130  0.2585
18527W        W35001  17.806  12.833   2.911  0.0753 -0.1408 -0.2299
18528W        W35002  14.932   5.301  12.301 -0.0054 -0.0108 -0.1324
18529W        W35003  14.767   8.326   2.123 -0.3136 -0.3251 -0.0801
18530W        W35004   5.890  16.650   5.339  0.1936 -0.3964  0.2517
18531W        W35005   0.525  15.721  14.114 -0.0429 -0.0398  0.0933
18532W        W35006  19.467  14.844  13.301 -0.0303  0.0763 -0.2285
18533W        W35007  18.218  19.456   0.166 -0.0226 -0.3124 -0.2579
18534W        W35008   6.189   0.730  13.267 -0.2055  0.1989 -0.1944
18535W        W35009   2.409  14.157   0.788  0.0558 -0.0913  0.0352
18536W        W35010  11.406   2.210   1.430  0.0949 -0.0146  0.0924
18537W        W35011  14.096  14.296  12.914 -0.4313 -0.2349 -0.0412
18538W        W35012  18.509  19.051   1.183  0.2464 -0.0575 -0.2305
18539W        W35013   2.492  18.542   3.751 -0.1278  0.1093 -0.4027
18540W        W35014   4.626  15.172  11.428 -0.1233 -0.0693 -0.0333
18541W        W35015   2.009   2.969  11.336 -0.1529 -0.1891  0.1717
18542W        W35016  14.049   4.154   3.535  0.1767  0.3049  0.0518
18543W        W35017  14.128   6.615  10.661  0.3566 -0.0918 -0.1467
18544W        W35018  15.691  15.881  14.377  0.2427  0.0747 -0.0381
18545W        W35019  10.491  14.905  13.080 -0.0373 -0.0736  0.2229
18546W        W35020   2.165   6.772   4.169  0.1952  0.4871 -0.1740
18547W        W35021  14.867  19.125   0.990 -0.0041 -0.4540 -0.1084
18548W        W35022   6.825   7.990  11.923  0.1257 -0.0018  0.0740
18549W        W35023   4.081   7.672   0.688 -0.2273 -0.1146  0.1769
18550W        W35024  13.106  10.961  12.397  0.0634 -0.2054 -0.0129
18551W        W35025   5.620  19.439  12.464  0.0444  0.0571 -0.1341
18552W        W35026   7.195   2.091  10.313 -0.2857 -0.2190 -0.0917
18553W        W35027   1.525   7.249  10.726  0.0731 -0.1914 -0.0166
18554W        W35028  10.406  15.969  10.485 -0.2232 -0.0509  0.0314
18555W        W35029  14.267  17.389   4.641  0.1474 -0.0147 -0.0589
18556W        W35030  10.757  11.382   1.444  0.0617  0.3278  0.3778
18557W        W35031   0.430   8.789  13.157 -0.2718  0.1787 -0.2512
18558W        W35032   8.177   9.177   1.740 -0.0078  0.0411  0.0621
18559W        W35033   8.679  18.676   1.912  0.0484  0.1666 -0.1967
18560W        W35034   0.006  13.633  12.657  0.1738  0.3190 -0.3656
18561W        W35035  11.137   6.716   3.013 -0.0482 -0.1397 -0.1988
18562W        W35036  16.641  18.307  13.672 -0.2668  0.2474  0.1823
18563W        W35037   7.238   8.721  11.430 -0.2705  0.0428  0.2183
18564W        W35038   2.849   4.621   0.024 -0.1279 -0.0064 -0.0783
18565W        W35039   3.702  19.322   2.131 -0.1011  0.1381 -0.3394
18566W        W35040   8.735   8.654   3.397  0.0040  0.0293 -0.0254
18567W        W35041  12.118   7.344   2.690 -0.1688  0.1768  0.0887
18568W        W35042  19.014   3.193  13.910 -0.0679  0.0741  0.0790
18569W        W35043  11.298   9.386  12.681 -0.2445 -0.1372  0.0596
18570W        W35044  16.117   2.799   0.454  0.2203  0.0377 -0.2594
18571W        W35045   6.566   1.565  13.387  0.2439  0.6130 -0.0741
18572W        W35046  18.567  16.015  14.561  0.0099  0.0411 -0.1107
18573W        W35047   4.388  18.626  10.553  0.0859 -0.0934  0.0750
18574W        W35048   5.245  14.704   2.817  0.1686  0.1949 -0.1569
18575W        W35049   6.522   5.686  10.706  0.5142  0.1606 -0.0049
18576W        W35050   5.577   1.992   4.339  0.1718  0.0092  0.0089
18577W        W35051   1.518  14.783   2.833 -0.2877 -0.1123  0.2843
18578W        W35052   2.657  19.104  12.115  0.2087  0.1291 -0.0305
18579W        W35053  11.950   6.299   1.531  0.0271 -0.1340  0.0669
18580W        W35054  19.451   4.170  12.057  0.0270  0.0381  0.0349
18581W        W35055  11.947   9.592   4.764 -0.1344  0.0470  0.1461
18582W        W35056   3.913   1.256   1.677  0.1492 -0.0597 -0.0057
18583W        W35057   5.675   0.082   0.266  0.0050  0.3107  0.0491
18584W        W35058  12.288   5.445  12.754 -0.0433  0.1932 -0.1629
18585W        W35059  17.419  13.976  13.159  0.1955 -0.2892 -0.2815
18586W        W35060  11.986  11.055   1.968  0.4873  0.3017 -0.0645
18587W        W35061  13.028  10.511   1.098 -0.2241  0.2820  0.1475
18588W        W35062   8.931   4.555  11.371  0.2258  0.3095  0.1907
18589W        W35063   7.354   5.517   0.022  0.0584  0.2372  0.0345
18590W        W35064  11.969  15.368   1.808 -0.0461 -0.0885  0.1597
18591W        W35065  16.265   8.597  12.084  0.1069  0.0407  0.0101
18592W        W35066   5.748   7.807   0.163 -0.1136 -0.2219 -0.0535
18593W        W35067  14.381  17.965   0.853 -0.1177 -0.1598  0.1315
18594W        W35068   5.203   5.137  11.778  0.0115 -0.0808 -0.1030
18595W        W35069  19.038  14.468  11.031  0.1619 -0.4876 -0.5919
18596W        W35070   5.245  17.666  11.642 -0.3026 -0.0787 -0.0377
18597W        W35071   7.894   4.527   2.560 -0.0791 -0.1282 -0.0410
18598W        W35072  17.212  12.854  13.684  0.0464 -0.1865 -0.3050
18599W        W35073   5.882  19.088   0.375  0.0887 -0.2991 -0.0396
18600W        W35074  17.127  16.845   9.275 -0.0754 -0.0583  0.0961
18601W        W35075  14.113  18.443   0.317 -0.1460  0.1137  0.2982
18602W        W35076  11.870   4.674   2.543 -0.0420  0.1780  0.2356
18603W        W35077   0.997   2.705  10.344 -0.0841 -0.2776 -0.3280
18604W        W35078   5.270  13.925  13.969 -0.0589 -0.0934  0.3759
18605W        W35079   1.125   4.212   4.489 -0.0347  0.2626 -0.1685
18606W        W35080   2.395   2.646   0.921  0.0658 -0.2677  0.0353
18607W        W35081   3.815  10.005   1.740 -0.0665  0.1850 -0.1955
18608W        W35082  12.660   0.552  13.420 -0.1973 -0.1798  0.0917
18609W        W35083  10.881  12.757   4.625 -0.1644  0.1174  0.1165
18610W        W35084   3.429   4.863  11.063 -0.0408  0.0700 -0.2444
18611W        W35085  17.125  17.178  13.544 -0.0258 -0.0785  0.1062
18612W        W35086  16.550   4.350  13.769  0.0312  0.0502 -0.0368
18613W        W35087   0.844  15.940   1.758 -0.1340  0.0616  0.1055
18614W        W35088  16.798   8.689  12.712 -0.2254  0.1517 -0.0629
18615W        W35089  13.959  14.246   1.667  0.0442  0.1499 -0.0887
18616W        W35090   1.754  10.050   2.602  0.0744 -0.1534 -0.2335
18617W        W35091   8.441  16.598   2.821 -0.1451 -0.0380 -0.0421
18618W        W35092  13.611  15.295   5.461 -0.1580  0.3116 -0.0919
18619W        W35093   4.108   5.239  14.148 -0.1686  0.0665  0.0168
18620W        W35094  16.119   6.469  13.286 -0.2190 -0.0351  0.0331
18621W        W35095   3.285   4.227   9.155  0.0139 -0.1132 -0.0228
18622W        W35096  16.176   9.241   2.948  0.4997 -0.0623 -0.0816
18623W        W35097  17.440  16.637   2.802 -0.3533  0.0451  0.0708
18624W        W35098   6.452   3.240   1.357  0.0597 -0.0172 -0.0447
18625W        W35099   8.152   2.492  14.236  0.1836  0.2129 -0.0226
18626W        W35100   1.298   4.115  11.249  0.0445  0.0234 -0.0993
18627W        W35101   7.099   3.404   2.102  0.0528  0.2404 -0.1163
18628W        W35102   8.935   2.493  12.379 -0.1413 -0.1377  0.2335
18629W        W35103   7.368   1.790  11.607  0.0640  0.0943  0.3472
18630W        W35104  11.355  12.281   1.528 -0.0261  0.0973  0.0431
18631W        W35105   9.082  15.344  14.631  0.2211 -0.3181 -0.2093
18632W        W35106  11.878   5.426  12.042  0.2253 -0.1885  0.0339
18633W        W35107   6.005   8.376  12.563  0.0403  0.4718 -0.2410
18634W        W35108   3.766   3.405   4.650  0.2580 -0.1471 -0.1270
18635W        W35109   6.853  15.247  12.282  0.2111  0.1874 -0.0842
18636W        W35110   0.121  18.051   4.098  0.1654  0.0142 -0.3262
18637W        W35111   5.270  17.526  13.416  0.1789 -0.0232 -0.1068
18638W        W35112  13.576   4.671   1.425  0.0092  0.2345 -0.1176
18639W        W35113  15.022   3.034  11.305  0.0974  0.3071  0.0394
18640W        W35114  16.547   4.325  11.630  0.1781 -0.0390 -0.0969
18641W        W35115   0.310   0.536   3.462 -0.1824 -0.3154 -0.3606
18642W        W35116   3.644  17.350   1.881  0.0658 -0.1563 -0.0373
18643W        W35117  16.655   1.286   0.343  0.1545 -0.0953 -0.2245
18644W        W35118  18.438   3.692   4.253 -0.1226  0.0105 -0.3540
18645W        W35119   8.024  18.475   3.657 -0.0167 -0.2546  0.0510
18646W        W35120   9.595  19.107  13.283  0.0905 -0.1181  0.2758
18647W        W35121   1.586  17.498   4.124 -0.1485 -0.2339  0.0382
18648W        W35122   0.482   3.825  11.506  0.1368  0.1657 -0.2614
18649W        W35123  16.843  12.055  14.359 -0.1156 -0.0526 -0.2625
18650W        W35124   7.867   1.879   4.735  0.0265  0.1467 -0.0093
18651W        W35125  16.039   2.863   3.981  0.1912  0.0929  0.1692
18652W        W35126  18.712  15.232  12.108  0.0777  0.1639 -0.1315
18653W        W35127   6.525   7.570  11.795 -0.2114 -0.0213 -0.2576
18654W        W35128  12.987   7.744  13.481 -0.1542 -0.1908 -0.5910
18655W        W35129  11.919   0.064   2.893  0.1571  0.0230 -0.0223
18656W        W35130  11.068   1.495   3.706 -0.0211 -0.0403  0.3265
18657W        W35131  13.533   7.966  11.466 -0.0418  0.0751 -0.0528
18658W        W35132   5.710   2.849  14.330  0.1144  0.0377 -0.1459
18659W        W35133  11.367  14.781   2.479 -0.1144 -0.2103 -0.0371
18660W        W35134  11.349   7.963  13.893  0.0988 -0.0942 -0.1670
18661W        W35135  13.072  15.588   3.044 -0.0475  0.0062  0.3057
18662W        W35136  16.671   3.719   1.484  0.0562 -0.0694  0.0579
18663W        W35137  13.604  12.496  14.170  0.0819  0.1453  0.1495
18664W        W35138   6.064  15.101  13.818  0.2009  0.2570  0.3645
18665W        W35139   0.269   5.617   0.166 -0.0249 -0.0962  0.2531
18666W        W35140   8.492  19.130  13.512  0.1811  0.1355  0.2304
18667W        W35141  17.348   7.800  12.022 -0.1099  0.0170 -0.2640
18668W        W35142   5.362  15.617   1.009  0.2782  0.0382  0.1332
18669W        W35143  11.706   2.736  13.708 -0.0634  0.0414 -0.0960
18670W        W35144  13.247  16.698  14.386 -0.0500  0.0958  0.0652
18671W        W35145   7.513   5.529   1.785 -0.0921  0.0631  0.1885
18672W        W35146   4.362  12.203   3.334 -0.0472  0.0034 -0.2191
18673W        W35147   6.833   5.241  13.433  0.1004 -0.2302 -0.1697
18674W        W35148  16.634  11.034   5.138 -0.0485 -0.1886  0.0096
18675W        W35149   3.596   4.788  12.525 -0.1573 -0.2223  0.2303
18676W        W35150   6.965  18.603  14.468 -0.0352  0.0424 -0.1291
18677W        W35151   7.394   5.454   5.101 -0.1285 -0.0205 -0.1594
18678W        W35152  14.355  10.505  13.049  0.2239 -0.0412 -0.2823
18679W        W35153   3.107   1.140  13.562 -0.2702 -0.2688 -0.0020
18680W        W35154  18.914   7.142  12.122 -0.2348  0.0350 -0.0782
18681W        W35155   9.314  18.468  14.100  0.0130 -0.3289  0.1986
18682W        W35156   7.333  16.891  12.797 -0.3180  0.1931 -0.0954
18683W        W35157  19.106  18.302  13.340  0.1871  0.0533  0.0620
18684W        W35158  13.514  14.393  14.015  0.3607  0.0948 -0.1208
18685W        W35159  15.936   8.171   4.116  0.2987  0.1011 -0.1669
18686W        W35160  12.577   7.277   1.863  0.0329  0.2644 -0.0781
18687W        W35161  10.706  17.597   4.120 -0.1588  0.4417 -0.0587
18688W        W35162  13.989   3.445   0.531 -0.0941 -0.0775 -0.2958
18689W        W35163   7.216  14.332   9.598 -0.0307 -0.0254  0.0694
18690W        W35164   7.636  18.588   2.495 -0.2377  0.2822 -0.0802
18691W        W35165   1.469  17.973  12.420 -0.0107  0.1970  0.0544
18692W        W35166  18.086  15.167  14.329  0.1404  0.2036 -0.1434
18693W        W35167   2.906  19.182  10.986 -0.0544  0.2828 -0.1014
18694W        W35168  19.169   1.751  14.272 -0.0010  0.1224 -0.1573
18695W        W35169   6.446  15.172   9.222 -0.0312 -0.2944 -0.2114
18696W        W35170   4.886  18.049   4.937  0.2657 -0.2529 -0.1260
18697W        W35171  15.272  15.810   3.161 -0.1292 -0.0117  0.1085
18698W        W35172   6.894  14.099  11.684  0.0900  0.0883 -0.0739
18699W        W35173   9.112  12.747   0.982  0.1470  0.2818  0.3262
18700W        W35174  16.981   9.026   1.796 -0.0420 -0.1495  0.1551
18701W        W35175  13.516  18.650  12.651 -0.1525  0.4448  0.2653
18702W        W35176   0.997   0.015   4.632 -0.0022  0.2623  0.0471
18703W        W35177   3.238   5.929   0.488  0.2191  0.0528  0.3481
18704W        W35178   6.224   6.754   0.686  0.0764 -0.0799 -0.1020
18705W        W35179   7.890   0.711   2.387  0.0982  0.1620  0.1535
18706W        W35180   2.275   6.368  13.239  0.3450  0.0879  0.1369
18707W        W35181  14.396  11.792   0.390  0.3230  0.0992  0.0918
18708W        W35182  13.515  17.848   1.833 -0.3590 -0.0616 -0.2098
18709W        W35183   3.217   9.869   3.524 -0.0779  0.0706 -0.2182
18710W        W35184   3.644  12.649  11.216 -0.0276 -0.1577 -0.2605
18711W        W35185   7.655   2.274  14.303  0.2802 -0.0375 -0.0460
18712W        W35186  19.498  18.645  12.603  0.2526 -0.1796 -0.0419
18713W        W35187  10.253  10.496  12.875  0.0956 -0.2736  0.0726
18714W        W35188   1.023  16.225  13.407 -0.1012  0.0699  0.0766
18715W        W35189   2.172   0.325  13.845 -0.1835 -0.1304  0.2899
18716W        W35190   6.008  17.405   1.100  0.0634 -0.0900 -0.4674
18717W        W35191   0.442   9.850   3.689 -0.0324 -0.0071 -0.1309
18718W        W35192  17.145   8.259   4.473 -0.0906 -0.2850 -0.0519
18719W        W35193  14.996  16.963   0.046 -0.1485  0.1527  0.0032
18720W        W35194  13.579   0.928   0.691 -0.2399 -0.1998 -0.3179
18721W        W35195   2.011   0.568   4.246  0.1856  0.0850 -0.0023
18722W        W35196  14.226   6.116  12.337  0.1565 -0.0384  0.1463
18723W        W35197  15.107   9.847   9.500  0.3574 -0.1928 -0.1555
18724W        W35198  18.194   9.051   3.153  0.2135 -0.2640  0.0911
18725W        W35199  18.084   0.161   0.530 -0.2737  0.4706 -0.0206
18726W        W35200   6.755   3.704  13.980 -0.0213  0.2033  0.3204
18727W        W35201   5.234  12.035   4.311  0.0734  0.2716  0.0005
18728W        W35202   4.204   8.002  12.764  0.0971 -0.0156 -0.1202
18729W        W35203   8.349   8.285  12.822 -0.2614  0.1353  0.2069
18730W        W35204  17.223  19.578   2.286 -0.0641 -0.2308  0.0087
18731W        W35205   0.601  16.416   5.436 -0.1308 -0.2285  0.2060
18732W        W35206   1.101   1.929   0.327  0.2235 -0.0613 -0.2722
18733W        W35207  19.323   5.525   3.588  0.2916 -0.0704 -0.2182
18734W        W35208  16.777  15.155  13.810 -0.0397  0.0911  0.1650
18735W        W35209  10.189  12.421   1.364 -0.1617  0.1643  0.0584
18736W        W35210  14.297  12.002   3.934 -0.0892 -0.0518 -0.2024
18737W        W35211   5.007  19.560  14.266  0.0966 -0.6078 -0.3444
18738W        W35212  10.091   0.151  12.429 -0.1172  0.2509 -0.2419
18739W        W35213  17.094   6.298   0.265 -0.4347 -0.2401  0.0876
18740W        W35214   3.979   2.781  14.630 -0.1258  0.2005  0.2557
18741W        W35215  12.773  16.602   0.016 -0.2031 -0.4097 -0.0530
18742W        W35216   6.890  11.966   3.104  0.2630 -0.1204  0.0183
18743W        W35217  18.380   2.089  10.190 -0.1746  0.0373 -0.0683
18744W        W35218  13.138  13.041   1.375  0.1002  0.1262 -0.1944
18745W        W35219  10.496  13.216   3.677 -0.1219 -0.2515  0.1127
18746W        W35220   6.097   5.064  11.505 -0.2345  0.0180  0.0738
18747W        W35221  16.895  16.543   2.807 -0.0532 -0.1881 -0.0902
18748W        W35222   5.312  16.380   0.396 -0.0353 -0.0168  0.0511
18749W        W35223   4.982   1.581  11.325  0.3150 -0.1987  0.4310
18750W        W35224   0.090  12.653  12.611  0.2344  0.0363  0.0205
18751W        W35225  15.242   8.126   2.011 -0.1906 -0.3066 -0.0597
18752W        W35226   9.997  15.427  14.271  0.0808  0.0735  0.1379
18753W        W35227   1.695   4.055   2.458  0.4065 -0.0087  0.2148
18754W        W35228  16.522  11.698  11.573  0.0382 -0.1529  0.0506
18755W        W35229   4.027  15.704  10.181 -0.1258  0.0047 -0.0584
18756W        W35230  12.124  14.975   1.400 -0.2469 -0.1819 -0.5368
18757W        W35231   2.729   1.950   1.494  0.1826 -0.2789  0.2345
18758W        W35232  13.397   8.440  11.316 -0.1493 -0.3091 -0.1329
18759W        W35233   5.118  12.194   0.555 -0.0992  0.0204  0.1107
18760W        W35234  10.635  10.053   3.585 -0.0729 -0.3396  0.2984
18761W        W35235  10.334   6.265  10.399 -0.2001 -0.0675 -0.0456
18762W        W35236   8.459  12.085   4.952 -0.0677  0.0402  0.1866
18763W        W35237  10.923  12.276   3.956 -0.1376 -0.2549 -0.0008
18764W        W35238  12.298   8.254   2.936  0.1158 -0.0176 -0.1512
18765W        W35239   5.452   7.403   0.278  0.2786 -0.1255  0.1370
18766W        W35240   8.132  19.337  12.329  0.0191  0.1925  0.0962
18767W        W35241   3.522   2.828   3.073 -0.2284 -0.1117  0.0211
18768W        W35242   0.532   1.801   3.251  0.0485  0.0327  0.0975
18769W        W35243   9.663   6.732   1.238  0.4131  0.0985  0.3249
18770W        W35244  16.052   1.153   3.180 -0.3886  0.0992 -0.0935
18771W        W35245   9.631   8.855  10.277 -0.0562 -0.1149  0.0146
18772W        W35246  13.882   8.352  14.058  0.0401  0.0142 -0.0973
18773W        W35247  16.192  14.263   0.199  0.1321 -0.0593  0.2617
18774W        W35248  12.418   5.749  12.235 -0.0707  0.4077  0.0255
18775W        W35249   3.377   6.545   0.347  0.1963  0.1768 -0.4741
18776W        W35250   2.220   7.315  13.026 -0.0870 -0.0083 -0.1176
18777W        W35251  11.656  17.474  14.239 -0.2936 -0.0573  0.1934
18778W        W35252  18.521   2.359   3.513 -0.0512 -0.3059 -0.4644
18779W        W35253   3.408  15.471  12.916 -0.6108  0.1948  0.2833
18780W        W35254   7.176  17.059  13.326 -0.1095  0.2700  0.1047
18781W        W35255  14.401  12.046  11.351  0.2588 -0.0819  0.2494
18782W        W35256  12.687  16.672  13.592 -0.0034 -0.4341  0.0698
18783W        W35257   0.176  14.769   1.977  0.1017  0.2031  0.3172
18784W        W35258  11.954  18.859  13.617  0.1311  0.0267  0.2859
18785W        W35259  14.290   2.314   0.310  0.2180 -0.1074 -0.6138
18786W        W35260  13.857   3.199   3.288 -0.1897 -0.1012  0.0505
18787W        W35261   9.722  19.180  11.079  0.3212 -0.0458 -0.1959
18788W        W35262  19.574  14.674  14.338 -0.1750  0.3022  0.3016
18789W        W35263   4.641   9.513   1.414 -0.0899  0.4638  0.2557
18790W        W35264   9.011   3.531   2.666 -0.0225 -0.1646 -0.1003
18791W        W35265  15.204  11.560  11.221 -0.1062  0.1509  0.0138
18792W        W35266  11.502   4.125  13.962  0.1383 -0.2540 -0.3005
18793W        W35267  16.381  15.215  13.471  0.1890  0.1459  0.3163
18794W        W35268  17.075  19.519   0.237  0.0133 -0.3156 -0.0734
18795W        W35269  14.792  10.374   3.166  0.2263 -0.1665  0.0952
18796W        W35270   4.058  18.661  10.203 -0.1188  0.0437  0.2823
18797W        W35271  18.781   4.961   3.821 -0.0878 -0.1761 -0.2962
18798W        W35272  18.086   2.497  13.612 -0.1249  0.4637 -0.5320
18799W        W35273   7.440  19.364  12.147  0.1066  0.1351 -0.2003
18800W        W35274  15.040  11.286   3.591  0.2387  0.0796 -0.1598
18801W        W35275  10.233   6.521   3.989  0.0782  0.1981 -0.1561
18802W        W35276   6.243  19.480   5.099  0.2416  0.2582 -0.5498
18803W        W35277   9.104  11.821  12.835  0.2300  0.1350 -0.0573
18804W        W35278  10.607  11.581   1.864 -0.0333  0.3259 -0.0433
18805W        W35279   1.918   5.405  13.291 -0.1418  0.0164  0.0935
18806W        W35280   6.437  19.264  11.143 -0.1664  0.4462  0.4051
18807W        W35281   4.292   1.818  11.858 -0.3197 -0.1368 -0.2096
18808W        W35282   4.763  12.485  10.716  0.0468  0.0104 -0.0215
18809W        W35283   0.768  15.851  13.036 -0.1220  0.0360 -0.3419
18810W        W35284  12.588   4.644  11.083  0.0411 -0.4488 -0.0083
18811W        W35285  18.885   1.240   2.841  0.3061  0.0666 -0.0490
18812W        W35286   0.755   7.220   2.785 -0.2011  0.0197  0.1586
18813W        W35287   6.817  16.085  12.382 -0.1784  0.0329  0.0627
18814W        W35288   9.650  14.891   4.506  0.1122  0.0572 -0.1483
18815W        W35289   4.870  12.787   3.346 -0.0833 -0.1036  0.2762
18816W        W35290  12.520  13.057  14.605  0.0258  0.2247 -0.0815
18817W        W35291  19.289  15.783   2.742 -0.1375 -0.0684 -0.0774
18818W        W35292   4.166   5.875   0.102  0.1426  0.2086  0.1201
18819W        W35293  13.007   8.857  11.163 -0.2627  0.2583 -0.1102
18820W        W35294   3.884  16.924   0.496  0.0006  0.0575  0.0046
18821W        W35295   8.191   7.451  10.725 -0.0176 -0.2260 -0.0500
18822W        W35296   8.315  13.143  10.792 -0.0078  0.0302 -0.2650
18823W        W35297   5.380   4.731   0.608 -0.0059  0.0064  0.1284
18824W        W35298  10.416   4.872   1.223  0.0966  0.3039  0.0665
18825W        W35299   2.175  13.452  11.087 -0.0435  0.0034  0.1970
18826W        W35300   9.032   3.418  12.294  0.1259  0.0351 -0.1402
18827W        W35301   1.270   4.627  12.400  0.0554 -0.1056 -0.0070
18828W        W35302   5.810   1.958  11.696 -0.2959  0.2876  0.1639
18829W        W35303  13.108   1.792  12.764  0.1249 -0.0933 -0.1087
18830W        W35304  14.177   3.601  11.490 -0.0923  0.0690  0.1823
18831W        W35305   8.004   8.660  12.729 -0.0379 -0.1203 -0.0785
18832W        W35306  13.307  17.171  13.486 -0.2847 -0.0706 -0.2414
18833W        W35307   6.885   7.028  10.516 -0.1184 -0.2957  0.0793
18834W        W35308   6.926   0.616  13.728 -0.2306 -0.0938 -0.0079
18835W        W35309  14.356   9.757   1.651  0.0943 -0.0502 -0.0780
18836W        W35310   3.409   2.175   1.773  0.2760 -0.2282  0.1026
18837W        W35311  12.668   1.552   4.369 -0.5549 -0.1765 -0.1177
18838W        W35312  12.182   8.425   2.412 -0.1849  0.0698  0.0424
18839W        W35313  10.249   2.034   4.476 -0.0614  0.0877  0.0966
18840W        W35314   5.625  14.189   2.231 -0.0963  0.2805 -0.0983
18841W        W35315  10.312  15.749   1.072 -0.3498 -0.1841 -0.0415
18842W        W35316  19.334  16.181  14.203 -0.1190  0.1733 -0.1128
18843W        W35317  16.566  16.981   1.759 -0.1243  0.1189 -0.3153
18844W        W35318  13.513   5.137   5.072  0.0139 -0.0969 -0.0737
18845W        W35319  13.276   9.323  12.747  0.0667 -0.0204  0.1192
18846W        W35320   9.418   1.661  12.141  0.1875 -0.0458 -0.1736
18847W        W35321   5.179   8.113  13.721  0.0592  0.1207  0.2903
18848W        W35322   7.987  14.344  12.337 -0.0349  0.0868  0.0446
18849W        W35323  10.569  10.624   3.742 -0.0908  0.0595 -0.0538
18850W        W35324  12.802  12.596   1.248  0.3071  0.3046 -0.0056
18851W        W35325   3.394  10.790   1.316 -0.2165  0.3378  0.1534
18852W        W35326   6.349  18.672   4.271 -0.0624  0.1061  0.2123
18853W        W35327   1.210   5.198  11.175 -0.1389 -0.3089 -0.0500
18854W        W35328   6.001  15.761  13.283 -0.3364  0.0097 -0.0158
18855W        W35329  19.405   8.680   0.409 -0.2040 -0.2255  0.2692
18856W        W35330   0.442   0.814  13.042  0.0898 -0.0339  0.2298
18857W        W35331  13.825   5.138  12.124 -0.3077 -0.2953  0.1019
18858W        W35332  11.825   2.088  12.723 -0.1112 -0.3839  0.2115
18859W        W35333  16.903   1.112   2.770 -0.3711  0.3921  0.2456
18860W        W35334  11.396   0.304  13.140 -0.0596  0.5311 -0.0176
18861W        W35335   1.489   2.091  10.758  0.3995 -0.3411 -0.0887
18862W        W35336   2.403   7.496   0.632  0.2004 -0.3516 -0.1703
18863W        W35337   8.736  12.966   3.544 -0.2707  0.1125 -0.0296
18864W        W35338  12.821  14.347   2.442 -0.3426  0.1975  0.0630
18865W        W35339   6.875   5.287  11.948  0.1010 -0.0109 -0.2293
18866W        W35340  18.826   7.699   4.023  0.0813  0.0349 -0.1604
18867W        W35341   1.916  15.087   1.763 -0.0564 -0.4135  0.1650
18868W        W35342  19.143  12.628  11.540 -0.1811  0.4863  0.1183
18869W        W35343   4.011  16.664   1.421  0.0513 -0.0748 -0.0450
18870W        W35344   3.720  17.098  11.591 -0.1103 -0.0371  0.0197
18871W        W35345   7.698   2.143  11.736  0.3065  0.2311 -0.1290
18872W        W35346   5.303  15.899   5.472  0.3104  0.1673 -0.0607
18873W        W35347   8.404  17.616  13.971  0.1427  0.0462 -0.0810
18874W        W35348  16.618   3.629   2.690  0.2947 -0.0181 -0.0230
18875W        W35349   1.810   9.778   3.756 -0.1507  0.1539  0.2688
18876W        W35350  14.735  14.466   1.236 -0.2852 -0.3511 -0.1192
18877W        W35351  12.117  10.420   0.309  0.1191  0.2509 -0.2485
18878W        W35352   0.346   2.202  10.745  0.3071  0.0398 -0.0981
18879W        W35353   4.633   0.563   4.840 -0.0108  0.0019 -0.1645
18880W        W35354   9.318   3.300   3.367 -0.0683  0.1675 -0.1479
18881W        W35355   4.484  18.127   2.024  0.2024 -0.1121 -0.3617
18882W        W35356   2.029  13.175  13.886  0.1329  0.2383  0.2545
18883W        W35357  15.816  15.234   2.477  0.1268 -0.1841  0.1738
18884W        W35358  12.312   4.848   4.668  0.1611  0.0621  0.0945
18885W        W35359  13.776  10.885   1.104 -0.1421  0.3181  0.2267
18886W        W35360  16.063  19.106  14.576  0.2469  0.1442 -0.0693
18887W        W35361  10.278   7.224  13.873  0.2887  0.0611 -0.3467
18888W        W35362  13.382  17.021   1.366  0.1872  0.1628  0.0191
18889W        W35363   6.796  13.085  13.866  0.1528 -0.3839 -0.2034
18890W        W35364  15.659   8.765   1.613 -0.1018  0.3067  0.0775
18891W        W35365  11.142  14.751   5.116 -0.0588 -0.1494 -0.1938
18892W        W35366  16.042  12.041  13.565 -0.1255  0.1572  0.0764
18893W        W35367   0.464  18.319   3.785 -0.1879  0.1182 -0.2446
18894W        W35368   3.195   7.650   4.165  0.0182 -0.0675  0.0795
18895W        W35369  15.510  13.531  13.752 -0.0884  0.0875 -0.1771
18896W        W35370  14.740  10.885   1.971 -0.0990  0.1214  0.0964
18897W        W35371  13.810   8.825  13.697  0.0869  0.1670 -0.0142
18898W        W35372   9.486  15.841  13.666  0.1181  0.2779 -0.3171
18899W        W35373   4.898  17.944   1.815  0.2224 -0.2792 -0.0452
18900W        W35374   2.936   8.206   5.388  0.2280  0.0324 -0.0059
18901W        W35375   3.758   4.654   0.253 -0.2459 -0.0946 -0.3798
18902W        W35376   8.011  16.488   0.492  0.2894 -0.1616  0.1028
18903W        W35377   6.161   3.907  10.345 -0.1383 -0.3231 -0.1384
18904W        W35378  11.393  10.930  11.930  0.0833 -0.4633 -0.0080
18905W        W35379  16.455  13.988  12.777  0.0925  0.1960  0.4376
18906W        W35380   2.221  11.540  10.374  0.2434  0.3352  0.1077
18907W        W35381  17.585  14.507   3.042 -0.0049 -0.2148 -0.0958
18908W        W35382  19.561  12.158  14.507 -0.2886 -0.1089 -0.2693
18909W        W35383   8.104  16.981   2.876 -0.1868  0.2867 -0.2507
18910W        W35384   4.394   5.492  12.792 -0.0694 -0.2071  0.0863
18911W        W35385   0.907  13.751   2.611  0.0354 -0.0739 -0.0501
18912W        W35386  13.227   2.029   9.078 -0.3609 -0.0376 -0.0227
18913W        W35387   1.646  14.259   1.571 -0.2935  0.1527 -0.0192
18914W        W35388   9.090   9.989   3.562  0.1875  0.1462 -0.0729
18915W        W35389   1.096   3.371  13.838 -0.1707 -0.1161 -0.2405
18916W        W35390  18.781   6.626  14.391  0.3039 -0.0006  0.0313
18917W        W35391   5.308   5.670  11.684 -0.0071  0.0387  0.1001
18918W        W35392   1.830  14.520  11.102  0.1293  0.0563 -0.2589
18919W        W35393  10.252  17.139  12.588 -0.3630  0.0566  0.0071
18920W        W35394   5.630   2.483   9.841  0.1630 -0.2825  0.0759
18921W        W35395   0.492  14.354  13.148 -0.2258 -0.3892  0.1129
18922W        W35396  15.007  14.293  12.940  0.1475  0.1462 -0.1330
18923W        W35397   4.302  11.869  14.190  0.0069  0.1366  0.2838
18924W        W35398   7.059  19.207   1.583 -0.1018  0.3735  0.1957
18925W        W35399   9.204  14.724   0.624 -0.0054  0.0261  0.0751
18926W        W35400   8.300  16.626  11.970  0.2504  0.2096 -0.4377
18927W        W35401   9.854  15.391   4.549  0.4806 -0.0014 -0.1913
18928W        W35402   7.236  18.798  10.478 -0.0949 -0.2023  0.0510
18929W        W35403   8.835  14.298   3.405 -0.0979  0.1852 -0.2260
18930W        W35404   5.807   2.630   2.470 -0.0210  0.1957 -0.1695
18931W        W35405   1.830   6.150   1.637 -0.0882 -0.1663  0.1871
18932W        W35406  18.634  15.552  12.495 -0.0738 -0.0837 -0.0011
18933W        W35407  17.801  12.559  12.280  0.3078 -0.1452 -0.0570
18934W        W35408   0.450   4.959   9.450 -0.3806  0.1845  0.3013
18935W        W35409   0.841  11.399  13.931  0.1869 -0.2098 -0.0731
18936W        W35410  18.390  18.375  12.553 -0.2085  0.1231  0.2861
18937W        W35411  16.259  17.815  10.583 -0.1330 -0.0047 -0.0554
18938W        W35412   9.712   6.333   1.555 -0.2006 -0.3719 -0.0549
18939W        W35413  18.086  17.962  11.150 -0.3618 -0.0680  0.0350
18940W        W35414   3.461  11.867  14.408  0.0618 -0.1347  0.0594
18941W        W35415   6.303   8.608   2.587 -0.0861  0.0383 -0.1336
18942W        W35416   7.158  14.213   1.558 -0.3009 -0.4562  0.0874
18943W        W35417   8.062   5.347  11.617 -0.1846 -0.1504 -0.6161
18944W        W35418  11.751   8.671   2.584  0.2464 -0.1623 -0.2377
18945W        W35419  14.587  10.217  10.739 -0.1217  0.2615  0.2683
18946W        W35420   3.721  12.200   0.257 -0.1551 -0.1433  0.2852
18947W        W35421   8.559  11.240   9.975  0.0530 -0.3443  0.0657
18948W        W35422  11.346   9.715  10.909  0.2813 -0.3056 -0.1555
18949W        W35423  14.442  11.189  14.063  0.0910  0.2016 -0.2616
18950W        W35424   1.597   9.954  14.334 -0.1590  0.2469 -0.0432
18951W        W35425  15.962   4.585   1.028 -0.2080 -0.1073 -0.2009
18952W        W35426  19.005   5.881  10.198 -0.1350 -0.0421  0.0799
18953W        W35427   8.886  15.456   3.273  0.2717 -0.2939 -0.2560
18954W        W35428  15.657   4.467  14.375 -0.1230 -0.0093  0.2144
18955W        W35429   6.117  11.733  13.461 -0.2020 -0.0363  0.1422
18956W        W35430   5.100  12.879   3.836  0.2029  0.2950 -0.2097
18957W        W35431   7.606   6.961  12.879 -0.2808  0.2319  0.3015
18958W        W35432  13.192   5.679  13.117  0.2136 -0.0961 -0.0404
18959W        W35433  10.951  13.745   5.008 -0.2583  0.0034  0.1244
18960W        W35434  16.468   7.100   0.563  0.2600  0.5453 -0.1400
18961W        W35435  12.703  15.230   2.887 -0.1196 -0.0191  0.0291
18962W        W35436   1.433  13.187  12.797 -0.2241 -0.0201  0.1258
18963W        W35437  15.358  11.269  10.796 -0.3363  0.0339 -0.0136
18964W        W35438  18.042   9.985   1.815  0.0283  0.2014 -0.1238
18965W        W35439  11.072   9.436   0.702 -0.2926 -0.0921  0.1350
18966W        W35440   5.325   2.287   4.744 -0.0026 -0.0691 -0.0352
18967W        W35441  19.353   2.514   1.866 -0.1089 -0.0488  0.1212
18968W        W35442   6.002   8.579   9.707  0.1304 -0.1623 -0.3005
18969W        W35443   9.526  13.362   3.500  0.0654  0.7269 -0.2677
18970W        W35444   1.058  17.217  14.617 -0.1824  0.5226  0.0192
18971W        W35445  12.894  16.208  13.692  0.3875 -0.0481  0.1404
18972W        W35446   1.728  10.196   3.133  0.2386  0.2322  0.1414
18973W        W35447  13.039  10.208  13.724 -0.0367 -0.0605  0.2336
18974W        W35448   1.568  11.354  14.491  0.1852 -0.2015  0.1016
18975W        W35449  18.248  14.102  11.396  0.0902  0.0907 -0.3791
18976W        W35450   9.408  13.584  13.336 -0.3310  0.2605 -0.3153
18977W        W35451  10.401   4.854   0.163  0.3331 -0.0271 -0.1845
18978W        W35452  15.675   8.253   4.501  0.4676 -0.3192 -0.0877
18979W        W35453  12.257  11.210   2.299  0.1531  0.1165 -0.2068
18980W        W35454   5.447  17.235   1.349  0.2194 -0.0650  0.2554
18981W        W35455  16.666   5.817  13.857  0.0450  0.2146  0.0113
18982W        W35456  12.409   3.005  10.235 -0.0801  0.2208 -0.0068
18983W        W35457   8.007  13.854  12.207  0.0751 -0.0997 -0.0884
18984W        W35458   3.712   1.965   3.677 -0.0247 -0.0887  0.0736
18985W        W35459  14.916   0.847   0.258 -0.2676  0.1105  0.2647
18986W        W35460  17.445   9.894   3.129 -0.1985 -0.0366  0.0931
18987W        W35461  16.999  13.972  11.774 -0.2200  0.1152  0.0085
18988W        W35462  18.669  19.291  14.536 -0.1425 -0.0485 -0.1780
18989W        W35463   2.714   7.587   4.057 -0.0619 -0.0609  0.1515
18990W        W35464   7.858   6.097  14.299  0.1069 -0.3408 -0.0012
18991W        W35465   6.354  10.273   0.693 -0.1518  0.2801 -0.1187
18992W        W35466   2.618  12.595   4.701  0.0455  0.1914  0.0726
18993W        W35467  12.983  19.301   4.697  0.0122  0.1472  0.1189
18994W        W35468   5.030  18.007  13.424  0.2999 -0.2227  0.0818
18995W        W35469   7.259  16.393  10.328 -0.2234  0.0442 -0.0367
18996W        W35470  12.866   6.379  10.546 -0.1075  0.3333  0.0259
18997W        W35471   6.719  15.743  10.865 -0.2486  0.1712 -0.1712
18998W        W35472   1.204   3.971  12.663  0.3791 -0.1479 -0.0809
18999W        W35473   9.009   2.071   1.238  0.0626 -0.1216  0.0633
19000W        W35474   2.947   3.491   9.077  0.2602  0.0356 -0.2832
19001W        W35475   4.171   7.781  11.994  0.2117  0.1222 -0.0679
19002W        W35476   7.075  12.816  11.459  0.0668  0.1831 -0.4999
19003W        W35477   9.593  16.925  13.817 -0.3576 -0.1330 -0.0865
19004W        W35478  15.771  13.755  13.351 -0.2602  0.0031  0.1639
19005W        W35479  12.226  10.055  12.889 -0.2740 -0.0642 -0.0770
19006W        W35480  14.880   6.584  10.356  0.0918  0.1466  0.0054
19007W        W35481   6.908   8.965   1.268 -0.3172 -0.0433 -0.1390
19008W        W35482   5.680   4.697   1.004 -0.2559 -0.0519 -0.1605
19009W        W35483   8.617   9.266   4.143 -0.1981 -0.0652  0.1218
19010W        W35484   4.607  11.115  14.006 -0.0663  0.1913 -0.2498
19011W        W35485  10.926   5.105   0.294 -0.0426  0.0837 -0.1969
19012W        W35486  16.047  15.345  11.849  0.2454  0.3535 -0.0560
19013W        W35487   8.771  14.888   5.053  0.1180 -0.0629 -0.3031
19014W        W35488   1.887  13.294  11.470 -0.2695  0.0220 -0.0148
19015W        W35489  17.917  15.875  12.454  0.0075  0.0361  0.0707
19016W        W35490   1.003   6.428  10.537  0.0946  0.0663 -0.1101
19017W        W35491  17.174   9.794   4.463  0.0013 -0.2695  0.2972
19018W        W35492  13.998  10.224   1.357  0.0241  0.4457  0.2284
19019W        W35493   3.015  15.461   1.279  0.1219  0.1603  0.1082
19020W        W35494   5.961  15.615   1.028  0.3756  0.1915 -0.0031
19021W        W35495   2.798   4.306  10.314  0.5993 -0.2907 -0.2550
19022W        W35496   0.563  13.409   2.728  0.0129 -0.1912  0.1418
19023W        W35497   6.486  13.822   2.153  0.1445  0.1829 -0.1092
19024W        W35498   0.585   7.239   3.299  0.1706 -0.2187  0.1708
19025W        W35499   0.632  11.778   0.539 -0.5312 -0.0933 -0.0176
19026W        W35500   5.454   3.152  12.667  0.0158  0.0023 -0.1663
19027W        W35501  13.087  16.479   3.064 -0.0271 -0.1621 -0.3968
19028W        W35502   6.560   3.382   9.904 -0.5572  0.3017  0.0509
19029W        W35503  12.845   3.205   2.683 -0.1812  0.0488  0.0463
19030W        W35504  18.033   8.017   3.491  0.0999 -0.2203 -0.3177
19031W        W35505  12.776   3.979   1.619  0.1429  0.0102 -0.1175
19032W        W35506  18.716  13.894   0.048  0.0526  0.0398 -0.1052
19033W        W35507   0.878   4.922   3.926  0.2198 -0.1747 -0.1361
19034W        W35508  10.241  12.277  10.060  0.0679 -0.0886  0.2526
19035W        W35509  14.224  17.869   0.314  0.0830  0.1020 -0.3320
19036W        W35510   2.729  17.248   1.495  0.1882 -0.0333 -0.0458
19037W        W35511   3.967  11.506  13.119 -0.0504  0.0861 -0.2809
19038W        W35512   8.649  11.720  13.907  0.1508  0.0699 -0.0356
19039W        W35513  10.432   8.528   4.761 -0.0297  0.1453  0.0701
19040W        W35514  11.271  12.438   0.414 -0.2667 -0.2327 -0.0915
19041W        W35515  13.970  14.652   5.023 -0.0406 -0.0378 -0.1080
19042W        W35516  15.313   6.170   2.158 -0.0644 -0.0523 -0.0481
19043W        W35517  17.074  12.624   0.384  0.0762  0.3272 -0.0007
19044W        W35518  15.227  14.665   3.915  0.1129 -0.1501  0.0253
19045W        W35519   7.571   2.236   4.644  0.1770 -0.0381  0.1343
19046W        W35520   2.435  14.592   4.288  0.1023  0.1936  0.2738
19047W        W35521   1.835   8.973  13.506 -0.1590  0.0049 -0.0237
19048W        W35522  16.274   3.966  11.783  0.0503 -0.0069 -0.0719
19049W        W35523   9.082  13.744   0.488  0.3734  0.2369  0.2083
19050W        W35524   0.851  13.392  11.515  0.1535  0.1953 -0.2267
19051W        W35525  16.753  12.025  11.082 -0.0353  0.3600 -0.0916
19052W        W35526  15.745  15.350  12.783 -0.3359  0.4290 -0.0954
19053W        W35527   4.082   5.985   1.759 -0.1456  0.0668 -0.0226
19054W        W35528  15.064  19.107   2.890  0.0254  0.0474 -0.2783
19055W        W35529  17.614   2.161   9.870 -0.0358  0.0780  0.1856
19056W        W35530  17.196   2.446   9.807  0.1509 -0.0314 -0.2542
19057W        W35531   7.213  13.364  14.373  0.0982 -0.0562 -0.1968
19058W        W35532   6.547   2.371   1.716  0.0990 -0.1907  0.0907
19059W        W35533   0.512  15.725   2.245 -0.3526  0.1263  0.1132
19060W        W35534   6.100   2.497   1.971  0.3335 -0.2949 -0.0681
19061W        W35535  16.808   3.561   3.377  0.1121 -0.1116 -0.0899
19062W        W35536   4.650  16.412   0.217  0.1988  0.3728  0.3170
19063W        W35537  14.687   1.974  14.064  0.2348 -0.2447  0.3664
19064W        W35538   1.497  19.386  13.403 -0.0525 -0.0105  0.0782
19065W        W35539   9.440  11.937   4.144  0.3313  0.1517 -0.2261
19066W        W35540  15.004  14.485   5.145  0.0407  0.2695  0.1346
19067W        W35541   5.744   2.474  10.762 -0.0789 -0.2315 -0.2355
19068W        W35542  14.113   5.393   3.800 -0.2824  0.2164 -0.0333
19069W        W35543  12.666  19.435   2.810  0.1690  0.4342  0.1341
19070W        W35544   5.563  13.917  12.940 -0.0513 -0.1686  0.1271
19071W        W35545   7.833  11.072  13.980 -0.1416  0.2012 -0.1404
19072W        W35546   5.208  15.455   1.759  0.0495 -0.0546  0.1840
19073W        W35547   6.177   9.574  11.095 -0.0408 -0.0023  0.0082
19074W        W35548   8.860  17.149  11.672 -0.1191 -0.1641  0.0801
19075W        W35549   1.956  11.484   4.081  0.1075 -0.0514  0.2011
19076W        W35550  15.355  15.394   4.405  0.1220  0.1512 -0.1461
19077W        W35551   7.202  13.126  10.922 -0.0220 -0.1873 -0.4241
19078W        W35552   5.712  12.773   0.021  0.1111 -0.1877 -0.1047
19079W        W35553   4.173  11.712  10.813 -0.2615 -0.0665  0.0518
19080W        W35554  11.706  13.550   3.948  0.2942 -0.2687  0.0497
19081W        W35555   1.883   1.817   2.780 -0.2947 -0.3427  0.1786
19082W        W35556  13.043  16.181  11.300 -0.0891 -0.0844  0.0944
19083W        W35557   3.159  16.980   0.164 -0.0735 -0.0341  0.0538
19084W        W35558  17.421   5.630   0.534  0.1798  0.1811 -0.6736
19085W        W35559   7.766  10.087   5.276  0.1717 -0.2244 -0.1090
19086W        W35560  14.437  15.904   2.301  0.0404  0.0150  0.0364
19087W        W35561  16.433  15.424  14.658  0.0947  0.0939 -0.0764
19088W        W35562   6.198   7.214  11.691 -0.2648 -0.3526 -0.1644
19089W        W35563   9.660  17.033   3.882  0.1386  0.1238  0.2175
19090W        W35564  13.680  10.524   3.895  0.0599 -0.1238  0.2112
19091W        W35565  12.268   2.174  14.251  0.0017 -0.0073  0.1795
19092W        W35566   6.843   5.162   3.424  0.0664 -0.0695 -0.0933
19093W        W35567  18.069  11.838  12.830 -0.0870  0.0547  0.0625
19094W        W35568  12.270  11.766   2.343  0.2819  0.1871 -0.2453
19095W        W35569   4.381   4.504   2.839 -0.0523 -0.1822  0.4391
19096W        W35570  18.037  12.771  11.861 -0.0901 -0.0208 -0.2644
19097W        W35571  16.751  12.063  11.866 -0.2573  0.1301  0.1319
19098W        W35572   5.982   2.511   0.435 -0.0763 -0.1556  0.0316
19099W        W35573  11.749   7.599  11.676 -0.0308 -0.0441  0.1982
19100W        W35574   7.136  11.609   0.292 -0.3541 -0.0150  0.0043
19101W        W35575   5.524  17.387   0.875  0.2961  0.0292 -0.2481
19102W        W35576   4.919   3.565  11.299  0.1357 -0.3689  0.3318
19103W        W35577   1.714  15.764  10.409  0.0162 -0.1461  0.0515
19104W        W35578  15.099   6.687  11.285 -0.1080  0.2084  0.1403
19105W        W35579  14.917   2.344  14.343  0.0621 -0.2074  0.2589
19106W        W35580   5.746  13.894   3.996 -0.0414 -0.2030  0.0452
19107W        W35581  17.396   8.018   1.758  0.1162  0.0299  0.1333
19108W        W35582   6.941  19.147   1.095  0.0876 -0.1808  0.2231
19109W        W35583   3.425  18.345   3.438 -0.0208  0.1463 -0.0688
19110W        W35584  16.235  14.694  13.005 -0.0471  0.2045  0.2660
19111W        W35585  16.278  10.605   2.962  0.0110  0.0963  0.0629
19112W        W35586   4.838  15.599   1.097  0.1223  0.1156 -0.1734
19113W        W35587  18.237  16.771   0.671  0.0898 -0.2423 -0.5021
19114W        W35588  11.017   5.364  10.905 -0.3081 -0.0055 -0.0400
19115W        W35589   0.636   0.283  13.654 -0.1727 -0.2003 -0.0884
19116W        W35590  18.271  19.335   9.741  0.1860  0.0363  0.0847
19117W        W35591   4.180  17.787   0.401 -0.1142 -0.0648  0.1839
19118W        W35592   3.301   8.250   0.005 -0.1547  0.0092 -0.4444
19119W        W35593  13.612  12.652  13.202 -0.0888 -0.0368 -0.3276
19120W        W35594   9.563   4.271  12.300  0.0115  0.2583 -0.0415
19121W        W35595   8.844  18.823   4.922  0.0778 -0.4128 -0.1938
19122W        W35596  17.177  13.539  12.968 -0.0511  0.3330 -0.3490
19123W        W35597   0.713   5.415   3.895 -0.1855 -0.1493  0.1207
19124W        W35598  19.170  18.894   4.015  0.6341  0.0162  0.3697
19125W        W35599   0.308   4.852  10.944 -0.2232 -0.1807  0.3196
19126W        W35600  12.340   6.624   1.437  0.0423  0.2575  0.0136
19127W        W35601  12.023   6.420   2.775  0.1756  0.1172 -0.2178
19128W        W35602  17.718   4.397   4.067  0.1846 -0.1565  0.1181
19129W        W35603   4.271   0.411   2.235  0.2073 -0.1851  0.1531
19130W        W35604   4.660  17.830   9.939  0.2899  0.4953 -0.1321
19131W        W35605   0.565  16.946  10.365  0.1192  0.3793 -0.0449
19132W        W35606   9.177  13.014   5.282  0.0999 -0.0431  0.0474
19133W        W35607  17.354   1.605   1.303  0.1198  0.3107 -0.1528
19134W        W35608   7.179   3.385   9.947  0.0181 -0.1083  0.0115
19135W        W35609  15.771   9.567   1.055 -0.0202  0.1739  0.3378
19136W        W35610   9.196   5.491   3.650 -0.0331 -0.1075  0.1851
19137W        W35611  14.582  18.700  14.147  0.2291  0.0780  0.0759
19138W        W35612   9.806  16.772  13.059  0.0844 -0.2279  0.0481
19139W        W35613  13.746   8.995   2.574  0.1311 -0.1365  0.0086
19140W        W35614   7.641   3.177   1.128  0.2789  0.1014 -0.0583
19141W        W35615   5.495   6.814   3.476  0.1142 -0.0074 -0.2024
19142W        W35616  12.306  11.301  13.412 -0.1314  0.0341 -0.0478
19143W        W35617  14.732   0.191  11.891  0.3441 -0.0796 -0.0632
19144W        W35618  10.620  11.879  11.943 -0.2075  0.1179  0.0651
19145W        W35619   0.601   9.505  11.464  0.1601 -0.1209  0.0930
19146W        W35620  16.957   0.111  10.440  0.1269  0.0027 -0.0327
19147W        W35621   2.031   1.609   4.299  0.2627  0.1365  0.1336
19148W        W35622   5.092  10.132   2.235  0.0203  0.1983  0.3097
19149W        W35623   4.629  11.354   3.407 -0.3319 -0.2311  0.1231
19150W        W35624   9.604   0.606   3.844  0.0849  0.2642  0.2965
19151W        W35625  15.671  16.796  11.009  0.1022 -0.0340 -0.0309
19152W        W35626  14.906  15.193  12.047 -0.0591 -0.4642  0.2426
19153W        W35627  16.395   1.995   0.696  0.3016  0.1510  0.1535
19154W        W35628   6.031  17.163  14.045 -0.1302  0.1495  0.1324
19155W        W35629  14.250  11.851  10.820 -0.0169 -0.0461 -0.1165
19156W        W35630  15.220   8.018  13.541 -0.0455  0.1386 -0.0870
19157W        W35631  16.704   6.587   9.778  0.0328 -0.1061  0.3303
19158W        W35632  18.687   3.392  11.934  0.3594  0.0408 -0.1383
19159W        W35633  11.269   9.561   5.474 -0.4310  0.1620  0.2017
19160W        W35634   9.344   3.899   2.655 -0.0368  0.1738  0.1225
19161W        W35635   1.193  11.565  14.208 -0.3012 -0.0010  0.2120
19162W        W35636   1.721  16.384   3.574 -0.1173  0.2041  0.2668
19163W        W35637  14.666  12.822   0.632 -0.1038  0.3573  0.2690
19164W        W35638  16.711   3.601  10.812  0.0052  0.3395 -0.0154
19165W        W35639  11.565  11.571   9.772  0.2292 -0.0076 -0.0716
19166W        W35640  11.559   2.818   3.753  0.0732  0.0719  0.0474
19167W        W35641   7.085   1.551  11.173 -0.1433  0.4089 -0.0192
19168W        W35642  12.521  16.623   4.633  0.1377 -0.0817  0.0322
19169W        W35643   8.276   4.829   2.449  0.2106 -0.1582  0.0818
19170W        W35644  13.197  12.463   0.752  0.0100 -0.0262  0.3333
19171W        W35645   7.742  14.682   2.662  0.1659 -0.1485 -0.1014
19172W        W35646  14.214   0.497   1.436  0.2354 -0.0510 -0.2144
19173W        W35647  12.725   5.697  13.487 -0.0341  0.2478  0.4055
19174W        W35648  15.170   2.946  11.773  0.1664  0.3862  0.0868
19175W        W35649  13.726  18.429   1.063 -0.2077  0.0565  0.0638
19176W        W35650   6.584  19.168   1.461 -0.0505 -0.1208 -0.1661
19177W        W35651   6.894  11.870   0.741  0.1892 -0.3028 -0.0561
19178W        W35652  15.982  14.062   4.288 -0.2500  0.1773  0.1722
19179W        W35653  14.251   5.990   4.634  0.0053  0.0507  0.1286
19180W        W35654  11.993  14.738   0.572 -0.0252  0.2893 -0.1340
19181W        W35655   1.923   0.012  11.581 -0.2582  0.4369 -0.2257
19182W        W35656  12.544   4.448   3.905  0.0180  0.0558  0.0856
19183W        W35657  18.036   3.319  12.587 -0.0813  0.0725 -0.2928
19184W        W35658   1.854  19.349   2.191  0.2920 -0.1801 -0.2317
19185W        W35659  11.518   9.234  13.218  0.0035  0.1100 -0.3782
19186W        W35660   9.826  15.687   1.235 -0.1752  0.0760  0.1326
19187W        W35661  16.660   6.956  12.985 -0.2969  0.1434 -0.1809
19188W        W35662  13.837  11.864  13.468 -0.0098  0.1413  0.3358
19189W        W35663   0.654  16.525  11.050 -0.3618 -0.0893  0.1202
19190W        W35664  10.726   2.017   4.291  0.2245 -0.2141  0.2851
19191W        W35665  19.418   1.127  11.633 -0.1034  0.3023 -0.1463
19192W        W35666  17.859  10.903   3.073  0.0768 -0.0269 -0.1276
19193W        W35667  14.638  13.715  12.578  0.1773  0.2882  0.2321
19194W        W35668   9.976  10.794   4.424  0.0381 -0.0850  0.0565
19195W        W35669   7.846   9.135   1.371 -0.1739 -0.0840 -0.1866
19196W        W35670  17.194  16.142   9.904 -0.2189  0.0646  0.0842
19197W        W35671   1.868  10.336   3.889 -0.0691  0.2080  0.3658
19198W        W35672   6.841  14.757   2.414  0.2103 -0.1603 -0.0117
19199W        W35673  14.976   3.563   1.833 -0.4132  0.1277 -0.0621
19200W        W35674  15.671   5.118   4.383 -0.0077 -0.2417  0.1661
19201W        W35675   6.528  10.499  10.800  0.1440  0.4077 -0.0173
19202W        W35676  17.153  16.933   1.846 -0.3158  0.1252 -0.1704
19203W        W35677  14.602  18.283   5.097  0.5322 -0.4617 -0.1778
19204W        W35678   1.701   4.707   1.356  0.0414 -0.2431  0.1188
19205W        W35679   9.324   0.994   3.947 -0.0327 -0.1727  0.2226
19206W        W35680  13.305   5.926   9.820  0.1053 -0.0039  0.1544
19207W        W35681   9.995  12.493  13.253 -0.0297 -0.3983  0.1040
19208W        W35682   9.396   7.500   2.227 -0.1220 -0.2534  0.0665
19209W        W35683  16.317   2.511  14.495 -0.0386  0.1226 -0.2816
19210W        W35684   5.795  18.440  13.706  0.1695 -0.1035  0.0834
19211W        W35685   8.420   2.691  11.108  0.3555 -0.1373 -0.1118
19212W        W35686  15.666   9.940   2.407 -0.1721 -0.3041  0.0791
19213W        W35687   6.244   1.043  11.349  0.0556  0.0008  0.3174
19214W        W35688   0.011  19.283   2.784  0.2102 -0.0745 -0.3003
19215W        W35689   1.410   1.940   3.426 -0.0400  0.0860 -0.5102
19216W        W35690   8.288  15.416   1.804  0.1409  0.1251  0.2946
19217W        W35691   7.792  12.277   4.276 -0.0033 -0.0254 -0.1883
19218W        W35692  15.808  16.294  13.231  0.1638  0.2384 -0.0524
19219W        W35693   5.004   3.511  14.580 -0.0753  0.2602 -0.0635
19220W        W35694  15.710   6.514   2.126 -0.2261 -0.1730  0.1465
19221W        W35695   6.033  12.643  13.694  0.0991  0.0403 -0.1243
19222W        W35696   3.163   0.239  13.677  0.2348  0.0818 -0.0227
19223W        W35697  19.179  18.824  13.566  0.0610  0.2182  0.1283
19224W        W35698   2.700   3.980   3.689  0.3672  0.3756  0.1248
19225W        W35699  17.406  11.490   2.283  0.0874 -0.1056 -0.0146
19226W        W35700   2.587  14.262  11.504  0.2858  0.0252  0.3809
19227W        W35701  17.625   6.089  10.027 -0.1909 -0.1335 -0.0680
19228W        W35702   8.357   8.718  13.088  0.1658  0.2456  0.0275
19229W        W35703  10.945  11.152  11.009  0.3587  0.1708 -0.0563
19230W        W35704   5.046  16.479   1.817 -0.1041 -0.0102 -0.1129
19231W        W35705  16.068  15.034  14.630  0.4445 -0.0047  0.1944
19232W        W35706   1.618   0.581   3.655 -0.0421  0.0176  0.0014
19233W        W35707   4.898   8.420   2.760 -0.0357  0.3972  0.0111
19234W        W35708   9.520   3.264  10.379 -0.0079 -0.1478  0.2822
19235W        W35709  13.724   6.383  10.771 -0.0428 -0.0256  0.2651
19236W        W35710   9.935  13.836   2.690  0.3519  0.0151  0.1758
19237W        W35711   7.338  12.423  14.575 -0.0637  0.1139 -0.2094
19238W        W35712  18.155   3.851   9.690 -0.4528  0.0079 -0.3633
19239W        W35713   3.809   4.411   4.551  0.1398 -0.0700 -0.1834
19240W        W35714  12.492  11.855  10.081  0.0956  0.0363 -0.1042
19241W        W35715  18.369   8.219   3.204 -0.1216  0.1053 -0.0740
19242W        W35716   9.650  15.846  11.007  0.1326 -0.0723  0.0115
19243W        W35717   6.137  11.500   4.274  0.1265 -0.2484 -0.1405
19244W        W35718   0.295   8.684   2.498 -0.0648 -0.0947  0.3035
19245W        W35719   5.862   9.933   4.082 -0.0578 -0.0045  0.2266
19246W        W35720  18.865   7.983   2.310  0.4656 -0.1421 -0.1921
19247W        W35721  19.616   3.386  13.025  0.1936 -0.1011 -0.4366
19248W        W35722  11.742   2.389   2.683  0.0171 -0.2569 -0.3500
19249W        W35723   0.361   0.295  11.374  0.1029 -0.1506 -0.0625
19250W        W35724  10.962  16.996   0.694 -0.1996  0.1372 -0.1698
19251W        W35725   9.628   4.074   0.077  0.0078  0.3872 -0.1636
19252W        W35726  14.147   9.638   4.418  0.3757 -0.0903 -0.1534
19253W        W35727  16.441   7.265   4.036  0.0738 -0.0067 -0.0639
19254W        W35728  13.671   8.902  10.995  0.0341 -0.3573 -0.1573
19255W        W35729  13.777  18.673   9.629  0.0705  0.2747 -0.0328
19256W        W35730   5.027  15.204  10.949  0.0445  0.1195 -0.0249
19257W        W35731  19.535  13.038   5.598  0.0904  0.2199  0.5706
19258W        W35732   5.160   7.018   0.218  0.1001  0.0029  0.3126
19259W        W35733  15.770   7.659   3.901  0.2093  0.0880  0.4478
19260W        W35734   8.285  12.154  14.633 -0.1145  0.1208  0.0386
19261W        W35735  19.549  17.019  14.643 -0.0955 -0.2203 -0.0279
19262W        W35736  10.545   5.973  13.688 -0.0394  0.1566  0.5580
19263W        W35737  14.608  10.009  11.241  0.0284  0.0448  0.3203
19264W        W35738   8.866  16.692  12.219 -0.0437 -0.0671  0.0869
19265W        W35739  16.522   3.456  11.615 -0.0334  0.1582  0.0964
19266W        W35740  18.931   0.525   9.538  0.0374  0.1845  0.1393
19267W        W35741  15.152   4.950  10.087  0.1593 -0.0787 -0.2200
19268W        W35742  13.347  10.280   2.422  0.0673 -0.0783 -0.0348
19269W        W35743  16.980  17.759   5.596  0.1793  0.1959  0.2329
19270W        W35744   2.658  13.723   3.078  0.2527  0.0880 -0.2073
19271W        W35745   7.689  16.837   0.580  0.1839  0.0566 -0.0872
19272W        W35746   0.276   9.787  10.681 -0.1813 -0.0448  0.2500
19273W        W35747  13.317   5.376  12.137 -0.2754  0.2661  0.1719
19274W        W35748   1.912  18.173  12.476  0.3352 -0.0514  0.0798
19275W        W35749   7.810   5.635  12.998 -0.0563  0.3763  0.1996
19276W        W35750  16.899  14.314   4.295  0.0370 -0.0631  0.1895
19277W        W35751  12.004  19.120  10.520  0.3935 -0.1372 -0.1452
19278W        W35752   6.561   5.037   3.048 -0.2042 -0.0339  0.1568
19279W        W35753  12.896   9.914   3.050  0.0931 -0.1647  0.1821
19280W        W35754   0.990   8.684  11.810 -0.2047  0.0023 -0.2514
19281W        W35755   1.594   2.057   4.302 -0.0943 -0.0257 -0.0894
19282W        W35756   2.125   7.170  11.493  0.0029  0.0364 -0.2397
19283W        W35757  18.133   5.175  12.338  0.2180  0.2844 -0.1272
19284W        W35758   7.078  14.020  10.843 -0.4045 -0.1775  0.2379
19285W        W35759   4.612  18.715   2.221 -0.2645  0.3424  0.2829
19286W        W35760  12.571   0.943  12.645 -0.0756 -0.0728  0.1176
19287W        W35761  18.254  19.339  10.975 -0.3539  0.1433 -0.0303
19288W        W35762   5.006  13.272  11.089 -0.4349  0.2223  0.4787
19289W        W35763  12.519   4.213  12.085 -0.0596 -0.0694  0.0502
19290W        W35764   4.759  14.487   1.865 -0.1336 -0.0968  0.0010
19291W        W35765   7.719   0.557   9.737 -0.1272 -0.0871  0.3026
19292W        W35766   7.913  16.405  12.241  0.2994 -0.0239 -0.1081
19293W        W35767   4.405   1.145   1.824  0.2977 -0.0275 -0.0173
19294W        W35768   5.919   1.041  12.107  0.2371  0.1150 -0.1269
19295W        W35769   6.985   5.570  13.760 -0.0706 -0.0930  0.1408
19296W        W35770   2.635  10.586   4.936 -0.1766  0.1443 -0.2853
19297W        W35771  19.219   4.077  10.725  0.1610  0.2460  0.0298
19298W        W35772   2.195  15.366  10.607  0.0823  0.0211 -0.2373
19299W        W35773   0.674  14.824  10.964  0.3278 -0.3642  0.0852
19300W        W35774   1.217  11.967  10.489  0.3929 -0.1169 -0.0131
19301W        W35775  13.247  10.683  11.949  0.0731 -0.4108 -0.2073
19302W        W35776   2.776  10.884  10.711  0.0577 -0.1721  0.0177
19303W        W35777   2.183  14.936  10.974  0.1119 -0.0544 -0.0840
19304W        W35778  15.368  12.098  11.589 -0.1332  0.1172 -0.0334
19305W        W35779   8.658   6.630   3.944  0.1132 -0.2743 -0.2094
19306W        W35780  10.710   0.919  10.459 -0.2119  0.1743  0.2193
19307W        W35781   8.990  11.671  14.287 -0.0476 -0.2541  0.0841
19308W        W35782  11.976  19.516   4.544 -0.0468 -0.0847 -0.3716
19309W        W35783   2.787  19.258  12.963 -0.1683 -0.1468  0.0772
19310W        W35784  11.022  17.827   5.971  0.0637  0.1172 -0.1164
19311W        W35785   0.493   8.713   0.634  0.1806 -0.4274 -0.2569
19312W        W35786  14.139  12.747  13.390 -0.2738  0.2408  0.0991
19313W        W35787  11.758  17.222  12.553  0.1025  0.0477 -0.1996
19314W        W35788   3.131  10.731   0.759 -0.1025  0.0123 -0.1017
19315W        W35789  12.351  16.761  11.130  0.1574 -0.1309  0.0556
19316W        W35790   6.607  17.881  11.962 -0.1159 -0.2205  0.0908
19317W        W35791   8.098   6.232   0.919  0.1942  0.1308 -0.1186
19318W        W35792   1.726  16.915  11.358  0.0340 -0.1561 -0.2375
19319W        W35793   0.247  10.506  13.354  0.0414 -0.0463 -0.2843
19320W        W35794   3.007  11.589  12.846  0.1439  0.0106 -0.1417
19321W        W35795   4.239   8.095   0.271 -0.1058 -0.1603 -0.2965
19322W        W35796  11.039  14.557  11.312 -0.3886  0.0094 -0.1041
19323W        W35797  11.529   3.445  12.458  0.1149 -0.1254 -0.2560
19324W        W35798   9.263  19.148  10.706 -0.1235 -0.0642  0.0640
19325W        W35799   3.330  13.047  10.526  0.2798 -0.2500  0.0338
19326W        W35800  17.849   0.947   9.705 -0.0435  0.0014  0.0399
19327W        W35801   5.808  12.237   5.398 -0.0009  0.1169 -0.1915
19328W        W35802  19.264   8.221  12.331 -0.2774  0.1444  0.1519
19329W        W35803  11.517   7.060   4.305 -0.1101  0.0971 -0.0747
19330W        W35804  14.934  17.669   1.006  0.0263 -0.2966 -0.1937
19331W        W35805  18.250   6.540  13.694  0.0261  0.1758 -0.1618
19332W        W35806  11.066   8.869  11.268  0.1771 -0.0978  0.0162
19333W        W35807   6.545   6.138  10.207  0.2895  0.0573  0.1482
19334W        W35808  12.759   6.735  14.455  0.1357 -0.2109  0.2673
19335W        W35809  13.912   7.953  10.996 -0.0532 -0.0727 -0.0256
19336W        W35810   2.160   6.937  10.062  0.1419  0.1214  0.0493
19337W        W35811   0.577   3.868   1.130 -0.0945  0.2174 -0.0002
19338W        W35812  10.971  15.541   2.853 -0.3340 -0.0162 -0.3942
19339W        W35813  13.093  10.571   0.535 -0.2446 -0.0489 -0.1593
19340W        W35814   3.674   1.565  14.154 -0.1495  0.0247  0.1661
19341W        W35815   1.973  16.091  11.728 -0.2730  0.0969  0.2893
19342W        W35816  19.607   3.053   1.579 -0.1593  0.1773 -0.0970
19343W        W35817  16.212   4.093   1.209 -0.2028 -0.1122 -0.3709
19344W        W35818   9.868   5.468   3.131  0.2088  0.2500  0.1675
19345W        W35819  18.622   9.171   2.790 -0.2738 -0.0196  0.2051
19346W        W35820   8.442   5.734  13.108  0.1985  0.1166 -0.3393
19347W        W35821  11.574  19.344   4.255 -0.0017  0.3433 -0.1429
19348W        W35822   0.286  11.423  14.132 -0.0671 -0.0597 -0.2851
19349W        W35823  10.429  13.398  12.732 -0.1134 -0.3513  0.0131
19350W        W35824   3.565  17.841   2.940 -0.2556  0.0589 -0.1445
19351W        W35825   6.068   6.095   9.924 -0.0869  0.2476 -0.2798
19352W        W35826   2.638   3.664   3.318  0.2249 -0.1712  0.1047
19353W        W35827   8.286   4.886   5.276 -0.0312  0.1112 -0.2461
19354W        W35828   1.817  15.462   0.212  0.1666 -0.2513 -0.0350
19355W        W35829  15.183   8.280   2.516  0.0387  0.0948 -0.1484
19356W        W35830  16.802  16.240  13.174 -0.0560  0.2725  0.3741
19357W        W35831   0.494  12.234   3.131 -0.1655 -0.3308  0.0530
19358W        W35832  10.824   4.355  11.756 -0.3841  0.2182 -0.0096
19359W        W35833   3.421   5.190  11.700  0.0724 -0.4658 -0.0194
19360W        W35834  12.355   6.451  10.467 -0.2897  0.1282 -0.2787
19361W        W35835  12.789   3.544   9.832  0.1395  0.3404  0.2170
19362W        W35836   4.479  18.715   1.332 -0.0323  0.1463 -0.2081
19363W        W35837   4.142  13.585   1.990  0.1228 -0.0096 -0.2739
19364W        W35838   2.713   5.011   3.341  0.1340 -0.0253 -0.3303
19365W        W35839  12.767   7.676  14.555  0.3705  0.3256 -0.1435
19366W        W35840   1.788   2.433  13.746  0.0482 -0.2359 -0.1775
19367W        W35841  16.913  19.234  12.536  0.2685 -0.2170 -0.1203
19368W        W35842   9.744   3.194   0.429 -0.0886 -0.1718 -0.0698
19369W        W35843   4.679  13.817   2.421 -0.1681 -0.0747 -0.1880
19370W        W35844   2.842   4.837   2.815 -0.0476 -0.3857 -0.0762
19371W        W35845  12.545  16.840   5.497  0.0156 -0.1369  0.0383
19372W        W35846  19.348  10.090  11.818  0.1801  0.0356  0.1292
19373W        W35847  10.620  12.280  11.498  0.0590 -0.0082 -0.0558
19374W        W35848  13.491  10.073   4.889 -0.0482 -0.1771 -0.3473
19375W        W35849  18.337   2.106   3.966  0.1028  0.1653 -0.0965
19376W        W35850  14.954   6.410  12.676  0.0399 -0.1661  0.2628
19377W        W35851   6.387   7.349   0.044 -0.2017  0.2190  0.0143
19378W        W35852   2.496  14.591  14.333  0.1905  0.0203  0.0212
19379W        W35853   6.886  17.723   2.487  0.1988 -0.3374  0.2479
19380W        W35854   8.678   3.237   3.812  0.2134 -0.1742 -0.0687
19381W        W35855   4.586   9.592   3.977  0.0254  0.2475 -0.0998
19382W        W35856  18.950   9.001   2.295  0.0954  0.3721  0.0925
19383W        W35857   3.189   8.248  10.682  0.0767 -0.0814  0.1416
19384W        W35858  12.256  18.801  14.011  0.0170 -0.1996  0.0619
19385W        W35859  15.407   8.519   3.610 -0.2863 -0.2107 -0.1932
19386W        W35860   2.889  10.946   5.468 -0.1870 -0.2897 -0.0405
19387W        W35861  16.346  13.396  11.223 -0.1625  0.1121  0.0273
19388W        W35862  12.365   8.337   4.907  0.2738  0.0061 -0.0527
19389W        W35863  15.247  17.962   1.925 -0.1150 -0.1340  0.0293
19390W        W35864  14.791  12.335  11.415  0.3214  0.0512 -0.1242
19391W        W35865   5.808  12.342   2.200 -0.1152  0.1200 -0.1009
19392W        W35866   9.196  11.509   4.631 -0.0032  0.3279 -0.0118
19393W        W35867   1.925  17.452   2.450  0.0501  0.1274  0.5435
19394W        W35868  18.758   0.445  11.409 -0.0286 -0.0877 -0.2189
19395W        W35869   0.552   6.027   1.019 -0.1224  0.3009 -0.1558
19396W        W35870  10.371   9.722   0.961 -0.2771  0.1417  0.1317
19397W        W35871   9.733  18.090   4.618  0.0159 -0.1939 -0.1409
19398W        W35872  15.753   2.033  11.224 -0.2595 -0.1567  0.3233
19399W        W35873  16.077  11.035  14.577 -0.1377  0.1062 -0.0855
19400W        W35874   7.141  14.983   3.638  0.2725 -0.1223  0.0504
19401W        W35875  10.827   4.641   0.392 -0.0002 -0.1662 -0.0651
19402W        W35876  17.992  14.154  13.370 -0.0026 -0.1690  0.1990
19403W        W35877   0.105  11.499  11.636 -0.1180  0.1572  0.2169
19404W        W35878   4.200  10.904  14.392 -0.0860 -0.2391  0.0014
19405W        W35879  16.228   7.327   0.097  0.0260 -0.1244 -0.4607
19406W        W35880  16.129   0.269   9.991  0.0557  0.0853  0.0857
19407W        W35881   5.585  11.569   3.091 -0.0622 -0.3011 -0.1365
19408W        W35882  19.084   8.459   3.087  0.0392  0.0297  0.4707
19409W        W35883  10.663  11.834   0.481  0.1872 -0.0646  0.1479
19410W        W35884  12.740   9.611   1.236  0.0885  0.0402 -0.0916
19411W        W35885  17.155  18.663   0.942 -0.0962 -0.0507 -0.0659
19412W        W35886   2.511   8.178  12.647 -0.5188  0.4184 -0.0723
19413W        W35887   7.323   0.678   3.641 -0.0220 -0.1975  0.3460
19414W        W35888  16.512  16.005  10.726  0.3433  0.0686  0.0425
19415W        W35889   2.335   6.162  13.728  0.0271 -0.0285  0.0374
19416W        W35890  17.693   9.557  11.665 -0.2392 -0.0330 -0.5270
19417W        W35891   6.704   5.957  14.525 -0.1294 -0.0262 -0.2324
19418W        W35892   8.911   6.406   0.558  0.4499 -0.0421 -0.0539
19419W        W35893   5.034   1.997  11.009  0.0008 -0.3158 -0.0549
19420W        W35894   6.772  15.427   0.235  0.1264 -0.2590 -0.0616
19421W        W35895  19.111   5.814   2.340  0.0338 -0.1997  0.0315
19422W        W35896   5.796  19.209  14.068 -0.0529  0.0244 -0.0575
19423W        W35897   7.834   5.108   1.716 -0.2160  0.2658 -0.0982
19424W        W35898  12.515  15.616   3.172 -0.1154  0.2329 -0.0949
19425W        W35899   7.295   5.013   5.039  0.1687  0.2215 -0.2210
19426W        W35900   1.950  13.785  11.682  0.0694  0.0950 -0.0132
19427W        W35901  16.758   5.201  10.652  0.1158  0.0423 -0.0998
19428W        W35902   8.670  17.599   0.198  0.0355  0.0544  0.1111
19429W        W35903  18.405  15.449   4.440  0.3816  0.2520 -0.1290
19430W        W35904  15.683  15.082  14.218 -0.3253  0.1619  0.1617
19431W        W35905   6.340   3.840  13.825 -0.3132  0.1484  0.1749
19432W        W35906  14.564  14.929  10.296 -0.0640  0.1270 -0.1597
19433W        W35907   0.314   5.637  12.775 -0.0013 -0.4199  0.3002
19434W        W35908   7.643   6.714  11.345 -0.1463  0.4160  0.3043
19435W        W35909   4.365  14.636   0.325  0.2002 -0.2042 -0.0143
19436W        W35910   3.477   9.373   9.253  0.1078  0.0351 -0.3163
19437W        W35911  12.871   4.751  13.317 -0.3191  0.0419  0.0211
19438W        W35912  19.187  16.411  13.394 -0.1406 -0.0918  0.0214
19439W        W35913   8.914  10.671  13.055  0.2069 -0.0575  0.2055
19440W        W35914  17.431   8.009   3.052 -0.1623 -0.2758 -0.1754
19441W        W35915   1.958  14.953  13.020 -0.3003 -0.2639  0.0740
19442W        W35916  15.993  15.233   0.905 -0.3318  0.3014  0.0092
19443W        W35917  17.755  11.072  13.824  0.0507 -0.0177 -0.1876
19444W        W35918   7.084   6.548  10.830 -0.0785 -0.3006  0.0338
19445W        W35919  15.351  19.544   1.444 -0.0562 -0.0248 -0.1477
19446W        W35920   4.809   3.148  12.161  0.0787 -0.1893  0.0025
19447W        W35921   1.235   6.337  12.022  0.0743  0.2140  0.1050
19448W        W35922   1.713  17.376   2.976 -0.0020 -0.3703  0.1238
19449W        W35923  11.411  15.220   3.806 -0.2611 -0.0817  0.2414
19450W        W35924  17.526  16.006   3.976  0.1303  0.1458 -0.0283
19451W        W35925  10.991   5.134  11.397 -0.4437  0.4446 -0.2144
19452W        W35926  18.461   8.473   0.411  0.0470  0.0282 -0.1960
19453W        W35927  11.047  10.743   4.121 -0.4473  0.1564 -0.0526
19454W        W35928  17.686  18.420   3.390 -0.0782  0.1162 -0.0612
19455W        W35929   1.482  15.988   4.641  0.1968  0.0851  0.2247
19456W        W35930   5.424   8.163  11.268 -0.0743 -0.0822  0.1647
19457W        W35931  18.420   3.078   3.613  0.0280  0.0115 -0.0658
19458W        W35932   8.823  14.180   0.203 -0.4075 -0.2094  0.1395
19459W        W35933  14.745   2.892  14.107  0.2788  0.3047 -0.0958
19460W        W35934   5.311   3.966   1.607 -0.1374 -0.0486 -0.1076
19461W        W35935   0.251   2.925  12.899 -0.0470 -0.1265 -0.0339
19462W        W35936  10.600   7.990  14.195  0.0744  0.2615  0.1333
19463W        W35937   4.296   5.605   4.535 -0.2773 -0.1216 -0.1172
19464W        W35938   1.229   0.922   2.103 -0.1766 -0.1034 -0.0099
19465W        W35939  11.031   6.250  10.874  0.0097  0.0384  0.2281
19466W        W35940  19.002   7.289  10.778 -0.2874  0.0956  0.0269
19467W        W35941  13.065   4.644   3.904  0.1170 -0.0037 -0.0079
19468W        W35942   5.446  12.128   3.851 -0.0340 -0.0846  0.0517
19469W        W35943   3.165   5.774  11.368  0.0298  0.1132  0.3609
19470W        W35944   0.739  10.395   9.996  0.1957 -0.1056 -0.2423
19471W        W35945  18.361  13.471   3.721 -0.0668  0.0978 -0.0496
19472W        W35946  16.500  15.469  11.493 -0.3097 -0.1538  0.1371
19473W        W35947   5.588   5.904  14.625  0.0015  0.0384  0.0034
19474W        W35948   9.322   3.774  13.780 -0.1506  0.0432 -0.1365
19475W        W35949   1.117   7.227   4.169 -0.2961 -0.0216 -0.0927
19476W        W35950   8.303   8.724  13.707 -0.1972 -0.0681  0.1320
19477W        W35951   0.767   9.879  12.660  0.1471 -0.1149 -0.1037
19478W        W35952  18.915  17.485   1.787  0.1940  0.3442  0.2522
19479W        W35953  16.555  17.488  10.263  0.1262 -0.2893  0.1642
19480W        W35954   2.201   0.767  11.715  0.5083  0.1110  0.2385
19481W        W35955  13.398  16.401  13.450  0.2370 -0.2979 -0.1910
19482W        W35956   0.653   8.168   2.367 -0.3424 -0.3036  0.0059
19483W        W35957  16.234   0.960   2.124  0.0366  0.2994  0.3160
19484W        W35958  16.776   0.411  13.443  0.1417  0.3529  0.1278
19485W        W35959   9.760  16.825  12.591 -0.1116  0.0092  0.1424
19486W        W35960   7.168   4.250   3.679 -0.2870 -0.0916 -0.0566
19487W        W35961   7.759   9.439   1.791  0.0180 -0.1538 -0.0856
19488W        W35962   5.027  14.894   0.039 -0.1588  0.2247  0.0076
19489W        W35963  19.284  17.693   5.337  0.0289  0.0234  0.1574
19490W        W35964   0.724  12.859  11.353  0.1776  0.0134 -0.0831
19491W        W35965  19.517   3.116   2.693  0.0970  0.4685 -0.0481
19492W        W35966  11.578   8.950  10.619  0.1590  0.1168  0.0224
19493W        W35967   3.069   7.211  13.214 -0.0639  0.3046  0.2215
19494W        W35968  16.489  10.003   1.306 -0.3921  0.2918 -0.1382
19495W        W35969   1.477   8.986   2.539 -0.3108  0.0314 -0.1186
19496W        W35970   8.760   5.927   1.680  0.1259 -0.3990 -0.0492
19497W        W35971  12.160   2.132   4.277  0.2098 -0.3571  0.0196
19498W        W35972   9.085  11.654  11.340  0.2387  0.1363  0.0282
19499W        W35973   6.161  15.117   0.635 -0.1635 -0.5807  0.2640
19500W        W35974   6.960  13.578   5.858  0.0546 -0.0485 -0.2483
19501W        W35975   4.345  13.978   2.722 -0.0207 -0.0502  0.0207
19502W        W35976  12.674  17.383  13.989  0.0141 -0.1190  0.3293
19503W        W35977  18.880  12.254  11.757  0.0967 -0.1316  0.0591
19504W        W35978   6.113   4.365   9.162  0.0836 -0.3082 -0.1101
19505W        W35979   8.633  18.447  12.166  0.2235 -0.2211 -0.1558
19506W        W35980  11.166   8.796  11.893 -0.0507 -0.1085  0.0160
19507W        W35981  16.592  12.804  13.057 -0.0996  0.0021 -0.0507
19508W        W35982  17.693  18.566  10.706  0.0823 -0.4350 -0.0699
19509W        W35983  10.938   4.178   5.246 -0.0089  0.2229 -0.1022
19510W        W35984   7.988  12.771   0.775 -0.0781 -0.1067  0.1088
19511W        W35985  12.005   8.775  12.777 -0.0082 -0.4027 -0.5135
19512W        W35986  17.547   2.222   3.251 -0.1726  0.0804 -0.0202
19513W        W35987  15.938  19.194   4.142  0.0032  0.0706 -0.1649
19514W        W35988  18.190  12.700   9.985 -0.1300  0.1752 -0.3361
19515W        W35989   9.280   3.722   3.766 -0.2184 -0.1865  0.0681
19516W        W35990  11.488   1.780   0.149 -0.2911  0.1014 -0.0099
19517W        W35991  14.790  15.823   2.999  0.2982 -0.1929 -0.1186
19518W        W35992  12.664   8.501  13.955 -0.4687 -0.1533  0.2408
19519W        W35993   4.985   3.256   1.007 -0.2076 -0.0897  0.0013
19520W        W35994  14.573   1.552   1.390 -0.2692  0.2419 -0.1134
19521W        W35995  19.411  11.901   1.110 -0.1870 -0.3336  0.0391
19522W        W35996  17.063  18.251   3.577  0.1394  0.0605  0.0515
19523W        W35997  12.297  14.204  12.936 -0.0335  0.2096  0.1506
19524W        W35998  17.275   6.890  10.549  0.1262 -0.1653  0.1730
19525W        W35999  16.756   9.664   5.263  0.0022 -0.0048  0.1175
19526W        W36000  12.984  12.930  14.567 -0.2474  0.2495  0.3684
19527W        W36001   4.354  19.060  12.132 -0.2152 -0.0676  0.3664
19528W        W36002   2.705   4.803   1.675 -0.1670 -0.1570  0.3234
19529W        W36003   2.445  12.856   2.597 -0.2395  0.0379  0.0053
19530W        W36004   4.802   7.080  11.368 -0.1347 -0.0986  0.1177
19531W        W36005   4.566  12.218  10.234 -0.0939  0.0182 -0.4869
19532W        W36006   4.161  16.362   2.856 -0.1684  0.0221 -0.2379
19533W        W36007   0.679   3.603   1.587 -0.0400 -0.3285  0.1282
19534W        W36008   7.067   0.239  11.615  0.1966 -0.1735 -0.1266
19535W        W36009  10.615  16.901  11.696  0.1007 -0.0164 -0.0259
19536W        W36010   0.228   1.027   3.561  0.5475  0.2385 -0.2618
19537W        W36011   9.512   5.451   0.727 -0.0538  0.0176 -0.1169
19538W        W36012   8.050  14.000   3.836 -0.0790 -0.0769  0.2041
19539W        W36013   0.877   6.298   2.931  0.0249 -0.0844  0.1118
19540W        W36014  14.048  15.089  10.406 -0.2805 -0.2257  0.3122
19541W        W36015  16.062   0.757   4.202  0.2755 -0.1708 -0.1157
19542W        W36016   7.637   9.448  11.511  0.3673  0.3072  0.2009
19543W        W36017  15.015   8.223   3.859  0.3025  0.1197 -0.0166
19544W        W36018  14.624  17.602  13.332  0.4774 -0.1538  0.2649
19545W        W36019  15.242  15.959   5.056 -0.0689  0.4012  0.1003
19546W        W36020  12.577   3.592   4.514  0.1623  0.1675 -0.3647
19547W        W36021  13.455   3.588   1.273 -0.0808  0.0017 -0.3901
19548W        W36022   3.939   8.404   3.144  0.3253 -0.2431  0.3309
19549W        W36023  17.195   1.554   2.786 -0.2559  0.5325  0.1160
19550W        W36024  17.431   2.648   2.295  0.4868 -0.1716 -0.0475
19551W        W36025   1.114   0.470   1.379  0.1245 -0.2796  0.1960
19552W        W36026   8.312  16.315   4.428  0.2977 -0.0059 -0.1686
19553W        W36027   1.980  14.306   2.729  0.1319  0.2573 -0.0183
19554W        W36028  12.648   7.939  11.705  0.0648 -0.3347 -0.1981
19555W        W36029   1.135   0.349   3.313 -0.3516  0.1999 -0.2230
19556W        W36030   1.336   5.087  13.737  0.2179 -0.2506 -0.3070
19557W        W36031  10.159  10.646   0.588 -0.1026  0.0790  0.2505
19558W        W36032  16.816   2.255   0.747 -0.1109 -0.2647 -0.3333
19559W        W36033  12.026  16.410   4.527 -0.4095 -0.0092 -0.1661
19560W        W36034   6.679  11.797   2.214 -0.4637 -0.0485  0.2864
19561W        W36035  14.164   9.063  10.030 -0.1642 -0.1763  0.0414
19562W        W36036  10.194  16.675   2.931 -0.0108 -0.0952 -0.1853
19563W        W36037   2.583  15.648  12.074  0.1516 -0.1625 -0.1299
19564W        W36038  16.553  12.281  11.454  0.0003  0.0276  0.1260
19565W        W36039   8.373   2.690   2.353  0.0283  0.3698 -0.1874
19566W        W36040  16.295  18.873   2.633  0.1533  0.3442  0.1172
19567W        W36041   1.261  16.057  12.957  0.2753  0.4779 -0.2198
19568W        W36042   7.609  10.448   4.131 -0.1370  0.2963 -0.1321
19569W        W36043   0.337  15.051   4.128  0.2733 -0.3313 -0.1977
19570W        W36044  18.230  11.083  11.620  0.0212  0.1118  0.2665
19571W        W36045  15.746   4.868   1.692  0.0534 -0.0856  0.2493
19572W        W36046   9.969   1.170   1.056  0.0055  0.1849 -0.1943
19573W        W36047  14.612   7.418  11.220  0.0350 -0.0383  0.0581
19574W        W36048  19.457   3.489   1.672 -0.2325  0.0328 -0.3370
19575W        W36049   8.716   7.446  10.796 -0.1918  0.1984  0.1634
19576W        W36050   1.699  17.473  11.437  0.2713 -0.1215  0.0781
19577W        W36051  14.478  11.822   3.323  0.0242  0.0362 -0.0310
19578W        W36052  10.060   4.762  13.000 -0.0251  0.1109  0.0159
19579W        W36053   9.054   8.218  11.524  0.1575  0.2215  0.2754
19580W        W36054   2.080  14.518  13.438 -0.1802 -0.0922  0.2709
19581W        W36055   6.072   6.519   1.201  0.2992 -0.0523  0.0173
19582W        W36056  17.234   1.138  10.594  0.1064 -0.0071  0.1172
19583W        W36057   6.885  16.101  10.548 -0.1707  0.1904  0.0329
19584W        W36058   6.047  17.685  12.775  0.1566  0.0726  0.0359
19585W        W36059  18.950  14.842  13.687 -0.2502  0.1699  0.0876
19586W        W36060   0.888  12.884  14.572 -0.0022 -0.3448  0.0464
19587W        W36061   0.989   7.670   3.882  0.3715  0.2602 -0.0662
19588W        W36062   5.406   2.358   1.369 -0.0698  0.2717  0.1462
19589W        W36063  11.986  12.603   0.787 -0.1355  0.0115  0.0073
19590W        W36064   4.477  14.580  14.020 -0.0880  0.2771 -0.3120
19591W        W36065   5.897   4.710  14.299  0.1000  0.0477  0.0328
19592W        W36066  17.520   8.892   3.176 -0.3720 -0.0904 -0.0578
19593W        W36067  11.424  10.450  11.980 -0.2385 -0.4254 -0.2084
19594W        W36068  17.364   6.834   3.966 -0.0358  0.2638 -0.0597
19595W        W36069  10.334   8.981  10.588  0.0717  0.2045  0.1693
19596W        W36070   6.453  17.561   4.177 -0.2159  0.3344 -0.3039
19597W        W36071  14.921  15.297   0.350  0.0871 -0.1443 -0.0584
19598W        W36072  19.327  11.832  12.408  0.0211  0.2040  0.3253
19599W        W36073  18.331   2.667   0.749  0.3597 -0.1136 -0.0811
19600W        W36074  11.248  14.287   1.286 -0.0895 -0.3631  0.0113
19601W        W36075  18.862   0.672   2.931  0.0517 -0.0739  0.1862
19602W        W36076   9.254  17.527   0.504  0.2377  0.0180  0.0939
19603W        W36077  15.478  14.337   4.258 -0.1652 -0.2291 -0.1561
19604W        W36078  16.622   7.672  12.773 -0.2883  0.0936 -0.3004
19605W        W36079  17.789  15.910   9.685 -0.0914 -0.0249 -0.2365
19606W        W36080   2.344   8.813   2.229 -0.2031  0.0111 -0.3648
19607W        W36081   7.339  14.853  14.422  0.2918 -0.0893 -0.1843
19608W        W36082  11.192   0.540   5.609 -0.3051  0.0789 -0.0572
19609W        W36083  16.854  16.233  11.637 -0.3570  0.1232 -0.0107
19610W        W36084  10.672  14.309  12.315  0.0817  0.1781 -0.1063
19611W        W36085  16.347   2.538  12.313  0.0348  0.0345 -0.1473
19612W        W36086  13.704  12.619   4.796 -0.1063  0.1285 -0.1026
19613W        W36087   4.256  13.947   3.520  0.2821  0.2028 -0.0122
19614W        W36088  15.824  10.830  12.896 -0.1362 -0.1792 -0.0348
19615W        W36089   9.508   3.509   0.951 -0.3329  0.0100  0.4568
19616W        W36090   1.363   5.592   2.597 -0.2232  0.1236  0.2135
19617W        W36091  16.937   8.513   2.229  0.0660  0.1686  0.1045
19618W        W36092   6.679   4.590   2.888 -0.0593 -0.1458 -0.3956
19619W        W36093  18.243  16.776   2.198 -0.1631  0.0147 -0.2258
19620W        W36094   7.690   1.865  12.754 -0.4986 -0.2766 -0.3217
19621W        W36095  17.133  18.044  10.649  0.3162 -0.0191 -0.1431
19622W        W36096  11.779  12.560   0.349 -0.3526  0.2697  0.2559
19623W        W36097   9.159   5.826  12.927 -0.0185 -0.2788  0.1047
19624W        W36098   7.009  14.966   0.137  0.1165 -0.0146  0.1390
19625W        W36099  12.673   5.786   3.165 -0.2262 -0.3736 -0.0638
19626W        W36100  11.826  10.790  14.220  0.0396 -0.0852  0.1200
19627W        W36101  10.643  16.107   1.152  0.0143  0.0462 -0.3200
19628W        W36102   7.873   3.969  10.444 -0.0238 -0.0520  0.0295
19629W        W36103   4.011  13.131   9.766 -0.0961 -0.1264  0.2236
19630W        W36104   6.072  14.961  12.935 -0.0032  0.3643 -0.0921
19631W        W36105   4.223  11.640  10.317  0.2963  0.1128 -0.1082
19632W        W36106   2.067   0.459  10.346  0.2045  0.1897  0.0260
19633W        W36107   6.298  16.562   0.660  0.0019 -0.5416 -0.1503
19634W        W36108  17.962  14.755   4.848 -0.1987  0.2752 -0.3541
19635W        W36109   9.792  17.059   0.635 -0.0230 -0.0059 -0.3987
19636W        W36110   1.715   7.179  12.964  0.0889 -0.1924 -0.3294
19637W        W36111  13.169   0.707  13.464  0.0007 -0.2172 -0.1540
19638W        W36112  16.340   0.059  14.297  0.0041  0.0958 -0.0126
19639W        W36113   6.473  10.037   2.435  0.0370  0.4766  0.0294
19640W        W36114  18.351   5.253  11.073 -0.0149  0.0346  0.0628
19641W        W36115  11.219   1.676  12.362 -0.1636 -0.1903 -0.2409
19642W        W36116   6.037  15.195   2.464 -0.0481  0.0173 -0.0142
19643W        W36117  16.973   6.653   1.207 -0.2045  0.2431 -0.2429
19644W        W36118  15.311  17.304  10.939 -0.0310  0.0227  0.1766
19645W        W36119  15.836  19.056   1.119  0.0338  0.1556 -0.0487
19646W        W36120  14.771  17.915  11.698 -0.0487 -0.1470 -0.0564
19647W        W36121  11.032  16.178   4.846 -0.2164 -0.2431 -0.0463
19648W        W36122  19.454  16.830  11.344  0.1176  0.0094  0.4930
19649W        W36123  14.662  19.176  13.367  0.1889  0.1184 -0.2046
19650W        W36124  15.054   9.773  11.900 -0.0303 -0.1788 -0.3255
19651W        W36125   4.936   5.410  11.281  0.1169  0.2837 -0.0189
19652W        W36126   6.061   1.915   4.589  0.1788  0.1100  0.2219
19653W        W36127  15.963   0.043  13.346 -0.0683 -0.0015  0.1992
19654W        W36128   8.675   6.131   3.148 -0.2882 -0.1527  0.1351
19655W        W36129   8.678   8.569  11.412  0.5471 -0.1202 -0.1679
19656W        W36130   2.611  17.631  13.588 -0.0024  0.2390  0.0547
19657W        W36131  12.432  18.281   2.694  0.4163  0.1114  0.1625
19658W        W36132   6.913   1.413  11.676 -0.0018  0.1158 -0.1678
19659W        W36133  11.619   2.845  12.240  0.0890  0.0835 -0.1893
19660W        W36134   2.193  16.423  13.165 -0.2293 -0.2349  0.4008
19661W        W36135  17.137  18.079  13.012  0.1167 -0.3519 -0.2785
19662W        W36136   1.219   6.274  12.522 -0.0040  0.1516  0.2156
19663W        W36137   4.610   3.556  12.621 -0.0993  0.2072  0.2348
19664W        W36138  15.519   9.792   0.492  0.0096  0.3462  0.2296
19665W        W36139   7.677   7.375  13.824 -0.1742 -0.1697  0.1394
19666W        W36140   6.219   6.095   1.512  0.0397 -0.1282  0.1790
19667W        W36141   1.461  12.088   0.122  0.0483 -0.1386 -0.1398
19668W        W36142  12.781  12.526  10.670  0.2928 -0.1082 -0.0231
19669W        W36143   3.352  13.536  10.666  0.2703 -0.0357  0.0110
19670W        W36144   6.131  18.655   0.684 -0.1343  0.1313  0.0398
19671W        W36145   9.503  13.388   1.815  0.0581  0.0941  0.0839
19672W        W36146  15.675   0.345   0.672  0.0716  0.1845 -0.0543
19673W        W36147   7.839   8.001   1.100 -0.0196 -0.0218 -0.0734
19674W        W36148  10.816  13.242   4.269  0.2300 -0.2446 -0.1284
19675W        W36149  10.091   1.232   4.387  0.2092  0.0392 -0.1197
19676W        W36150   5.131   6.990  13.532 -0.0531 -0.0115 -0.0743
19677W        W36151  11.915  12.516   2.371  0.0404  0.2665 -0.0195
19678W        W36152  13.189   5.272   3.621  0.1422 -0.2709  0.0472
19679W        W36153   1.398  12.741  12.406  0.1816 -0.0327  0.1558
19680W        W36154  17.820   7.942   2.523 -0.0649 -0.3672  0.2803
19681W        W36155  12.137   8.170   1.487  0.0286  0.1905 -0.2156
19682W        W36156   9.799   2.310   4.095  0.2058  0.1042  0.0111
19683W        W36157  12.007  10.308  13.974 -0.1266 -0.3657  0.0747
19684W        W36158   1.208  12.956   1.823  0.4354 -0.2749 -0.0095
19685W        W36159   8.268  12.230  12.422 -0.0986 -0.0340 -0.0263
19686W        W36160   0.429   2.097   4.584  0.0978  0.3296  0.0549
19687W        W36161  13.393  16.842   3.284  0.0307 -0.1082 -0.1224
19688W        W36162  11.108   0.539  11.052  0.1711 -0.1592  0.0476
19689W        W36163   5.990   5.472  12.262  0.1803  0.1641  0.0872
19690W        W36164   6.007   5.702   5.067  0.2422 -0.0890  0.1177
19691W        W36165  11.606  16.264   0.100  0.1824 -0.0711 -0.1362
19692W        W36166  12.741  16.559  11.473  0.2387 -0.0372 -0.0440
19693W        W36167  13.628  11.181  11.295  0.1036 -0.2825  0.0573
19694W        W36168  14.770   6.933   5.190  0.0422 -0.0059 -0.0386
19695W        W36169   2.594   3.173   0.109  0.0565 -0.1090  0.2613
19696W        W36170   4.206  17.485   3.928  0.0231 -0.1936  0.1836
19697W        W36171  18.661  12.413  10.344 -0.0081  0.0445  0.0444
19698W        W36172   4.851  14.659   0.591 -0.0715  0.0843 -0.0074
19699W        W36173  18.883   1.820   0.541 -0.0619  0.0636 -0.0886
19700W        W36174   9.316   4.772  14.638  0.0658 -0.3856 -0.2223
19701W        W36175  12.874  15.744   0.392  0.0122 -0.1730 -0.0645
19702W        W36176  13.046  16.117   5.368  0.2685 -0.0649 -0.0368
19703W        W36177   5.538   8.287   2.532  0.2979 -0.1508  0.0809
19704W        W36178   5.071  16.320   1.260 -0.0313  0.1032 -0.1626
19705W        W36179   1.120  14.628   0.927  0.1936  0.2125 -0.1779
19706W        W36180   9.054  14.821   2.775  0.0889  0.1994 -0.3473
19707W        W36181   5.065  16.997   2.210  0.0603 -0.1072  0.0079
19708W        W36182   7.650  10.670   2.705 -0.0536 -0.1367  0.1583
19709W        W36183   3.930   6.444  13.640  0.0544  0.1161 -0.1053
19710W        W36184  11.186   4.451   4.522  0.0357  0.3782 -0.1607
19711W        W36185   8.157   5.994   2.354  0.1464  0.2737  0.0591
19712W        W36186   9.403   1.834   5.467  0.3571 -0.0535  0.1488
19713W        W36187   6.503  12.298  12.288 -0.0708 -0.0716 -0.0156
19714W        W36188  18.181  18.805  10.597 -0.0433 -0.1298 -0.0643
19715W        W36189  14.157   1.679   4.981  0.1852 -0.2360  0.1509
19716W        W36190  10.659   9.446   2.640  0.1158 -0.0549 -0.2148
19717W        W36191  11.004   8.064  11.943 -0.2018  0.3297  0.3358
19718W        W36192  18.123   5.542  11.797 -0.0366  0.1011  0.1323
19719W        W36193   0.550  14.890  14.434 -0.1937 -0.0372  0.3122
19720W        W36194  14.371   6.797  11.971 -0.0683  0.0409 -0.1944
19721W        W36195   2.973   7.275   4.420  0.1180 -0.1299 -0.0402
19722W        W36196  11.560  11.363  11.043  0.0147  0.2671 -0.0662
19723W        W36197   8.429  17.722  12.483  0.2818  0.0123  0.1246
19724W        W36198  17.834  19.622  11.628  0.1559 -0.0501  0.0417
19725W        W36199  10.419   1.048   5.420  0.1834 -0.1759  0.0400
19726W        W36200  13.467   0.345  13.524  0.2013 -0.2643  0.0672
19727W        W36201  16.785   6.176   3.337  0.1892  0.0292  0.0135
19728W        W36202   5.497   0.775   2.285 -0.2600 -0.0140  0.1445
19729W        W36203   0.439  17.057  14.400  0.1021 -0.0459  0.2262
19730W        W36204   9.111  17.958   4.767  0.0460 -0.0971  0.1450
19731W        W36205  17.148   1.119  11.457 -0.0714 -0.1453  0.0217
19732W        W36206   1.713  11.733  13.612  0.0936 -0.2595  0.0897
19733W        W36207   4.008   4.735  13.408 -0.2896  0.1847 -0.0610
19734W        W36208   6.617  15.459   1.486  0.1856  0.2524  0.0013
19735W        W36209   2.441   5.132   2.946 -0.0604  0.2266 -0.1957
19736W        W36210  16.079   5.995  13.430 -0.2357  0.0028 -0.2952
19737W        W36211  13.093   2.924   1.797  0.1852 -0.3310  0.1186
19738W        W36212   8.336  13.152  11.687 -0.0807  0.1273  0.2548
19739W        W36213   0.932   4.477   3.664  0.0439 -0.1509 -0.1489
19740W        W36214  16.134  16.799  12.422  0.1326  0.0274 -0.0396
19741W        W36215   6.491  15.073   2.573 -0.0380  0.0690  0.3880
19742W        W36216  15.768  14.148   2.693  0.5108  0.1400  0.3924
19743W        W36217   7.443  12.688  10.951 -0.1507 -0.0131 -0.1317
19744W        W36218   8.095   4.296   2.966 -0.1323 -0.2570  0.0001
19745W        W36219  13.487  17.925  11.409 -0.2735  0.1529  0.0694
19746W        W36220  10.770  19.526   2.576 -0.4994  0.0943 -0.0484
19747W        W36221  13.541   1.634   4.502 -0.2605 -0.1378  0.2201
19748W        W36222   0.149  12.108  10.290  0.1508 -0.4220  0.0523
19749W        W36223   4.347   2.392  11.388  0.0175  0.0393  0.0078
19750W        W36224   6.936  18.176   1.744 -0.0104  0.3193  0.1576
19751W        W36225   4.439   1.792  13.444 -0.1732 -0.0848 -0.2680
19752W        W36226  10.957   9.837   3.917 -0.1582 -0.1413  0.1809
19753W        W36227  17.737  16.268  10.079  0.0079 -0.1824 -0.1865
19754W        W36228   3.651   6.873  10.576 -0.3110 -0.2414  0.2175
19755W        W36229  18.471   4.013   3.772  0.0261  0.0594 -0.0406
19756W        W36230   5.706   4.919   0.257  0.4263  0.2208  0.2079
19757W        W36231   6.232  10.474   2.480  0.0372  0.0567  0.1305
19758W        W36232   4.110   1.964  14.345  0.1898  0.1441 -0.2344
19759W        W36233  12.162  10.743  13.336  0.2478  0.0147 -0.0844
19760W        W36234   6.067   5.514  11.734  0.2280 -0.2497  0.2088
19761W        W36235   8.585   8.751  10.882  0.0560  0.1568  0.4443
19762W        W36236   2.481   5.435  14.158  0.1284 -0.5011 -0.4199
19763W        W36237  16.568   2.950  14.498 -0.1686  0.0457 -0.0265
19764W        W36238   2.177   9.129  10.019  0.2032  0.0184 -0.3180
19765W        W36239   2.729   1.189   2.752 -0.0912  0.1940  0.1853
19766W        W36240   1.339   9.066   1.551 -0.2154  0.2103  0.2694
19767W        W36241   1.515  16.703  11.744 -0.0530 -0.0358  0.0708
19768W        W36242   9.066  14.776   2.255 -0.2130 -0.0401 -0.0655
19769W        W36243   2.548   2.676   3.585  0.1818  0.0669 -0.1550
19770W        W36244  14.555   3.845  11.754 -0.0660  0.1546  0.0374
19771W        W36245  10.277  16.874  11.231  0.3814  0.0544  0.1231
19772W        W36246  17.000  10.543   3.135  0.0690 -0.3662  0.0354
19773W        W36247   8.412  14.028   1.842  0.2293  0.1523  0.0017
19774W        W36248   5.877  19.244  10.383  0.2131 -0.3404  0.1638
19775W        W36249  18.949  16.836  13.533 -0.1213 -0.2802  0.1590
19776W        W36250   9.708  16.592   4.523 -0.2619  0.0114  0.2478
19777W        W36251   4.897   7.830  14.263  0.1096 -0.3003 -0.0389
19778W        W36252   3.976  13.410   0.934 -0.1890  0.0779  0.0161
19779W        W36253  12.558  17.752  13.248 -0.2359  0.2960  0.4055
19780W        W36254  17.669  11.848   0.521 -0.2266  0.2581  0.1218
19781W        W36255  19.028   5.127   3.370 -0.1432  0.2682  0.0672
19782W        W36256  17.041   7.690  12.496 -0.0807  0.0189 -0.3730
19783W        W36257   1.191  16.342  11.158 -0.0561 -0.0643  0.3808
19784W        W36258   9.889  10.011  12.324 -0.0424 -0.3973 -0.0111
19785W        W36259   8.905  15.412  14.034  0.2784 -0.0989 -0.2269
19786W        W36260   4.312  10.375   2.642  0.1057 -0.0709  0.3586
19787W        W36261  14.292   8.965  12.066 -0.0486 -0.2220  0.1245
19788W        W36262  12.931   1.177   1.512  0.0257 -0.1133 -0.0301
19789W        W36263   7.072   7.591   1.752  0.1611  0.0714  0.0803
19790W        W36264  10.055  16.006  11.793  0.0817 -0.2149  0.0391
19791W        W36265  17.318  17.606   0.766 -0.0252  0.2432 -0.2389
19792W        W36266   5.437   6.968  13.143  0.1045 -0.1532  0.2009
19793W        W36267  12.359   8.626  11.093  0.0201  0.1872  0.0970
19794W        W36268   0.609   6.511   3.950 -0.0284  0.1077  0.2128
19795W        W36269   1.999  13.585   5.191 -0.2578  0.0744  0.2228
19796W        W36270   6.063  14.398   3.023  0.2211 -0.0963 -0.3059
19797W        W36271  15.910   3.851   4.953  0.2348  0.1075  0.1489
19798W        W36272   5.780  14.592   1.963  0.1217 -0.0461 -0.0898
19799W        W36273   9.962  10.043  14.593 -0.1370  0.2392 -0.0954
19800W        W36274  13.722  15.893   0.589 -0.1132 -0.1328  0.0116
19801W        W36275  15.609  17.586   1.813 -0.2212  0.1847 -0.2348
19802W        W36276  11.245   3.949   1.911 -0.2295 -0.2476  0.0443
19803W        W36277   3.500   1.608   3.374 -0.2454 -0.0406 -0.2033
19804W        W36278  14.115   8.611  10.563 -0.1610 -0.0094 -0.0920
19805W        W36279   3.995   4.368  13.835 -0.2141  0.1025  0.1838
19806W        W36280   3.078  16.381   1.845  0.0705  0.0817  0.2146
19807W        W36281   1.937  15.906   3.789  0.0317  0.1709 -0.1413
19808W        W36282   6.498   0.008   3.241  0.1323 -0.0677  0.2683
19809W        W36283  17.018   6.359   0.758  0.3231 -0.0079  0.0512
19810W        W36284   1.956  14.392   4.110 -0.1240  0.1370  0.0740
19811W        W36285   0.394  11.991   9.042 -0.1589  0.0269  0.0525
19812W        W36286  11.162  19.209   1.365  0.1873 -0.1674 -0.0212
19813W        W36287   4.367  12.086   4.655 -0.0454 -0.0287 -0.3169
19814W        W36288   9.464   8.970  14.358 -0.0512  0.2391  0.2232
19815W        W36289   9.586   9.835  13.222  0.1266 -0.0491 -0.2899
19816W        W36290   9.063  16.882   2.905  0.0688  0.0895  0.3569
19817W        W36291   6.769   0.853   0.487 -0.0714  0.0514 -0.0818
19818W        W36292  14.610  18.480   2.105 -0.4137 -0.0628 -0.1523
19819W        W36293  19.036  15.620  12.089  0.2475 -0.1474 -0.0465
19820W        W36294  18.322  16.839   3.367 -0.1069 -0.0397 -0.1378
19821W        W36295   4.384  15.956   0.841  0.0644  0.0775  0.1610
19822W        W36296   9.666  17.532  13.609 -0.0787 -0.0682  0.1357
19823W        W36297   3.423  19.472  14.026  0.0801 -0.1639  0.1609
19824W        W36298  12.310   4.696   0.540  0.0042  0.0343 -0.0546
19825W        W36299  11.432  11.528  13.945  0.1162 -0.0149  0.1713
19826W        W36300   0.777   2.157  14.137  0.1440 -0.3106  0.0532
19827W        W36301  18.851  13.631   5.125  0.0907  0.1591 -0.0580
19828W        W36302  17.564   7.238  10.717 -0.0624 -0.0284 -0.1982
19829W        W36303  13.832  16.459   2.358  0.0863  0.2686 -0.0870
19830W        W36304  17.987  11.702   3.256  0.0609 -0.1462 -0.1440
19831W        W36305  16.982  13.028  14.194 -0.1660 -0.2392 -0.0135
19832W        W36306  16.638  11.092  12.970  0.0755  0.0316  0.2158
19833W        W36307   2.173   9.744   2.572  0.1396  0.2177 -0.0283
19834W        W36308   7.759  15.514  12.395  0.0466  0.2231  0.1736
19835W        W36309  16.550   9.485   1.038  0.0065  0.0765 -0.2921
19836W        W36310   5.825   4.270   4.996 -0.0484  0.2633  0.0110
19837W        W36311  19.041   5.272   4.436 -0.1288 -0.0177 -0.0493
19838W        W36312  14.597   9.449   2.179 -0.0360 -0.2728  0.1556
19839W        W36313  11.732  15.304  14.035 -0.1205  0.0166 -0.4249
19840W        W36314   6.362   6.376  13.228 -0.0286  0.0096 -0.0473
19841W        W36315   3.147   9.165  14.042 -0.1554 -0.1628 -0.1058
19842W        W36316  10.199   8.528  10.256  0.0243  0.3465 -0.2098
19843W        W36317  10.183  18.930   2.857  0.1152 -0.0975  0.1995
19844W        W36318   3.757   8.426   0.167 -0.0347  0.2641 -0.4298
19845W        W36319   0.727  14.395  10.605  0.2970  0.1336 -0.1563
19846W        W36320   1.884   1.393  13.949 -0.2375 -0.0277 -0.2248
19847W        W36321   3.672   9.843   3.401 -0.2077 -0.2083 -0.2679
19848W        W36322   0.783   6.358   3.431 -0.2258 -0.0568  0.2191
19849W        W36323   7.219   7.880   0.387  0.0591  0.0142 -0.0222
19850W        W36324  10.428   2.432  13.149 -0.0877 -0.2216 -0.2991
19851W        W36325  17.823   5.525   4.077  0.1071 -0.2411 -0.1463
19852W        W36326  18.289   0.695   1.767  0.4425 -0.0980  0.0509
19853W        W36327   8.260  15.200   0.650 -0.2361  0.0589 -0.2572
19854W        W36328  11.355   3.431  10.604 -0.0500 -0.1321  0.2900
19855W        W36329   6.117  11.088  12.763  0.2626 -0.1184 -0.1819
19856W        W36330   6.895   2.435  12.766 -0.2581  0.1176  0.1624
19857W        W36331  17.192  15.677   1.674  0.0337  0.0194  0.0488
19858W        W36332  18.831  13.449  13.975  0.3137  0.0912 -0.4393
19859W        W36333   8.717   9.050  10.112  0.0339  0.2415  0.0814
19860W        W36334   9.726   5.299  14.300 -0.1944 -0.2381 -0.0833
19861W        W36335  16.097   3.960   5.404  0.0362 -0.2411 -0.1688
19862W        W36336   5.622  18.589   2.282 -0.3826 -0.1714  0.0996
19863W        W36337  17.519  14.625   5.953 -0.1536  0.1278 -0.1745
19864W        W36338   2.684   1.778  10.488  0.1865  0.2243  0.3329
19865W        W36339  12.420  11.184   3.163 -0.2291 -0.1817  0.0515
19866W        W36340   7.569  14.110   3.896  0.0553 -0.1519 -0.1567
19867W        W36341   4.479   2.069  13.056  0.0433 -0.0791  0.3427
19868W        W36342  14.753  18.665   1.172 -0.4103  0.0316  0.1251
19869W        W36343  13.717   8.968  10.504 -0.1374 -0.4371 -0.0949
19870W        W36344   0.226   4.741  12.139  0.1416  0.0393 -0.0334
19871W        W36345  18.499   1.724  14.366 -0.0153  0.2787 -0.0985
19872W        W36346  12.048   0.765   0.562 -0.1009  0.0587 -0.2154
19873W        W36347   5.680  11.676  11.348 -0.1984 -0.1234 -0.1395
19874W        W36348   5.505   8.689  13.373 -0.0507  0.1128 -0.1629
19875W        W36349   7.720  13.434  11.757  0.1674 -0.0306 -0.1533
19876W        W36350  14.702   8.241  11.766  0.0077  0.0767  0.3020
19877W        W36351  11.889   2.192  13.778 -0.0021  0.0110  0.0911
19878W        W36352  18.720   0.300  13.551 -0.1785 -0.0334  0.0189
19879W        W36353   4.731   6.351   1.878 -0.3884  0.0717 -0.1179
19880W        W36354   2.314   4.189   8.795  0.3557  0.1647  0.0449
19881W        W36355   7.687   9.663  12.838  0.1749  0.1183 -0.1314
19882W        W36356  16.760  13.054   1.582  0.0066  0.1391  0.2593
19883W        W36357  12.848   9.094  12.079  0.0187  0.0918  0.4260
19884W        W36358   0.081   6.486   4.783  0.4431  0.1817  0.0891
19885W        W36359   4.523  18.151  11.096  0.1368  0.1588 -0.0647
19886W        W36360   8.636   6.858   0.634  0.0780  0.1506 -0.0898
19887W        W36361   4.354   5.479  13.770 -0.1701  0.1890  0.1063
19888W        W36362  15.054   0.791   2.667  0.1909 -0.1038  0.0232
19889W        W36363  16.895   9.982   1.703  0.4924 -0.1573  0.0092
19890W        W36364  15.877  13.746  14.131  0.0199 -0.1283  0.0802
19891W        W36365  17.283   4.363  12.750  0.1636  0.4686  0.2178
19892W        W36366  13.503   7.464   1.728  0.1134 -0.1473  0.2692
19893W        W36367  19.475   7.098  10.366  0.2147  0.2137 -0.3187
19894W        W36368   0.768  15.472   3.347  0.2517  0.2831  0.3876
19895W        W36369   8.624  11.106  13.130  0.5322  0.1352  0.1751
19896W        W36370  18.197   8.006   4.767 -0.1326  0.2054 -0.4047
19897W        W36371   5.305   6.303   0.623  0.4763  0.3012  0.0243
19898W        W36372  19.413  16.591   1.562  0.1871 -0.1402  0.2063
19899W        W36373   7.506  19.441  12.597  0.0148 -0.0626  0.3466
19900W        W36374   8.162   2.576   4.644 -0.2503 -0.1340  0.0578
19901W        W36375   2.313   3.937   0.375 -0.1621  0.0769 -0.0929
19902W        W36376  12.809  12.121   1.052  0.2156  0.3707 -0.0699
19903W        W36377  11.884   2.609   4.107 -0.0695 -0.0064 -0.0254
19904W        W36378  11.191  13.610   0.634 -0.0691 -0.2537  0.0589
19905W        W36379   3.648  10.697  12.350 -0.0053 -0.1338 -0.0715
19906W        W36380   0.333  14.319   2.031  0.0150 -0.2630  0.0458
19907W        W36381   7.481  12.733  12.735 -0.0269 -0.3260 -0.2934
19908W        W36382   4.664   0.009   0.271  0.0357 -0.1171  0.1873
19909W        W36383  17.641  12.851   3.538  0.4850  0.2207  0.0192
19910W        W36384   2.701  18.447   1.196 -0.3773  0.1178  0.2667
19911W        W36385  16.483  11.054  10.823 -0.1995 -0.0954 -0.1092
19912W        W36386  16.155  10.812  13.730 -0.1296 -0.0170  0.2190
19913W        W36387   3.465   7.512  13.232  0.0306 -0.1867  0.3051
19914W        W36388   4.943   8.130   5.096  0.1114 -0.1606 -0.0436
19915W        W36389  14.012   3.444   4.324  0.2558 -0.0387 -0.0591
19916W        W36390   7.714   6.658   3.458 -0.3603 -0.3835  0.1267
19917W        W36391  18.958  10.643  14.633 -0.3622  0.0886 -0.2805
19918W        W36392  14.493  11.308   4.506  0.0400  0.2743  0.0008
19919W        W36393  14.226   3.293   8.986  0.0898  0.0523  0.1698
19920W        W36394   8.437  10.783   3.696 -0.3134 -0.1907 -0.1372
19921W        W36395  16.448  16.871  11.543 -0.0951 -0.0455 -0.0492
19922W        W36396   9.750   4.323  13.041  0.0286  0.1969 -0.1360
19923W        W36397  13.760   6.836  10.876 -0.2773 -0.2047 -0.1213
19924W        W36398   8.899   6.920   0.164 -0.1620 -0.0288 -0.1531
19925W        W36399   7.738  10.998  10.854 -0.5321  0.0680  0.2363
19926W        W36400   3.602  17.121   3.129 -0.1244  0.1533 -0.0164
19927W        W36401   9.755  15.205   3.354 -0.3220 -0.3136 -0.1682
19928W        W36402  12.499   1.309   9.686  0.1237  0.1754 -0.1189
19929W        W36403   0.924   8.940  13.135  0.2300 -0.2341  0.0381
19930W        W36404   4.895   7.010  13.093  0.0854  0.1647  0.2379
19931W        W36405  16.260  14.088   1.462  0.2410  0.1417  0.1218
19932W        W36406   6.413   3.281  12.428  0.2183 -0.3811 -0.0212
19933W        W36407  18.326   6.007   0.577  0.3555 -0.2387 -0.1404
19934W        W36408   8.649  12.394  13.410 -0.0161 -0.1785 -0.0673
19935W        W36409  15.084   9.347   2.034  0.2964 -0.2595  0.1296
19936W        W36410   5.184  13.000   1.252  0.1063  0.0246  0.0439
19937W        W36411   2.365  11.760   0.287  0.1075 -0.2430 -0.1265
19938W        W36412  10.201  12.969   3.034 -0.1850 -0.2511  0.3270
19939W        W36413   8.963   1.915   1.701  0.1750 -0.0553 -0.0050
19940W        W36414  15.810  13.930  10.566 -0.2231 -0.0359 -0.4462
19941W        W36415  11.387   5.018   1.045 -0.3667  0.1933 -0.1395
19942W        W36416   8.136   7.272  12.201  0.2618 -0.1472  0.1577
19943W        W36417   7.474   5.772  11.348  0.2043 -0.2405 -0.1465
19944W        W36418  13.065  14.685   0.489 -0.1395 -0.0512 -0.1421
19945W        W36419  13.726  16.831   1.043  0.0337  0.1784 -0.1331
19946W        W36420  16.454  12.279   3.802  0.3145  0.1586  0.3106
19947W        W36421   4.925  10.248  11.478 -0.1379  0.2375 -0.4723
19948W        W36422  16.604   6.420  11.492  0.4185  0.1277  0.1308
19949W        W36423   7.229  17.185   4.794 -0.3142  0.1700 -0.1367
19950W        W36424  15.964  10.007   3.641  0.1079  0.0232  0.0736
19951W        W36425   7.023   0.310   2.302 -0.1408 -0.0946  0.2588
19952W        W36426   4.088   5.718  14.270  0.2295 -0.0988  0.0398
19953W        W36427   1.628  14.612  10.592 -0.1181 -0.0916  0.1145
19954W        W36428  14.381   2.582   3.987  0.1628  0.2666 -0.0841
19955W        W36429  12.091  18.457  12.420 -0.2417 -0.2008  0.0000
19956W        W36430   8.089   4.617  12.686 -0.0178 -0.0642 -0.0167
19957W        W36431   6.610   7.426   2.042 -0.0643 -0.3165 -0.0777
19958W        W36432  16.188   7.272  11.325  0.1234 -0.0599 -0.5814
19959W        W36433  15.495  18.298  11.101 -0.0478  0.2392  0.1200
19960W        W36434   6.487  10.167   0.093 -0.1764 -0.0905  0.2534
19961W        W36435  14.351  19.014   1.051  0.0641 -0.0751  0.0180
19962W        W36436  18.628   6.162  12.107 -0.0517 -0.4103  0.2124
19963W        W36437  14.505  16.149   5.697  0.2638 -0.0066  0.0156
19964W        W36438  16.559  15.217   3.743  0.1668 -0.1323  0.1105
19965W        W36439   9.714  19.375   3.256  0.5343 -0.0804 -0.3269
19966W        W36440   3.173   6.672  14.072  0.2041 -0.3823  0.0036
19967W        W36441  16.956  17.068  12.140  0.0308  0.1192  0.2655
19968W        W36442   0.549   7.975   4.548 -0.2518 -0.1749 -0.0414
19969W        W36443  19.507  16.247   1.192 -0.0841 -0.1823 -0.1929
19970W        W36444   3.215  12.031  12.933  0.0660 -0.0141  0.1462
19971W        W36445   4.562  12.910   3.881 -0.3360  0.3115 -0.1453
19972W        W36446  10.061   9.901  10.800  0.1415  0.0257 -0.3899
19973W        W36447   4.558  15.454  12.994 -0.2025  0.1554 -0.2004
19974W        W36448   1.537  18.332  13.878  0.1450  0.0568 -0.0994
19975W        W36449  11.472   4.619   3.296 -0.1593  0.0130 -0.0023
19976W        W36450  19.337  10.228   4.413  0.0211 -0.1320 -0.2103
19977W        W36451  15.576  19.506   2.425 -0.0896 -0.3592 -0.1316
19978W        W36452   4.419  12.225  10.998  0.3555 -0.2387  0.2682
19979W        W36453   1.369  19.577   4.981 -0.4370  0.0041 -0.2767
19980W        W36454   0.780  15.832   0.320  0.0406 -0.0633 -0.2542
19981W        W36455   5.442  13.192  11.775  0.2472 -0.0974 -0.1373
19982W        W36456  18.459   6.419   0.240 -0.4693 -0.0307  0.1532
19983W        W36457  12.918   8.102   1.967  0.1437 -0.1536  0.1706
19984W        W36458   6.959  12.811   3.604  0.2204  0.0985 -0.1533
19985W        W36459   6.918   6.388   0.054  0.0714 -0.2710  0.0159
19986W        W36460  18.748   7.707   0.049  0.2824 -0.0433 -0.0439
19987W        W36461   5.716  11.279  12.372 -0.2874  0.0141  0.1820
19988W        W36462   4.854   2.553  14.289 -0.1382 -0.0821 -0.1310
19989W        W36463  16.937   5.398   0.702  0.0685 -0.3083  0.0211
19990W        W36464   7.798  11.142  12.249 -0.1141 -0.2392 -0.0802
19991W        W36465   9.280   7.946   2.450  0.1992  0.1280  0.1548
19992W        W36466  14.168   4.188  13.917 -0.2413 -0.3608 -0.0084
19993W        W36467   6.273  11.452  10.615  0.0877 -0.2528 -0.2524
19994W        W36468  10.052   0.415  11.368 -0.3551  0.1286  0.1070
19995W        W36469   2.254   0.672  12.623  0.1229  0.0265 -0.2342
19996W        W36470  10.227   0.773   1.345 -0.0349  0.2666  0.0052
19997W        W36471  17.344   6.472   1.867  0.3626  0.0532  0.0546
19998W        W36472  10.076   2.534   4.722 -0.1684 -0.1160  0.2543
19999W        W36473   5.922   3.800   0.615  0.2074  0.1099 -0.1194
20000W        W36474   8.481   2.234   4.521  0.0934 -0.0315 -0.1144
20001W        W36475  15.401  17.061   4.374 -0.1287 -0.0750 -0.1273
20002W        W36476  14.724  15.277   2.060 -0.0650  0.2028  0.0919
20003W        W36477   6.587  15.263   2.053  0.3135 -0.2590  0.1071
20004W        W36478   4.409   0.738  13.885  0.2741 -0.0219 -0.4436
20005W        W36479   4.341   1.105   0.401  0.0303 -0.4189 -0.0150
20006W        W36480  14.184  10.293  12.648  0.1078  0.1121 -0.0374
20007W        W36481  13.591   9.849   1.337  0.2719  0.0510  0.1975
20008W        W36482   1.983   8.150   4.492  0.1064  0.2301  0.0724
20009W        W36483  13.697   7.673   5.783  0.1013 -0.2515 -0.1007
20010W        W36484   7.752  18.861  10.624 -0.1215  0.0691  0.2089
20011W        W36485   9.291  16.284   4.560 -0.2036 -0.3045 -0.6149
20012W        W36486   9.423  12.899  11.511 -0.0529  0.1221  0.4426
20013W        W36487  16.928   8.088   4.044  0.2238  0.2991  0.1709
20014W        W36488   7.734  18.913   3.721 -0.2750 -0.3836 -0.1501
20015W        W36489  16.406  10.498   2.484 -0.2086 -0.2164 -0.3404
20016W        W36490   9.143   9.108   1.794 -0.1732  0.0806 -0.0245
20017W        W36491  14.772   1.926  12.877 -0.0773 -0.0953  0.2863
20018W        W36492   1.397  11.422   0.793 -0.2365 -0.0752  0.2868
20019W        W36493   6.954   6.373  10.287  0.0900  0.1916 -0.1427
20020W        W36494   4.190   6.672  12.564 -0.0979  0.3344 -0.0635
20021W        W36495   1.238   1.458   1.757 -0.1627  0.1018  0.0692
20022W        W36496   7.122   6.904   9.142 -0.1331 -0.0841 -0.0610
20023W        W36497   1.228   1.338   0.418  0.2694 -0.0049  0.2155
20024W        W36498  10.275  17.836   1.403 -0.0053 -0.0029  0.2028
20025W        W36499  19.470   6.971  12.930 -0.2323  0.2187  0.1055
20026W        W36500   2.682  10.204   2.997  0.3453  0.2455 -0.2224
20027W        W36501   8.282   5.021  11.872  0.2101  0.0072  0.2645
20028W        W36502  12.149  12.866  12.857  0.0891 -0.0167 -0.2583
20029W        W36503   2.036  19.379  13.406 -0.0362  0.0697 -0.0812
20030W        W36504  13.321   6.050   0.605 -0.0978 -0.1888 -0.3107
20031W        W36505   3.434  15.348  12.382 -0.2461 -0.2627 -0.1754
20032W        W36506  10.971  10.187  11.704 -0.0779  0.0585 -0.0686
20033W        W36507   7.670   3.102  13.285 -0.1552 -0.3109  0.1050
20034W        W36508  11.839   5.826  14.449 -0.2086 -0.3014 -0.5459
20035W        W36509  17.278   8.681   2.609 -0.1107 -0.0723 -0.0157
20036W        W36510  19.026  13.807  13.691 -0.0110  0.0657  0.3182
20037W        W36511  13.763   6.081  12.630  0.4534 -0.0599 -0.0587
20038W        W36512   5.134   0.173  13.700  0.0535  0.0018 -0.2219
20039W        W36513  10.378   8.956   2.114  0.0200 -0.0993  0.0235
20040W        W36514  12.502   0.462  13.912  0.2203 -0.0235  0.0382
20041W        W36515   4.224  11.698   3.213  0.2525 -0.2253 -0.0792
20042W        W36516  18.256  14.707  14.286  0.1827  0.0977 -0.0654
20043W        W36517  13.481  18.162   3.670  0.0480 -0.0504  0.2106
20044W        W36518  14.238  12.528   3.875 -0.0187 -0.3568  0.1583
20045W        W36519  18.951   0.698  13.822  0.0081 -0.4963 -0.1702
20046W        W36520   4.721   7.617  11.450  0.0543 -0.1304 -0.0991
20047W        W36521  12.182  16.872   3.579 -0.1875  0.1566  0.0996
20048W        W36522  17.606   3.737   1.226 -0.1234  0.1473  0.2908
20049W        W36523  14.685  19.577   4.730  0.0597  0.1338  0.1271
20050W        W36524   3.955  10.801   4.195  0.1493 -0.3135 -0.2032
20051W        W36525   9.255  11.014  14.521 -0.1500 -0.1076  0.4020
20052W        W36526   0.522   6.652   4.643  0.1649 -0.1365 -0.0859
20053W        W36527   5.529   7.593   3.931 -0.3597 -0.0196  0.0254
20054W        W36528  15.705  10.755   4.090  0.2194 -0.3755  0.0011
20055W        W36529   0.939   2.448   4.562 -0.0097  0.0470  0.1062
20056W        W36530  15.159  10.818   3.434  0.2332 -0.0551 -0.0206
20057W        W36531  13.237   8.625   3.388  0.2026  0.2765 -0.0743
20058W        W36532   2.398  13.159   3.101  0.1865  0.3102  0.0403
20059W        W36533   7.238  12.248   3.064 -0.1598 -0.1870 -0.0412
20060W        W36534  18.043  15.897   0.141  0.0931 -0.3059 -0.1979
20061W        W36535   3.903   2.062   5.194 -0.0109  0.0521  0.0528
20062W        W36536  12.909   2.932   0.994 -0.1041 -0.2216  0.1643
20063W        W36537  18.395   9.684   1.518 -0.1727 -0.1770 -0.2504
20064W        W36538   1.900  15.619   1.404  0.0180 -0.0097 -0.3653
20065W        W36539  15.869   0.234   4.561 -0.0971  0.2364 -0.1767
20066W        W36540   4.458   9.117   3.513 -0.1533  0.1033 -0.4539
20067W        W36541  19.160   9.873   3.884  0.0841 -0.0501 -0.3320
20068W        W36542  15.629   6.789   5.494  0.1144  0.1263 -0.1354
20069W        W36543   5.022   8.803   3.858  0.0001 -0.0261  0.0476
20070W        W36544  12.021   6.737   1.850  0.2341 -0.1019  0.0740
20071W        W36545  10.143  15.244  11.625 -0.0639 -0.2613 -0.0041
20072W        W36546   8.962  17.089   1.961 -0.2552  0.1835 -0.0786
20073W        W36547   2.767  16.703   5.466  0.1759 -0.2683 -0.0891
20074W        W36548  10.886  16.848   1.250  0.0042  0.2504  0.1041
20075W        W36549   9.892   7.429  14.078 -0.1734  0.1290  0.1922
20076W        W36550   4.800   5.080  10.430 -0.2631 -0.2558  0.3214
20077W        W36551   2.486   8.540   0.087 -0.5673 -0.0305  0.0902
20078W        W36552   4.669  19.462  13.332 -0.2021  0.0520 -0.1677
20079W        W36553   7.598   1.546   5.349  0.0477  0.0777 -0.0596
20080W        W36554   6.393   6.435  14.513  0.0979 -0.2529  0.1338
20081W        W36555   2.407  15.939   2.729 -0.2857 -0.0906 -0.0442
20082W        W36556   2.218  11.174   1.174  0.1310 -0.0128 -0.1321
20083W        W36557   7.439   3.412  12.530 -0.0235 -0.2305 -0.0643
20084W        W36558  12.783  13.391   4.268 -0.1125 -0.2554  0.3063
20085W        W36559   2.081  14.904  12.183 -0.1540  0.3872  0.4976
20086W        W36560  17.251   4.263   2.164 -0.4684  0.2481  0.1093
20087W        W36561   4.969   7.841   9.942 -0.2238 -0.0402  0.3166
20088W        W36562   2.504   3.906  10.286 -0.2611 -0.1266  0.5555
20089W        W36563   5.538  17.039   0.100 -0.0811  0.1304 -0.1419
20090W        W36564  14.693   5.905  13.956  0.1969  0.0190 -0.1442
20091W        W36565  19.191   5.457   2.676  0.2366 -0.3636 -0.0553
20092W        W36566  13.832   6.893   2.192 -0.1232  0.6572 -0.3719
20093W        W36567  11.227   7.708   2.651  0.1791  0.0403 -0.1359
20094W        W36568  17.388  13.421   3.624 -0.1224 -0.1199 -0.1193
20095W        W36569   6.245   3.519  11.253 -0.2093 -0.2838 -0.3434
20096W        W36570  11.492  14.505   4.978 -0.0054 -0.0588  0.2091
20097W        W36571  16.209  11.530   0.049 -0.4558 -0.0756  0.2042
20098W        W36572   6.966  17.939   4.596 -0.0665  0.3316 -0.2038
20099W        W36573  11.144  17.747  12.534 -0.3461  0.1940  0.0445
20100W        W36574   2.820  15.330   5.567 -0.3517  0.3688  0.1036
20101W        W36575  19.028  18.430   4.715  0.0657 -0.1776 -0.2252
20102W        W36576  16.143  12.855   0.221  0.1204  0.0536 -0.2095
20103W        W36577   0.059   1.214   2.589 -0.1759 -0.1374 -0.0652
20104W        W36578   1.708  15.023   2.339  0.2287 -0.1788 -0.2131
20105W        W36579   0.251   9.918   3.124  0.3054 -0.1020 -0.2253
20106W        W36580  12.012  15.531   3.002 -0.2863  0.1131  0.2485
20107W        W36581   4.709  16.914  11.804 -0.0359  0.3723 -0.0113
20108W        W36582  10.299  17.070   2.046 -0.1451  0.0059 -0.2304
20109W        W36583   3.081   5.922   3.852 -0.2384  0.1278 -0.2417
20110W        W36584   2.595  18.081   2.120  0.0776  0.1015 -0.2895
20111W        W36585   3.063  10.867   1.710 -0.2402 -0.0294  0.0271
20112W        W36586  16.141   0.557   1.854 -0.0278 -0.2486  0.2451
20113W        W36587   4.635  10.519   9.686  0.1218 -0.1506 -0.2533
20114W        W36588  17.855  12.405   1.441  0.0265 -0.0725  0.0229
20115W        W36589   4.042   2.396  11.844 -0.0869 -0.0413  0.1340
20116W        W36590  10.023  17.725   5.299  0.1697 -0.3378  0.2811
20117W        W36591   0.838   4.873   2.657 -0.0100  0.0426 -0.0243
20118W        W36592  17.186  10.808  11.849 -0.3482  0.0574 -0.2592
20119W        W36593  14.876  13.671  11.074 -0.1023 -0.1374  0.2801
20120W        W36594  12.020   5.393  14.609  0.1644  0.0660 -0.1738
20121W        W36595  15.034   6.812   2.873  0.0947 -0.1570 -0.0051
20122W        W36596   9.619   4.591   0.328 -0.4287 -0.0915  0.1595
20123W        W36597  19.564  17.806   4.499  0.0945  0.0622 -0.5018
20124W        W36598  17.651   0.824   3.242  0.1054 -0.1112  0.1279
20125W        W36599   2.616   0.452  12.986  0.1359 -0.1455 -0.0302
20126W        W36600  11.335   1.018  13.763  0.2539  0.0794  0.1347
20127W        W36601   5.587   1.191   1.046 -0.0386  0.1773  0.1522
20128W        W36602   7.846  10.957  11.368  0.2233 -0.2162  0.1122
20129W        W36603  17.395  12.559   1.106 -0.3480 -0.2093 -0.1912
20130W        W36604  17.296  18.775   3.528  0.2572  0.1000 -0.0290
20131W        W36605  15.256  11.968   4.209 -0.0853 -0.2429 -0.2571
20132W        W36606  13.428   3.447   3.310  0.3257  0.1144  0.0617
20133W        W36607  16.111   5.052   2.010  0.0067 -0.0854  0.0045
20134W        W36608   7.009  16.571   1.725 -0.0913  0.2467  0.1114
20135W        W36609   8.667  11.455   1.291 -0.1124  0.1837  0.0566
20136W        W36610   7.696   8.971  13.101  0.0110  0.2044  0.1787
20137W        W36611  13.711   6.690   1.158 -0.1029 -0.2975 -0.0785
20138W        W36612  13.510  11.186  14.449  0.2017 -0.0653  0.1584
20139W        W36613   3.833   1.634  11.230 -0.4129 -0.1134 -0.0053
20140W        W36614  13.046   2.593   0.561 -0.0929  0.1318  0.2156
20141W        W36615   7.274   2.037   3.731  0.0807 -0.2351 -0.1225
20142W        W36616   8.432   6.499   3.365 -0.0826  0.2702  0.0966
20143W        W36617   5.183  18.616   3.688 -0.2701  0.2037  0.2371
20144W        W36618   9.458  13.841   1.623  0.1298  0.1628  0.1385
20145W        W36619   3.997  15.124   2.147 -0.0345  0.2824 -0.0932
20146W        W36620  16.223   8.415   3.416 -0.1080 -0.2327 -0.2586
20147W        W36621   8.215   1.338   0.200  0.3064 -0.1951  0.1093
20148W        W36622  11.712   7.918  10.739 -0.0602  0.2185 -0.1295
20149W        W36623  16.273   4.614   2.749  0.0096  0.2445  0.1150
20150W        W36624  12.636   1.647   1.589 -0.0263 -0.1673  0.1721
20151W        W36625   2.205   6.156   2.798 -0.1258  0.1010 -0.3210
20152W        W36626   4.609   2.284   9.614 -0.0009  0.3340  0.0597
20153W        W36627   5.943   3.526  13.769 -0.0527  0.1782  0.1629
20154W        W36628  16.479  18.220  11.352  0.0975 -0.1902 -0.2394
20155W        W36629   1.951  16.207  10.217  0.1723  0.3809 -0.2496
20156W        W36630  18.660  16.389   3.954  0.1283  0.2282  0.3516
20157W        W36631  17.796   2.661   0.052  0.2076  0.0483 -0.1895
20158W        W36632  13.033  14.200  11.092  0.0228  0.3786  0.0777
20159W        W36633  10.497   7.381   2.119 -0.2859  0.6046 -0.1920
20160W        W36634   1.335   8.233   1.022 -0.1880  0.0690 -0.0715
20161W        W36635   1.395  16.718   2.939  0.0021 -0.1836  0.1480
20162W        W36636  10.113  16.764  14.180  0.0384  0.0368 -0.0402
20163W        W36637   0.961   3.241   3.018 -0.3480  0.2147  0.0838
20164W        W36638  12.079   8.994  12.326 -0.0043 -0.1509  0.2720
20165W        W36639   0.927   5.486   3.398  0.0157  0.0463 -0.0504
20166W        W36640   8.181  10.263  14.339  0.0574 -0.3712  0.1671
20167W        W36641  18.113  11.300   0.910  0.2379 -0.0691 -0.4157
20168W        W36642  16.949  14.417  10.626 -0.0061  0.1408 -0.1683
20169W        W36643  17.871   9.607  14.076 -0.1964 -0.1114  0.0096
20170W        W36644   3.052   2.644   3.376  0.3622 -0.1129  0.0671
20171W        W36645   3.942  11.922   0.659 -0.1660 -0.1926  0.2849
20172W        W36646   1.534  12.654  12.878  0.2699 -0.0109  0.1433
20173W        W36647  19.553  13.248   4.136  0.0963  0.0113  0.3215
20174W        W36648  10.484   6.363  11.028  0.2841 -0.2936  0.1037
20175W        W36649  14.411   9.967  14.436 -0.0102  0.4075  0.1159
20176W        W36650  10.260  15.992   2.744  0.2334  0.1545  0.2114
20177W        W36651   9.025  12.574  11.403  0.1164  0.2728 -0.0683
20178W        W36652  18.749   3.069  11.558  0.4426 -0.1263  0.1018
20179W        W36653   2.944   0.829  11.393  0.2952  0.1951 -0.0763
20180W        W36654   7.085   2.035  14.257 -0.3338 -0.2213 -0.0766
20181W        W36655   3.485  17.089   1.430  0.0586 -0.0582 -0.1036
20182W        W36656  13.810  12.206  11.228 -0.0968 -0.1202 -0.0269
20183W        W36657  13.367   0.279   3.408  0.0550 -0.1218  0.0070
20184W        W36658   4.342  12.088   5.339 -0.4016 -0.1898 -0.0716
20185W        W36659   8.187   3.378   4.150  0.0804 -0.0914 -0.0193
20186W        W36660  14.299  17.218  14.626  0.3170 -0.0765  0.0356
20187W        W36661   3.480   8.755   1.564  0.0279 -0.0153  0.4033
20188W        W36662  13.355   8.911  13.587  0.0980  0.2101 -0.0214
20189W        W36663   9.195   8.815   0.087  0.3856 -0.1605 -0.1591
20190W        W36664  12.591   6.949  11.402 -0.0938 -0.0340 -0.1659
20191W        W36665  19.568  12.455  12.187 -0.0767  0.0885  0.1935
20192W        W36666  16.076  17.458   3.769 -0.0154 -0.4878  0.0776
20193W        W36667   7.269   9.831   4.902  0.0985 -0.1552  0.0925
20194W        W36668   1.396  13.801  13.858 -0.0371 -0.1860 -0.1298
20195W        W36669   6.744  19.616  11.275 -0.1156 -0.3417 -0.2072
20196W        W36670  18.493  16.782   1.714 -0.1510  0.0457 -0.0010
20197W        W36671  19.357  17.021   2.995  0.0038 -0.2158 -0.2350
20198W        W36672   8.248   2.778   0.008  0.3461 -0.1212 -0.2390
20199W        W36673  12.925  12.157  13.715  0.0837  0.0111 -0.3538
20200W        W36674   1.166   9.303   3.474 -0.0526 -0.0426 -0.0174
20201W        W36675   6.553  14.401  13.937  0.2335 -0.2296  0.1334
20202W        W36676   0.552  16.145  10.580 -0.1381 -0.2698 -0.0688
20203W        W36677   3.387   2.741   1.792 -0.0730 -0.0290 -0.2491
20204W        W36678   7.442  10.306  13.281 -0.0719  0.1786  0.3201
20205W        W36679   3.985   7.516   4.733  0.0224  0.0121  0.1223
20206W        W36680   6.130   0.454   0.325  0.0433  0.2108  0.1921
20207W        W36681  10.019   6.628  13.205 -0.1043 -0.0620 -0.2596
20208W        W36682   6.868  11.439   2.440  0.0896 -0.0830 -0.0277
20209W        W36683   7.240  12.230   0.799  0.4837 -0.0754  0.2560
20210W        W36684   1.158  11.043  14.093 -0.3227 -0.3472  0.1149
20211W        W36685   8.298   4.307   2.392 -0.0671  0.0861  0.2806
20212W        W36686  16.261  17.407  11.432  0.0896 -0.1110 -0.0872
20213W        W36687  17.629   6.798   2.474 -0.2001  0.3851 -0.2703
20214W        W36688   5.903  17.570  14.349  0.0919  0.0831  0.1126
20215W        W36689  17.961  13.864  11.790 -0.5245 -0.0423 -0.1559
20216W        W36690   6.712   8.175  13.091 -0.1085  0.1839  0.0190
20217W        W36691   4.234   2.351  10.851 -0.0195 -0.1169  0.3171
20218W        W36692   7.695   6.620   0.514  0.1040  0.3196 -0.0702
20219W        W36693  11.019  16.492   4.472  0.0941  0.1752  0.2596
20220W        W36694  16.751   9.138   4.518 -0.1852  0.0719 -0.1902
20221W        W36695   6.578  11.554   1.600 -0.2015  0.0708  0.0211
20222W        W36696   2.549   3.421   2.013  0.5125  0.0173  0.0266
20223W        W36697   0.228  16.226  14.224  0.2379  0.1790  0.1482
20224W        W36698  13.535  17.682  10.936  0.3224  0.1838  0.3405
20225W        W36699   4.991  17.614  10.228  0.0168 -0.0709  0.0919
20226W        W36700   2.377   8.288   5.437 -0.1775 -0.1443 -0.2151
20227W        W36701  11.779  14.581  10.265  0.0580 -0.0314 -0.0161
20228W        W36702   0.640  10.872   0.669 -0.0378  0.0083 -0.1776
20229W        W36703   4.874  17.364   1.225 -0.3424 -0.0715 -0.0488
20230W        W36704   3.860  14.715   1.883 -0.3380  0.0677 -0.2248
20231W        W36705  12.898   1.176   5.483  0.0444  0.0412 -0.2797
20232W        W36706  10.108   1.982  10.352 -0.2354 -0.1240 -0.2383
20233W        W36707  15.459   7.080   0.514 -0.2261  0.3481 -0.3668
20234W        W36708  15.164   0.255  12.219  0.0117  0.1501  0.0933
20235W        W36709   0.960   9.142  11.386  0.6303 -0.0080 -0.2610
20236W        W36710  16.718   5.145   1.523 -0.5486  0.1958 -0.0475
20237W        W36711   1.684  11.893   2.798 -0.1676 -0.2165  0.0749
20238W        W36712  18.484   0.268   0.289  0.1643 -0.1833 -0.0472
20239W        W36713   5.251  13.185  10.633  0.0427  0.1843 -0.0191
20240W        W36714  10.188  17.264   4.965 -0.0583  0.2510 -0.1744
20241W        W36715   2.299  17.609  14.038 -0.0783  0.0101 -0.1980
20242W        W36716   0.831  10.467   3.135 -0.0823  0.3132 -0.1764
20243W        W36717   2.223  15.097  13.575 -0.2219  0.0272  0.1453
20244W        W36718   8.502  12.765   1.113  0.2664  0.0839 -0.3801
20245W        W36719   7.634   9.967  11.495  0.0459  0.0345  0.0513
20246W        W36720  10.477   1.339   1.366 -0.1768  0.1598  0.2396
20247W        W36721  16.301  10.009  12.974  0.0933 -0.1030  0.0892
20248W        W36722  18.642  16.165  13.657  0.1494  0.1328  0.0381
20249W        W36723   3.358   4.571   4.734  0.2687  0.2190  0.3544
20250W        W36724  15.624  14.380  11.290  0.0300 -0.0545 -0.2482
20251W        W36725   3.904  10.010   0.433  0.1220 -0.0898  0.0847
20252W        W36726   2.105  15.402  12.836  0.1179 -0.0515  0.0227
20253W        W36727  18.628   9.796   2.735  0.1846 -0.2590  0.1724
20254W        W36728  17.927   4.622  12.096  0.0129 -0.4188  0.1779
20255W        W36729  18.842  11.298  10.388  0.1386  0.1873 -0.0085
20256W        W36730  19.437   1.616  11.824 -0.0717  0.1041 -0.1127
20257W        W36731   1.821  18.397  14.356 -0.0377 -0.0446  0.2826
20258W        W36732   3.226  11.967  11.667 -0.0246 -0.2068 -0.1861
20259W        W36733  10.475  17.597   2.952  0.2496  0.1414 -0.0978
20260W        W36734  12.661  11.990   5.264 -0.0048  0.0233 -0.0716
20261W        W36735   5.718  17.964   4.065 -0.1268 -0.1519 -0.0305
20262W        W36736  11.126  11.515  10.126  0.0763  0.0419  0.0338
20263W        W36737   0.027  14.600   1.504  0.3319  0.0548  0.1446
20264W        W36738   8.415   0.035   4.119  0.1834 -0.0350 -0.0173
20265W        W36739  12.916  18.914   4.344 -0.4147 -0.1570 -0.2064
20266W        W36740   3.475   2.394   1.250  0.0278  0.2639 -0.0731
20267W        W36741   7.907  10.455  13.007 -0.0450 -0.2844 -0.1729
20268W        W36742   9.422  12.015   1.749  0.1701 -0.1045  0.1864
20269W        W36743   4.153   1.557  12.581 -0.0972  0.0337  0.2171
20270W        W36744  16.588   3.749  13.619  0.0207  0.0746  0.2182
20271W        W36745  14.289  15.064  13.385  0.0204  0.1576  0.1080
20272W        W36746  18.522   7.342   3.753  0.2045  0.2357  0.2799
20273W        W36747   2.312   9.018   0.027  0.0299 -0.2519 -0.1719
20274W        W36748  19.355   6.804  11.054  0.3842 -0.0542  0.2708
20275W        W36749  16.771  17.933   3.785 -0.0329 -0.1730  0.0481
20276W        W36750  15.239   7.124   3.249 -0.0650 -0.0895 -0.3858
20277W        W36751  18.953  14.995   3.084  0.0878  0.2106 -0.2015
20278W        W36752  18.832   2.766   3.582  0.0222  0.1136 -0.4441
20279W        W36753  18.936  14.618  10.487 -0.1424 -0.1225  0.1594
20280W        W36754  12.415   2.054   2.811  0.2208 -0.3533  0.3068
20281W        W36755  13.542   7.184  14.638  0.0578 -0.1999 -0.1308
20282W        W36756   4.181  15.074  13.144  0.1404 -0.2127 -0.0406
20283W        W36757  17.079   8.815   0.359 -0.2601  0.1730 -0.1905
20284W        W36758  17.280   1.621   9.405  0.1040  0.2956  0.0850
20285W        W36759   7.478  17.875   4.437 -0.4187  0.1389  0.0785
20286W        W36760   2.360  17.561   2.262 -0.0661 -0.0194 -0.3691
20287W        W36761  17.094  17.064  14.166 -0.1731  0.0200  0.2826
20288W        W36762   3.658   2.326   0.364  0.2170  0.6060 -0.1410
20289W        W36763   1.266  13.308  13.395  0.0098  0.2305 -0.3150
20290W        W36764  10.409   3.612  12.038 -0.1253  0.2540  0.0306
20291W        W36765  13.015   5.371  10.604  0.1325  0.2196  0.1376
20292W        W36766   4.207  19.500   2.206 -0.1435 -0.0132 -0.0769
20293W        W36767   5.524   6.736  10.052 -0.0144  0.0994 -0.0191
20294W        W36768   8.335   5.693  10.113  0.0561 -0.5545  0.2566
20295W        W36769  19.065   0.887  11.360  0.0164  0.3283  0.1225
20296W        W36770  15.613   8.270   2.801  0.3454  0.0732 -0.0981
20297W        W36771   0.716   0.356  13.133  0.0248  0.1761  0.1310
20298W        W36772   2.318   7.950  14.584 -0.1207 -0.0599 -0.1249
20299W        W36773  14.378   9.516  12.885 -0.2581 -0.3376  0.4021
20300W        W36774  13.418   2.152  12.981 -0.0514  0.5815  0.1197
20301W        W36775  15.099   8.531  13.625  0.2190  0.1666 -0.1282
20302W        W36776  15.073  18.328   3.641  0.0913  0.2163 -0.1586
20303W        W36777   5.494   1.463  12.404 -0.1713  0.2373  0.0048
20304W        W36778   6.338  16.384  11.338 -0.2471  0.1503 -0.1208
20305W        W36779  10.115  10.746  11.639  0.2522  0.0651 -0.0832
20306W        W36780   8.208  18.170  12.379 -0.1491  0.0001 -0.1195
20307W        W36781  11.983  16.639  13.199  0.0315  0.1512  0.0299
20308W        W36782   6.806   1.324  10.662  0.0061  0.0869  0.0581
20309W        W36783  14.147  14.470  14.544  0.0203 -0.3135  0.1118
20310W        W36784   7.906  14.333   0.591 -0.0904  0.0506 -0.0541
20311W        W36785  18.763   5.678   1.130  0.2024  0.2028  0.2083
20312W        W36786  16.294   4.373  10.128 -0.4007  0.1290 -0.0395
20313W        W36787  16.624   0.027   0.370 -0.2010 -0.0144 -0.4602
20314W        W36788   1.036   5.186   2.974 -0.1913  0.3246  0.0229
20315W        W36789  14.960  19.361   0.549  0.1311  0.2973  0.0511
20316W        W36790  16.598   5.276   2.844 -0.0374  0.0336 -0.0251
20317W        W36791  16.633  15.513  10.992  0.0858 -0.2117  0.1533
20318W        W36792   5.354   3.751  11.319 -0.0231 -0.1027  0.1451
20319W        W36793   8.689   9.871   1.661  0.1445  0.0856 -0.0807
20320W        W36794  14.296   9.283   4.081 -0.0634 -0.0292 -0.1726
20321W        W36795   1.376   4.822   4.543  0.0515 -0.3605 -0.3424
20322W        W36796  12.559  19.311   4.467 -0.1453 -0.0321 -0.4519
20323W        W36797   0.311   6.276   3.019  0.1138 -0.0694 -0.0861
20324W        W36798   4.287   3.926  12.694 -0.1629 -0.0501 -0.0045
20325W        W36799  15.011  11.299   0.908 -0.0758 -0.0045  0.0913
20326W        W36800   9.521   8.472   3.812  0.4733  0.1920 -0.0840
20327W        W36801  13.907   5.720   4.243  0.2197  0.0960 -0.4907
20328W        W36802  11.466  14.036  13.523  0.1892 -0.1129 -0.1096
20329W        W36803   9.212   5.943   5.406 -0.0628  0.1808 -0.0072
20330W        W36804   2.176  11.974  13.408 -0.0585  0.0185  0.0405
20331W        W36805   5.456   1.434   1.475 -0.0390  0.0709 -0.0537
20332W        W36806   8.213  19.168   1.007 -0.3012  0.3070 -0.0401
20333W        W36807  11.833  18.521   0.933  0.1892 -0.3155 -0.1302
20334W        W36808  12.143  16.841   4.736 -0.2729  0.1370  0.0918
20335W        W36809   1.601  19.383  13.884 -0.0076 -0.0813 -0.0469
20336W        W36810   4.778   9.644   0.004 -0.1700 -0.1262  0.0238
20337W        W36811   3.435   6.676   0.887  0.0976  0.1427 -0.3302
20338W        W36812   1.422  10.843  13.102  0.0976  0.1360  0.0274
20339W        W36813   0.125  17.203   3.364 -0.0745 -0.0980 -0.1284
20340W        W36814  10.745   0.828  11.010 -0.3872  0.1299 -0.2172
20341W        W36815   9.770  16.208  11.419  0.1996  0.3069  0.2571
20342W        W36816  18.041   3.159  14.501 -0.1856  0.0147 -0.2151
20343W        W36817   5.256  15.530  10.152 -0.0901 -0.0947 -0.1390
20344W        W36818   3.519  10.294   4.984 -0.0406  0.1034  0.2010
20345W        W36819  10.255   9.854  13.723  0.0723  0.0930 -0.0742
20346W        W36820  11.783  10.723  11.529 -0.0243  0.0222 -0.1365
20347W        W36821  16.234   5.852   0.019  0.1178  0.2935 -0.1682
20348W        W36822  11.751   5.312   0.445  0.1679  0.3744 -0.0299
20349W        W36823   6.039   2.330   3.512  0.1389  0.0161 -0.1245
20350W        W36824  10.808  15.342  12.718 -0.0728 -0.0865  0.1654
20351W        W36825   4.423   4.697   4.161  0.0679 -0.2138  0.1847
20352W        W36826  16.938  11.119   9.990 -0.2125  0.2036 -0.0503
20353W        W36827  10.988   2.744  13.323  0.1408 -0.1719 -0.1433
20354W        W36828   3.470  16.684   0.497 -0.0476 -0.1640  0.1118
20355W        W36829   5.799   0.548  10.288 -0.1910 -0.0109 -0.1222
20356W        W36830  11.169   3.370   0.298 -0.0276 -0.2181  0.2433
20357W        W36831   7.302  12.044   4.287 -0.0338  0.1629  0.0260
20358W        W36832   1.666   9.543   4.230  0.1882  0.1008 -0.2362
20359W        W36833  11.422  11.331   4.695 -0.3834  0.4803  0.2466
20360W        W36834   7.272   8.702   0.386  0.2059 -0.2902  0.1288
20361W        W36835  19.415   7.789   3.367 -0.0224 -0.0197 -0.1435
20362W        W36836   8.256  10.461   2.586 -0.0954  0.0438 -0.0879
20363W        W36837   9.613   3.007  14.593  0.1100  0.3376 -0.3089
20364W        W36838  11.416  15.759   3.951  0.0015 -0.0044  0.3203
20365W        W36839   6.919  12.855   4.075 -0.0397  0.1679 -0.1014
20366W        W36840  18.071   4.787   2.345  0.0313  0.0036  0.0503
20367W        W36841   0.716  13.351   3.966  0.1428 -0.0940  0.0142
20368W        W36842  17.699   4.464   4.813  0.0799 -0.3189 -0.0667
20369W        W36843  15.702  16.717  14.184  0.1648  0.2056  0.2207
20370W        W36844   5.841   1.223  11.128  0.0415  0.0596  0.2452
20371W        W36845   0.934   4.970  13.337 -0.2641 -0.2113 -0.2627
20372W        W36846  12.375   8.921  14.249  0.2475 -0.2600 -0.1015
20373W        W36847   4.214  10.158  12.884 -0.1865  0.3297  0.1939
20374W        W36848  12.215  19.478   2.437  0.0614 -0.2853  0.0216
20375W        W36849  14.594  11.491   3.699 -0.1666  0.0236  0.0900
20376W        W36850   5.804   4.374   1.692 -0.0983  0.1238  0.1518
20377W        W36851   0.244  18.773   4.583 -0.2310 -0.2502  0.0058
20378W        W36852  17.101   7.715  14.225  0.0173  0.0771 -0.0981
20379W        W36853   0.002  10.673   3.365  0.4304 -0.2038  0.1041
20380W        W36854   9.515   3.171  13.902  0.4231  0.2866  0.1414
20381W        W36855  17.511   6.073  13.467 -0.1662 -0.0918 -0.2844
20382W        W36856  12.279   1.778   3.994  0.3496 -0.0532  0.3154
20383W        W36857   2.899  14.865  11.735 -0.1225  0.4423 -0.0058
20384W        W36858  16.126  16.791  14.537 -0.1123 -0.1532 -0.1622
20385W        W36859   0.928  12.443   3.223 -0.1367 -0.3205  0.1227
20386W        W36860  13.719   8.490   3.604  0.2719  0.0216  0.2669
20387W        W36861  16.013   7.995   1.983  0.0069  0.1330 -0.0217
20388W        W36862  13.480   0.362  10.693 -0.3409  0.2592  0.1470
20389W        W36863   6.712   9.401   5.754 -0.2736 -0.1141 -0.2265
20390W        W36864   0.728  13.021   1.353 -0.0459  0.1668 -0.0494
20391W        W36865  14.877  18.198   0.862 -0.0175 -0.1944 -0.1197
20392W        W36866   1.233  10.742   4.897  0.1064  0.0486  0.0314
20393W        W36867  16.231   4.513  10.639 -0.1068  0.0776 -0.0749
20394W        W36868   8.109  12.714  12.243  0.0572 -0.2389 -0.2255
20395W        W36869   6.598   1.289   3.824 -0.1260  0.0598  0.0766
20396W        W36870   0.046   4.513  13.036  0.0999  0.1446 -0.2385
20397W        W36871   5.158   8.243  10.270 -0.0194 -0.1432 -0.1582
20398W        W36872   3.638   1.656  12.544 -0.0438 -0.2819  0.1150
20399W        W36873  17.893   3.322  10.581  0.3781 -0.0722 -0.1899
20400W        W36874   7.935   4.823  14.583  0.0512 -0.0428  0.0130
20401W        W36875   3.818  15.548   1.512 -0.0314  0.1812  0.1173
20402W        W36876   0.499   6.892  12.338 -0.1084  0.2989 -0.0100
20403W        W36877   3.767   2.608  10.930  0.1318 -0.0100 -0.0421
20404W        W36878   7.203  17.141   0.667 -0.2488  0.2267  0.3398
20405W        W36879   8.401  19.619  13.661 -0.0526 -0.1134  0.3642
20406W        W36880   4.179   5.898   2.223  0.1666  0.1450  0.2240
20407W        W36881   2.795   8.309   3.527  0.0487 -0.0019  0.4084
20408W        W36882   2.223  19.330  14.419 -0.2327 -0.2976 -0.2988
20409W        W36883  17.549  19.339   2.759 -0.4330  0.1169  0.0159
20410W        W36884   2.012  16.490   1.003 -0.3469  0.0107  0.3135
20411W        W36885   2.244   8.059  13.259 -0.2535 -0.2011  0.0052
20412W        W36886   1.852  11.485   3.046 -0.3407 -0.0040  0.2323
20413W        W36887   1.391  11.974   3.694 -0.2831  0.0777  0.0349
20414W        W36888  10.207  11.520  12.072 -0.0577  0.2111 -0.0502
20415W        W36889  13.320   0.891   2.865 -0.2259 -0.3129 -0.1840
20416W        W36890   9.768   0.709   2.486  0.0209 -0.1888  0.0684
20417W        W36891  10.487   2.862  11.520 -0.0874  0.1981  0.2478
20418W        W36892   1.160   0.153   0.877  0.2930 -0.1157 -0.0764
20419W        W36893  16.579   8.111  11.356 -0.0946 -0.1203 -0.1924
20420W        W36894   9.748   3.050   3.127 -0.4503 -0.1653 -0.6304
20421W        W36895  17.307   7.304   4.526  0.1580 -0.0964 -0.0837
20422W        W36896  12.271  15.722  13.226 -0.3724  0.1486 -0.0619
20423W        W36897   0.529   7.816   9.317  0.0004 -0.0911 -0.0293
20424W        W36898  12.512   0.460   0.243 -0.0923  0.0981 -0.3996
20425W        W36899   5.949   8.302  13.086  0.0483 -0.1003 -0.0402
20426W        W36900  18.375  11.278   1.399 -0.0292 -0.1103 -0.0406
20427W        W36901   4.678  16.708   2.072  0.0183  0.1675 -0.0795
20428W        W36902   8.384   6.799  11.881  0.1551 -0.3470  0.2205
20429W        W36903   6.373   1.855   1.508 -0.0521  0.0628 -0.3892
20430W        W36904  10.569  11.417  13.001 -0.1058 -0.1200  0.1590
20431W        W36905   0.681  10.803   2.771 -0.1936  0.2625 -0.1127
20432W        W36906   0.245  12.850  11.095 -0.3023 -0.2353 -0.3384
20433W        W36907  18.688  16.240  12.645 -0.0668  0.0984  0.1077
20434W        W36908  10.649  19.146  12.993  0.1530  0.2274  0.1288
20435W        W36909   4.159  12.809   4.423 -0.1255 -0.1032 -0.0137
20436W        W36910   1.362  18.207  13.403  0.1078  0.0139  0.0132
20437W        W36911  11.414   6.873  10.053  0.0280 -0.1420  0.3968
20438W        W36912  12.856  12.895  10.341  0.1036 -0.0707  0.1665
20439W        W36913  15.995  13.822   2.340 -0.0870 -0.1138  0.0157
20440W        W36914  11.981  12.925  11.935 -0.1449 -0.4347 -0.0785
20441W        W36915   2.588  16.192   1.793  0.2499  0.0225  0.2187
20442W        W36916   1.067   1.324  13.910  0.0371 -0.1121 -0.0154
20443W        W36917   7.534   2.464  13.070 -0.1709  0.1310  0.2067
20444W        W36918   2.710   9.038   0.802 -0.0960 -0.3953 -0.2477
20445W        W36919  12.388   8.942  11.909 -0.1754 -0.2082 -0.2159
20446W        W36920  14.231  14.412   3.515 -0.0405 -0.1489  0.1487
20447W        W36921   5.534  17.235  11.658  0.3423 -0.0366  0.0850
20448W        W36922  14.816   9.983   1.508  0.1155 -0.1944  0.3361
20449W        W36923  16.602   7.563   9.620 -0.0324 -0.1491 -0.2549
20450W        W36924  18.495   5.418   4.555  0.1913  0.3084 -0.0745
20451W        W36925  12.092  13.135  14.342 -0.2791  0.1263  0.3436
20452W        W36926  17.118   4.637   1.710 -0.0914  0.0969  0.3692
20453W        W36927   5.762   6.364  13.917 -0.0479  0.3102  0.1831
20454W        W36928  10.614  12.075  12.795 -0.1438 -0.0176  0.2839
20455W        W36929  15.019   1.457  11.076 -0.1917  0.0974  0.0561
20456W        W36930   6.171   8.636   4.458  0.0747  0.1420  0.2705
20457W        W36931   1.956  16.557  10.668  0.2621 -0.0199  0.2330
20458W        W36932   0.767  14.446  14.128  0.2603  0.2565  0.2114
20459W        W36933  10.372   0.885   3.514 -0.3566 -0.2630 -0.1267
20460W        W36934  10.154  10.661  13.323 -0.2117 -0.1129 -0.0606
20461W        W36935  15.004  18.636   2.846 -0.0328  0.1192  0.4003
20462W        W36936  12.250   5.701   3.389 -0.3351  0.1118 -0.0727
20463W        W36937  12.754  10.374   2.184 -0.0340  0.0298 -0.2436
20464W        W36938   1.176  15.010  10.769  0.1606 -0.1627  0.3637
20465W        W36939   2.799  15.469   0.174  0.0258 -0.3740  0.0787
20466W        W36940  14.152   3.506   1.915  0.0511 -0.1089  0.3064
20467W        W36941   5.953   6.186   2.103 -0.1749  0.1006  0.2716
20468W        W36942   0.408  19.212   3.519 -0.0805  0.1107 -0.0839
20469W        W36943  10.096  14.981  13.427 -0.1203 -0.0015  0.2382
20470W        W36944   1.226   6.539  11.047  0.1541 -0.5067  0.0353
20471W        W36945  11.491  16.835  11.155  0.0973 -0.0850  0.1686
20472W        W36946  14.602  10.051   0.250 -0.1437  0.5803 -0.0582
20473W        W36947  10.381  12.740  13.751 -0.1958 -0.2033  0.0207
20474W        W36948  13.568  12.008   4.194 -0.0384  0.1036  0.0280
20475W        W36949   3.192  16.741  14.108 -0.2593  0.0689 -0.1378
20476W        W36950  13.082   6.894   3.585  0.0924 -0.2561  0.1108
20477W        W36951   5.743  16.864  13.792  0.3217  0.1755 -0.0821
20478W        W36952   7.593  12.263  11.632  0.1183 -0.2129  0.2360
20479W        W36953  11.400   9.637   3.891 -0.0253 -0.1942 -0.0355
20480W        W36954  17.231   4.292   4.858  0.0763  0.1903 -0.0635
20481W        W36955  14.083   1.711  10.240  0.0656  0.0931 -0.1267
20482W        W36956  12.035  14.164  11.958  0.4028  0.0056 -0.0521
20483W        W36957  19.254   9.948  14.159  0.0510 -0.0380  0.0675
20484W        W36958   1.993   6.573  11.446  0.0224 -0.2593 -0.0832
20485W        W36959   2.095  11.644  12.142  0.3162 -0.0531  0.0336
20486W        W36960   5.187   0.075   3.755  0.1978 -0.0224  0.2721
20487W        W36961  11.530   8.181   3.539  0.3209 -0.2328 -0.1449
20488W        W36962   9.220  13.717   5.079 -0.1526 -0.4334 -0.5795
20489W        W36963   0.777   7.314  10.210  0.2703  0.2394 -0.1059
20490W        W36964  18.439  10.086  11.440 -0.0587 -0.1221  0.0296
20491W        W36965  14.842  11.991   3.921 -0.1366  0.0700  0.1756
20492W        W36966  11.442   1.688  11.606  0.3644  0.0924 -0.1817
20493W        W36967   5.121   1.998   9.563  0.0004 -0.4140 -0.3741
20494W        W36968  12.470  10.140  10.395 -0.1353 -0.3353 -0.0566
20495W        W36969   4.026  15.861   8.898  0.0690 -0.0665 -0.0286
20496W        W36970  17.871  15.659  13.404  0.0953 -0.2223 -0.0217
20497W        W36971   0.481  13.626   0.022 -0.0175  0.3054  0.0278
20498W        W36972   3.833   0.551  11.089  0.0338 -0.1633  0.0532
20499W        W36973  11.877   9.643  13.030 -0.2187  0.1417 -0.0958
20500W        W36974   5.383   2.876   1.502 -0.3043 -0.0302  0.0957
20501W        W36975   4.350   2.363   4.935  0.0005 -0.0134  0.1783
20502W        W36976   7.753  10.280   0.478 -0.1021 -0.0377 -0.0670
20503W        W36977   7.184   9.890   3.478 -0.1536 -0.0781 -0.0699
20504W        W36978   2.068  10.330  10.910 -0.0543 -0.0894 -0.3373
20505W        W36979  17.266  18.509   3.114  0.2166 -0.3172  0.1293
20506W        W36980  15.054   8.455   0.822 -0.1732 -0.2115  0.0040
20507W        W36981  10.215   9.257  12.803  0.3550 -0.0467 -0.0062
20508W        W36982   5.605   4.237  11.255  0.0104  0.2326  0.4609
20509W        W36983  14.737  11.715  13.731 -0.2171  0.0718 -0.0119
20510W        W36984   9.562   7.026   0.835  0.2590  0.0666  0.0390
20511W        W36985  17.746  19.343   2.279 -0.0893 -0.1940 -0.1674
20512W        W36986  14.927   2.666   2.791  0.2093 -0.6468  0.1338
20513W        W36987   0.119   3.003   3.265  0.1789 -0.2483  0.0794
20514W        W36988   5.506   4.714   3.993 -0.2142 -0.1759 -0.1773
20515W        W36989   3.634  15.205   2.465  0.2474  0.1175  0.1175
20516W        W36990   4.772  10.587   1.876  0.0593  0.0114  0.2256
20517W        W36991  10.757   2.329   1.088 -0.1004 -0.0319 -0.0311
20518W        W36992   1.641   6.019  10.717  0.1477  0.1944  0.1940
20519W        W36993  18.624   3.759   3.065  0.1185  0.0987 -0.3017
20520W        W36994   7.350  13.116  13.911  0.0603 -0.0473 -0.0886
20521W        W36995  12.107   9.524  12.566 -0.1786  0.1607 -0.1267
20522W        W36996   7.990   6.491  14.643 -0.1233 -0.0624 -0.1403
20523W        W36997  17.008   0.969   1.748  0.0945 -0.0759 -0.1141
20524W        W36998   8.146  12.693   1.562 -0.3077  0.1165 -0.2629
20525W        W36999   8.160  10.652  10.598 -0.0276  0.0948 -0.1507
20526W        W37000  11.459  18.657  13.725 -0.2581 -0.3560 -0.1557
20527W        W37001   5.221  10.726   1.984 -0.0702 -0.0266 -0.0843
20528W        W37002   7.069   8.296   1.259  0.1024  0.0731 -0.1093
20529W        W37003   9.281   5.358  11.652 -0.0584 -0.0881 -0.0743
20530W        W37004   4.613   7.030   0.009  0.0514  0.0398  0.0584
20531W        W37005  11.165   0.655   2.322  0.1214 -0.0523  0.0040
20532W        W37006  17.411   7.755   9.792 -0.3363 -0.0498  0.2032
20533W        W37007   3.294   2.236  10.187 -0.0340 -0.2122  0.0628
20534W        W37008   2.441   7.210   3.011 -0.2496 -0.3171 -0.0672
20535W        W37009   4.256   0.339  11.352 -0.2917 -0.1609  0.1667
20536W        W37010   7.150   4.785   0.447 -0.1678 -0.3563  0.3829
20537W        W37011  14.886   6.303   3.065  0.2344 -0.0795  0.1213
20538W        W37012  11.658   9.752  12.496 -0.1127 -0.3740 -0.0523
20539W        W37013  12.618   7.684  13.097  0.0736  0.0562  0.3286
20540W        W37014  13.526  14.876  10.942  0.2540 -0.1973 -0.1199
20541W        W37015  11.373  19.536  12.176 -0.0674 -0.0161 -0.1456
20542W        W37016  14.087   0.475  14.371 -0.2139 -0.0790 -0.3797
20543W        W37017   0.371  18.096  11.825  0.1189  0.2201 -0.0244
20544W        W37018  19.043  14.763   2.599 -0.2399  0.2224  0.0483
20545W        W37019  13.472   2.183   0.923  0.0194 -0.0851 -0.0809
20546W        W37020   3.692   3.172   1.395 -0.0407  0.2896 -0.2023
20547W        W37021  14.315  12.157   4.444  0.1611  0.0071 -0.0317
20548W        W37022   2.106  17.565  11.728  0.1637  0.0226  0.0345
20549W        W37023   2.341  15.719   4.023  0.2107  0.1558  0.0096
20550W        W37024   5.491  11.138  13.861  0.2898 -0.1805 -0.2832
20551W        W37025  18.110   0.503   9.664  0.1464  0.0092  0.0394
20552W        W37026  12.822  12.006  10.646  0.1908  0.3248  0.2345
20553W        W37027   3.138  16.918  13.142 -0.1965  0.1287  0.0362
20554W        W37028  15.197  11.583  12.740 -0.0397 -0.2805 -0.1379
20555W        W37029  14.297  13.722  13.614  0.2383 -0.1942 -0.2532
20556W        W37030  18.240  17.639  12.535 -0.0018  0.0493 -0.1490
20557W        W37031   0.037  19.333  11.616  0.2143  0.0931 -0.0552
20558W        W37032   3.019  16.456   0.431 -0.0009 -0.1136 -0.1282
20559W        W37033   6.586   7.511   1.029 -0.2378  0.0349  0.2109
20560W        W37034  13.500   3.705   0.550  0.1257 -0.3079 -0.1497
20561W        W37035   1.133   1.521  10.067  0.1035 -0.2443  0.0313
20562W        W37036   4.191   8.740  12.154  0.1913 -0.1786  0.1027
20563W        W37037  19.055  10.129   0.242 -0.0315  0.4419  0.1390
20564W        W37038  11.490  11.005  12.741  0.4459 -0.0836  0.3273
20565W        W37039  13.970   6.288   1.402 -0.1530  0.0034 -0.1380
20566W        W37040   0.343  11.950   4.612  0.0139 -0.2027 -0.0738
20567W        W37041   4.521   4.257   0.588 -0.0166  0.1005  0.2771
20568W        W37042  11.604   4.470   0.846  0.0476  0.0748 -0.2967
20569W        W37043   6.380  13.020   2.672  0.0686 -0.0417 -0.1260
20570W        W37044  13.897  16.338   0.286 -0.0764  0.0346  0.1176
20571W        W37045  18.263   1.216  10.333 -0.1490 -0.3441 -0.0536
20572W        W37046   4.504   3.346   2.896 -0.1418  0.1287 -0.4456
20573W        W37047   4.150  16.785  13.837  0.3034 -0.2029 -0.1934
20574W        W37048   9.011   1.792   2.155  0.0953  0.1749  0.1849
20575W        W37049   5.528   7.671  13.643  0.2399  0.1295  0.0102
20576W        W37050  13.601  11.712  14.342  0.2268 -0.0146 -0.1519
20577W        W37051  15.205   5.141  11.907 -0.1202 -0.1800  0.2455
20578W        W37052  15.953  18.741   4.574  0.0048  0.3916  0.2066
20579W        W37053   0.227  11.642  14.624  0.2663 -0.2076 -0.2022
20580W        W37054   0.345  11.667  10.442  0.1816  0.2879  0.1192
20581W        W37055  14.750   4.368   5.055 -0.1426  0.0355 -0.2763
20582W        W37056   2.617   5.232   4.943  0.0872  0.0558 -0.2033
20583W        W37057  13.364  18.875  10.591 -0.1580 -0.2906 -0.1509
20584W        W37058  12.113   8.683   0.723  0.0631 -0.1771 -0.2757
20585W        W37059  10.361   0.504  10.861 -0.1064 -0.0358 -0.0633
20586W        W37060   0.451  19.088   9.163 -0.0161  0.0860 -0.5332
20587W        W37061  11.641   4.350  10.399 -0.3340  0.2853  0.3543
20588W        W37062   9.125  12.320  13.487  0.1394  0.0648 -0.3161
20589W        W37063  18.788  11.578   1.548 -0.1510  0.1344 -0.1152
20590W        W37064  18.277  19.426  13.344 -0.3133  0.2320  0.1060
20591W        W37065  17.602  19.570   4.037 -0.1849  0.0631 -0.1997
20592W        W37066   9.746  13.309   1.256  0.2180 -0.1469 -0.1728
20593W        W37067   2.882   2.832   1.854  0.1382 -0.2750  0.1444
20594W        W37068  13.176  10.838  14.310  0.0718 -0.1503 -0.0119
20595W        W37069  19.432   7.141   4.492 -0.0233 -0.0540 -0.1081
20596W        W37070  16.695  13.377  12.387 -0.1868  0.0110  0.1701
20597W        W37071   6.761  15.023  12.777  0.3077 -0.3274  0.0357
20598W        W37072   6.094  12.215  11.974  0.0385  0.0505 -0.2852
20599W        W37073   6.464   3.633   3.927 -0.1919 -0.1354 -0.0312
20600W        W37074  12.362  15.878  11.951  0.1695 -0.0345  0.1069
20601W        W37075   3.754   8.540  12.099 -0.2332 -0.1097  0.1398
20602W        W37076   6.056  16.932  10.281  0.3494 -0.0321  0.0055
20603W        W37077  13.325   2.277  14.084  0.1689 -0.2749  0.0958
20604W        W37078   5.609  16.208   2.260  0.0607 -0.1202  0.0823
20605W        W37079  17.768   9.699   4.863 -0.0103 -0.2479  0.0457
20606W        W37080   0.117   2.282   0.962 -0.3696 -0.1840 -0.1460
20607W        W37081  16.234  11.688  13.878  0.2483 -0.0218  0.0200
20608W        W37082   5.973   0.548  13.657  0.2007  0.3067  0.0286
20609W        W37083   6.774  11.552   1.120  0.0019 -0.0639  0.0453
20610W        W37084  16.686  12.133   2.958  0.0511 -0.5869  0.0464
20611W        W37085  14.742   1.439   3.176 -0.0811 -0.1638  0.1235
20612W        W37086   0.115   1.061   5.349 -0.0643 -0.0860 -0.0911
20613W        W37087   0.722  18.568   2.347  0.0104 -0.1670  0.1813
20614W        W37088   1.440   1.018   1.679  0.1208 -0.0013 -0.1570
20615W        W37089   2.245  17.246   4.776  0.2188  0.1895  0.0339
20616W        W37090  10.902   1.354  10.896  0.2026 -0.4507  0.0568
20617W        W37091   1.203   0.277   2.790 -0.0574 -0.3667  0.2039
20618W        W37092   1.007   6.980   3.104 -0.0773  0.2256  0.2443
20619W        W37093  13.004   8.632   2.096  0.1914  0.0749 -0.0686
20620W        W37094   2.628   2.028  11.673  0.2485  0.1790  0.2007
20621W        W37095  11.901   1.715  14.049 -0.1121  0.1343 -0.0231
20622W        W37096   2.458   8.839   1.756 -0.2510  0.1128 -0.0719
20623W        W37097   1.583   3.321   1.772  0.0433 -0.0266  0.1579
20624W        W37098   1.123   1.884  12.899  0.2037 -0.2703  0.1707
20625W        W37099   4.993   8.345  11.515  0.0854  0.0919 -0.0527
20626W        W37100  16.916  18.398   1.708 -0.2792  0.1279  0.0826
20627W        W37101   3.436   4.742   2.736 -0.0589 -0.1884 -0.1126
20628W        W37102   2.864   0.669   4.347  0.1124 -0.1173  0.2639
20629W        W37103   7.097  12.576   0.394 -0.0332  0.0671 -0.3224
20630W        W37104  11.184  10.054   3.511  0.2838  0.1588  0.0654
20631W        W37105   2.243   4.764   2.555 -0.1664 -0.2789 -0.1839
20632W        W37106   8.580  14.769   2.438  0.2423  0.2492  0.3363
20633W        W37107   6.418  10.970  10.446  0.1378  0.1985 -0.1974
20634W        W37108   5.199  15.442  13.405  0.1526 -0.0923  0.0128
20635W        W37109   0.594   0.744   1.373  0.0635 -0.0892 -0.4116
20636W        W37110  12.256  12.288  14.192 -0.0847 -0.2296  0.3825
20637W        W37111   2.430  12.452   1.392 -0.0899 -0.0384  0.0590
20638W        W37112   0.228  17.192   2.083  0.2675 -0.1183  0.0785
20639W        W37113  14.647   8.208   9.875 -0.4707  0.1487  0.0169
20640W        W37114  13.111  17.783   2.827  0.2085  0.2062 -0.3402
20641W        W37115  13.066   7.575  11.620  0.1114 -0.0504 -0.1272
20642W        W37116   3.897   9.668  11.194  0.0267  0.2883 -0.2040
20643W        W37117  10.234  12.916  12.590  0.2033 -0.1014 -0.0336
20644W        W37118  18.952   4.289  11.897 -0.0889  0.1885 -0.2215
20645W        W37119  13.060  14.638  12.934 -0.3327 -0.2156 -0.1577
20646W        W37120  18.106  17.969   4.754 -0.1155 -0.0588 -0.2398
20647W        W37121  14.626   5.380  14.090  0.3408 -0.0585 -0.2272
20648W        W37122  19.355  19.361   2.377 -0.1808 -0.1926 -0.1322
20649W        W37123   4.272   4.731   0.175 -0.2662 -0.1985  0.1856
20650W        W37124   1.273  17.491  14.060  0.2448 -0.1679  0.0675
20651W        W37125   3.472   0.334   4.854  0.3078  0.1407 -0.0100
20652W        W37126   1.410  12.270  13.320 -0.0007  0.2875 -0.1640
20653W        W37127   0.920  10.520   0.863 -0.2347 -0.1110  0.1498
20654W        W37128   5.609  12.256   1.607  0.0807 -0.0749 -0.0131
20655W        W37129   0.433  12.441   4.630 -0.0124 -0.3746 -0.1837
20656W        W37130   6.658   5.044   0.326  0.0608 -0.3203 -0.1378
20657W        W37131   6.325   0.095  10.955  0.1191 -0.0658  0.1529
20658W        W37132  13.392   9.085   5.379  0.1620  0.2536  0.3257
20659W        W37133  12.905   3.079  10.317  0.0885 -0.0460 -0.1472
20660W        W37134  12.641  17.722   3.765  0.3079  0.0493 -0.0988
20661W        W37135  12.226  17.773  11.852  0.2073  0.0432  0.2467
20662W        W37136  16.555   4.372  13.258 -0.3531 -0.2075 -0.4532
20663W        W37137   8.603   5.211   5.098 -0.0289  0.2382  0.2158
20664W        W37138  12.803   8.475   0.662  0.0944  0.0066  0.2494
20665W        W37139   3.833  12.512  12.372  0.0467  0.2054 -0.1006
20666W        W37140  12.191   9.742  10.644 -0.1605  0.5704 -0.0798
20667W        W37141   2.783   2.693  12.780  0.0252  0.2455 -0.2050
20668W        W37142  18.351   2.714   2.956  0.1758 -0.2321 -0.2487
20669W        W37143   6.260  16.009  14.091  0.1655  0.2749  0.3625
20670W        W37144  17.575   4.775   3.655  0.2170 -0.1369 -0.0364
20671W        W37145  17.507   4.163   5.278  0.1363  0.2893  0.2579
20672W        W37146  13.441  19.561  12.395 -0.1344 -0.1416  0.0458
20673W        W37147  11.539  15.976   4.757 -0.0146 -0.0117 -0.0256
20674W        W37148  13.177   0.565   1.375  0.3704  0.3586 -0.1901
20675W        W37149  10.122   7.194   1.712  0.4399  0.0788 -0.1127
20676W        W37150   8.169   5.299   4.512  0.0541 -0.0756 -0.0854
20677W        W37151  17.113  12.156  10.070 -0.0150  0.2557 -0.1840
20678W        W37152   5.174  11.152   4.840 -0.0495 -0.0340 -0.1915
20679W        W37153   7.656  15.202   3.450 -0.1967  0.2810  0.1873
20680W        W37154  16.468  17.085   0.782 -0.0687 -0.0592  0.0348
20681W        W37155  11.657  14.964  12.360  0.0706 -0.2414 -0.1950
20682W        W37156  18.258  13.022  11.502 -0.3366 -0.0828  0.2299
20683W        W37157   4.145  11.194   0.995  0.0535 -0.2304  0.5003
20684W        W37158  15.367  19.136   1.060  0.0698 -0.0274 -0.1071
20685W        W37159  14.310   8.811   4.859  0.0905  0.0794  0.1888
20686W        W37160   8.923   7.489   4.149  0.1481 -0.0889 -0.0413
20687W        W37161   4.016   5.318   3.117  0.0142  0.1389  0.0452
20688W        W37162   8.902   3.980  13.097 -0.0830 -0.2957  0.0508
20689W        W37163   4.772   4.206  11.963  0.2210 -0.0593 -0.1505
20690W        W37164  16.605   6.851  10.325  0.0451  0.0991  0.1976
20691W        W37165  19.330   4.391   0.641  0.1858 -0.4827  0.0778
20692W        W37166   0.855  13.667  12.429 -0.1050 -0.0575 -0.1053
20693W        W37167  18.148  15.065  10.856  0.1379 -0.1547 -0.1070
20694W        W37168  14.015  11.499   0.550  0.3245 -0.2760  0.0804
20695W        W37169  12.549  14.160  11.179 -0.0058 -0.0497 -0.1855
20696W        W37170   9.016   7.727  14.316  0.1975  0.0081  0.0476
20697W        W37171  13.099   2.636  13.242 -0.0671 -0.2781 -0.2964
20698W        W37172  18.511   6.875  12.822  0.0491  0.1258  0.0478
20699W        W37173  13.168  19.430  13.346  0.0907 -0.0712 -0.0887
20700W        W37174   6.160   0.242   1.111  0.0221 -0.0206  0.0133
20701W        W37175  12.439   8.081  10.970 -0.2562  0.0634 -0.0683
20702W        W37176  16.740  16.799   3.719 -0.1020 -0.1896  0.2606
20703W        W37177   8.666   0.220   0.703  0.0567  0.0908 -0.1773
20704W        W37178   3.463  15.471  14.187 -0.2190 -0.0126  0.2455
20705W        W37179  17.757   7.682   1.614 -0.0834  0.0111 -0.0202
20706W        W37180  16.126   0.682   0.792  0.1186  0.2425 -0.1449
20707W        W37181  17.761  14.747  12.052 -0.1960 -0.2060 -0.0930
20708W        W37182   1.439  10.499   2.705  0.1453 -0.0630 -0.1011
20709W        W37183   1.632  14.754   3.840 -0.2575  0.0617 -0.1498
20710W        W37184  17.549   6.432   4.346 -0.0487  0.0957  0.3310
20711W        W37185  19.055  17.889  12.037  0.3441  0.2533 -0.1494
20712W        W37186   9.759   4.403   1.911 -0.0877  0.1115 -0.4432
20713W        W37187   8.896   6.716  10.647 -0.2026 -0.2300  0.1124
20714W        W37188   7.524  13.930   1.308  0.0605 -0.1760  0.3038
20715W        W37189   4.623   9.465   9.482  0.0119  0.0208 -0.2345
20716W        W37190   8.503   1.644  14.283  0.0497 -0.1043 -0.0933
20717W        W37191  12.231  10.698  10.922 -0.2084 -0.2282 -0.0120
20718W        W37192  11.605  18.624  12.167 -0.2029  0.5106  0.0379
20719W        W37193  17.333  14.157  10.437  0.0856 -0.0465  0.1832
20720W        W37194   0.446   6.944  14.168 -0.0069  0.1738  0.0098
20721W        W37195   3.573   4.757  11.531 -0.2784 -0.0426 -0.1295
20722W        W37196   9.251  10.437  11.730 -0.0853 -0.0209  0.0483
20723W        W37197  19.077   7.576  13.794  0.1310 -0.0697 -0.3600
20724W        W37198   6.407   0.413  10.536  0.2075  0.1512 -0.0202
20725W        W37199  12.920  16.820   0.603 -0.0057 -0.3329  0.1030
20726W        W37200  14.394   8.112   0.204  0.0647 -0.0080 -0.2172
20727W        W37201   7.149   2.945  13.997  0.1932 -0.3667 -0.1348
20728W        W37202   2.059  17.843   3.136 -0.2328 -0.0757 -0.1250
20729W        W37203  13.677   3.991   0.108  0.2165  0.3287 -0.0170
20730W        W37204   4.543  18.187   0.422 -0.2056  0.0629 -0.1783
20731W        W37205   7.558  18.825  14.660  0.3158 -0.1909 -0.2430
20732W        W37206   3.180  16.291  13.829  0.4323 -0.1483  0.0067
20733W        W37207  12.881   2.066  13.139  0.1130  0.0020  0.1679
20734W        W37208   2.608   0.515   1.399 -0.0217  0.4097  0.2213
20735W        W37209  18.762  16.692   3.570  0.0405 -0.0395 -0.0490
20736W        W37210  16.283   6.879  12.151  0.2461 -0.1154  0.0502
20737W        W37211  15.842  12.852  12.608 -0.0708  0.3652 -0.0793
20738W        W37212  18.822  14.677   4.385 -0.3554 -0.1636  0.0894
20739W        W37213  17.312   6.493   2.656 -0.0837 -0.3715  0.0002
20740W        W37214   5.047  16.689   9.275  0.2151 -0.0945 -0.0933
20741W        W37215  16.637   7.923  12.224 -0.1341  0.1914 -0.0516
20742W        W37216  10.228  13.011   0.312  0.2810 -0.0924  0.2548
20743W        W37217   6.736   2.397  11.725  0.0151 -0.1661  0.4413
20744W        W37218   9.699   4.644  11.092  0.2763 -0.1721  0.3587
20745W        W37219  14.966  10.780  11.450 -0.4856 -0.1262  0.2910
20746W        W37220  11.874  16.322   5.020  0.0133  0.2275  0.0001
20747W        W37221  16.596   6.349  10.236 -0.1839 -0.2831 -0.2522
20748W        W37222  19.603   7.481  13.554 -0.0388 -0.0419 -0.1618
20749W        W37223   9.604  17.235  12.878 -0.0341  0.0321 -0.0587
20750W        W37224   8.842   7.921  11.106  0.2785  0.1011 -0.0204
20751W        W37225   5.976  12.980   9.454  0.0489 -0.0043 -0.1154
20752W        W37226   8.640  18.086   3.403  0.3096 -0.1733 -0.1828
20753W        W37227   6.472  11.456  11.593  0.0978  0.3017  0.0014
20754W        W37228  18.161  10.521  10.370 -0.1618  0.0872  0.1796
20755W        W37229   6.119   7.304  10.911  0.0728 -0.0130 -0.4921
20756W        W37230   8.347  18.125  11.920 -0.0348  0.0548 -0.4448
20757W        W37231  16.536  12.008  13.674 -0.0423  0.1207  0.1651
20758W        W37232   4.492   6.923   2.818 -0.3011 -0.2135 -0.1445
20759W        W37233   4.073   6.001  10.692  0.1063  0.0850  0.2740
20760W        W37234  15.117  18.115  11.379 -0.0141 -0.1182  0.1296
20761W        W37235   9.319   0.920  10.707  0.2167 -0.0935 -0.0446
20762W        W37236  19.079  18.638  10.382 -0.2086  0.0136  0.3909
20763W        W37237   5.499  12.039  13.885  0.3353 -0.1506  0.0248
20764W        W37238  11.719   0.961   2.850 -0.0173  0.0737 -0.0921
20765W        W37239  16.591  15.012  14.308 -0.3027 -0.0833  0.2470
20766W        W37240  13.153   1.204  13.623  0.2655 -0.2786 -0.0221
20767W        W37241   0.288  14.947  13.446 -0.0099  0.0739  0.0626
20768W        W37242   3.457  19.479  10.405  0.1458 -0.0349 -0.0646
20769W        W37243  13.855  13.655  12.136 -0.0658  0.1613  0.0523
20770W        W37244   6.778   6.396   3.599  0.4437 -0.0732  0.1874
20771W        W37245  19.582   2.481  13.813  0.2271 -0.0483  0.0209
20772W        W37246   6.158  13.105  13.389 -0.2702 -0.1400  0.0867
20773W        W37247   8.041  14.995   1.785 -0.1969  0.0659 -0.1104
20774W        W37248   5.342   7.540   4.428  0.1297  0.2250  0.2516
20775W        W37249  16.528  14.674  13.914  0.0610  0.0735  0.1127
20776W        W37250  16.261   3.000   2.226  0.0560 -0.2956 -0.0968
20777W        W37251   9.497   4.590  13.715 -0.0420 -0.0194  0.1739
20778W        W37252   2.444   3.164  10.521 -0.1837 -0.3434 -0.2865
20779W        W37253  15.109   3.127   0.685 -0.0240 -0.2862  0.0241
20780W        W37254   6.178  15.499  14.224  0.1026  0.0202  0.2479
20781W        W37255   9.627  17.925  11.258  0.3030  0.0416 -0.3069
20782W        W37256  17.499   4.232  12.049  0.2261 -0.2527  0.2917
20783W        W37257  15.074  10.332   1.134  0.1970 -0.1697 -0.2342
20784W        W37258  12.784  13.625   9.461 -0.3050  0.5525 -0.2516
20785W        W37259   0.007  14.508   2.417  0.0498  0.5300  0.0330
20786W        W37260  14.762   5.152  10.470 -0.1771  0.2173 -0.3256
20787W        W37261  18.175   0.517  12.592 -0.0066  0.0590 -0.1460
20788W        W37262  12.790  17.189  13.517 -0.1274 -0.3005 -0.1036
20789W        W37263  14.177   5.259   1.924  0.0946 -0.5232 -0.3967
20790W        W37264   2.009   4.551  11.806 -0.0347 -0.3419 -0.0446
20791W        W37265   2.496   4.006   1.392  0.0286  0.1331 -0.0119
20792W        W37266   9.087  17.149   0.899  0.2419 -0.1103 -0.1167
20793W        W37267   3.978  10.357   0.790 -0.3409 -0.0164 -0.1027
20794W        W37268   1.648   0.442   3.168  0.1258  0.1684  0.1492
20795W        W37269   6.073  11.285  14.519 -0.1466 -0.2012  0.0368
20796W        W37270  19.459  10.280   3.100 -0.0025  0.0979 -0.0556
20797W        W37271  14.133   1.799  14.160  0.0843  0.0408 -0.2987
20798W        W37272   5.526  10.709  14.150 -0.2255 -0.2775 -0.0200
20799W        W37273   2.565  11.847  12.982 -0.0696  0.0910 -0.0327
20800W        W37274  10.954  14.393  14.594  0.2731 -0.1479  0.3498
20801W        W37275   9.287   1.319  10.404 -0.0715  0.0328 -0.3742
20802W        W37276   4.752  19.449   3.725 -0.0719  0.2012 -0.0068
20803W        W37277   7.540   9.301   4.044  0.2014  0.1216 -0.0633
20804W        W37278  12.109   2.599  14.448 -0.3208 -0.0843  0.0850
20805W        W37279   4.163  15.977   5.790 -0.1795 -0.1499  0.2549
20806W        W37280   2.574   1.529  12.880  0.1002 -0.2942  0.1900
20807W        W37281   5.772   9.140   2.064 -0.2264  0.1189  0.4055
20808W        W37282   9.192   3.056  13.490 -0.1044 -0.1466  0.1524
20809W        W37283  15.808   2.777  14.467  0.1617  0.2154  0.0755
20810W        W37284  10.188  19.082  10.214  0.1655  0.2542 -0.0441
20811W        W37285  16.739   5.396   0.034  0.1177 -0.0634  0.1289
20812W        W37286  17.783   4.838  12.590  0.1686 -0.2159  0.4471
20813W        W37287  11.236   4.040   3.997  0.0113  0.0276 -0.2395
20814W        W37288   3.823  13.357  10.742  0.1058 -0.1334 -0.2990
20815W        W37289   4.333  16.567  14.250 -0.1586 -0.1942  0.0743
20816W        W37290  16.709  19.559   3.089  0.0471  0.4507  0.1175
20817W        W37291  12.449  15.991   0.563 -0.1273  0.4107  0.2011
20818W        W37292   2.874  19.103   0.781  0.0183  0.0816  0.0264
20819W        W37293   8.613  13.376   4.307 -0.0562  0.0674 -0.3372
20820W        W37294  17.289   2.456   4.026  0.1727  0.0910 -0.2316
20821W        W37295  15.725   5.820  13.744 -0.3578 -0.0813 -0.0487
20822W        W37296  14.021  17.517   2.505 -0.2233  0.1331 -0.1011
20823W        W37297  10.368  14.023  14.111 -0.2101  0.1258  0.1779
20824W        W37298  12.647   4.910  12.842 -0.0049 -0.0080  0.0067
20825W        W37299  10.716   3.875   2.937 -0.0299 -0.1282 -0.0911
20826W        W37300   8.870  10.201   5.379 -0.1822  0.2698  0.2307
20827W        W37301  12.772  10.459   4.254 -0.0821 -0.4019 -0.2454
20828W        W37302  15.673   9.741   4.411  0.0729 -0.0206  0.4612
20829W        W37303  17.901   3.955   1.572  0.0014  0.0607 -0.0499
20830W        W37304   7.552   7.703  12.877  0.1702 -0.4315  0.0409
20831W        W37305  19.356   2.479   3.972 -0.1599  0.2425 -0.2788
20832W        W37306   3.722   9.097   4.335  0.3664 -0.1436  0.0192
20833W        W37307   7.374  19.270  11.372  0.1783 -0.0922 -0.1325
20834W        W37308   9.108  11.982   3.734 -0.0720  0.1256 -0.0344
20835W        W37309  18.729   2.807   1.163  0.0681 -0.0904  0.2234
20836W        W37310  12.687   8.802  10.730 -0.1695 -0.1160 -0.1662
20837W        W37311  18.295  12.287   4.035  0.1017  0.1048  0.1682
20838W        W37312   6.145   5.916   0.110  0.1373  0.0577 -0.3799
20839W        W37313  13.026   4.109   3.998  0.1737  0.3403  0.1315
20840W        W37314   9.869  13.853  11.195  0.1042 -0.0645  0.0193
20841W        W37315   1.959   9.348   0.267  0.0789 -0.0123 -0.2128
20842W        W37316   8.499   6.959   8.821  0.0506 -0.0503 -0.0834
20843W        W37317  19.295  16.270  11.313  0.0185  0.1180 -0.0788
20844W        W37318  11.527  18.846   3.138 -0.0689 -0.0018  0.0948
20845W        W37319  11.028   1.557   0.779  0.0193 -0.1422  0.1522
20846W        W37320  14.985   1.896   3.333  0.1208  0.0600 -0.1873
20847W        W37321   5.479   8.115  10.709 -0.0795 -0.0545 -0.0291
20848W        W37322  15.657  16.257  10.010  0.1600 -0.0518  0.1482
20849W        W37323   5.213  15.698  13.959 -0.3953 -0.0919  0.2173
20850W        W37324   3.516  12.033   4.410  0.0873 -0.3609  0.0111
20851W        W37325  12.996  11.345   4.426 -0.2037  0.2537  0.2391
20852W        W37326  10.677  10.581  13.129 -0.0056  0.2123 -0.2101
20853W        W37327   9.546   9.332   3.024  0.1425 -0.1839 -0.1943
20854W        W37328  18.139  10.683  14.095 -0.0347  0.0354  0.0019
20855W        W37329  13.168  12.450  11.555 -0.0450  0.1144  0.1281
20856W        W37330  11.061   6.795   1.675 -0.1994 -0.4279  0.0199
20857W        W37331   2.804  14.718   3.906  0.3495  0.0400  0.1681
20858W        W37332   1.838   3.779   2.849  0.1321 -0.1370 -0.1282
20859W        W37333   2.114  11.732  10.857  0.0296  0.1229  0.3242
20860W        W37334   6.385   2.256  10.744 -0.1493  0.1153  0.1473
20861W        W37335   9.388  16.498   0.277 -0.1859  0.2426  0.2230
20862W        W37336  19.250   2.373   3.014 -0.3112 -0.1778  0.2639
20863W        W37337   8.326   8.261  13.562  0.1363  0.0390 -0.2404
20864W        W37338  13.802  11.383   2.732 -0.1522 -0.2129  0.2373
20865W        W37339  13.428   5.025   4.637  0.0664  0.0099  0.1421
20866W        W37340   4.428  18.203  12.648 -0.0073  0.1179 -0.0612
20867W        W37341   0.273   7.660   4.000 -0.0799  0.0236 -0.1131
20868W        W37342  11.041  15.228   1.317  0.3091 -0.1762 -0.3429
20869W        W37343  18.035   8.812  13.037  0.0729  0.1708  0.1368
20870W        W37344  13.940   7.077   3.203 -0.2143  0.1177 -0.0189
20871W        W37345  12.823  13.440  14.396 -0.1198 -0.1004  0.0263
20872W        W37346   3.219  18.494   1.056 -0.0395  0.0726 -0.1383
20873W        W37347   7.853   6.277   1.426  0.0654 -0.2693 -0.1486
20874W        W37348   5.604  13.536  14.225 -0.0203 -0.0497  0.2609
20875W        W37349  19.242  18.043   9.172  0.0129 -0.0235 -0.2321
20876W        W37350  17.617  13.311   3.070  0.1158  0.0888 -0.0707
20877W        W37351  19.241  11.221   2.956 -0.2009 -0.1416  0.0816
20878W        W37352   7.944   3.725  12.520 -0.1879 -0.0387 -0.0089
20879W        W37353  15.879   0.502  10.415  0.0836 -0.3579 -0.2726
20880W        W37354  17.046   3.714   4.746 -0.2421 -0.0748 -0.1248
20881W        W37355  13.663   2.755  12.284  0.0630 -0.0849 -0.1693
20882W        W37356  12.141   3.310  12.438  0.1103 -0.1349 -0.3607
20883W        W37357   2.453   8.833  10.984 -0.0755 -0.3554  0.0815
20884W        W37358   7.293   7.741   3.107 -0.1592 -0.0838  0.0662
20885W        W37359   4.454   3.340  11.492 -0.1056  0.1314  0.0972
20886W        W37360   9.690   8.749  13.092  0.2580 -0.0133 -0.0051
20887W        W37361  15.100   6.389   2.570 -0.3372 -0.0441 -0.0301
20888W        W37362   7.724  13.662   3.678 -0.0153  0.1463  0.1027
20889W        W37363  17.942   1.990  13.107 -0.3241 -0.0708  0.1666
20890W        W37364  10.168   2.452  13.577  0.1304  0.3285 -0.1105
20891W        W37365   8.431  11.826  11.203  0.2471  0.1031  0.1141
20892W        W37366  18.391   3.109  14.146 -0.1596  0.0336  0.1130
20893W        W37367  15.301   6.620   0.326 -0.0792  0.1010 -0.0585
20894W        W37368   0.397   8.133   5.508  0.0132  0.3118 -0.1799
20895W        W37369  17.939   8.055  12.567  0.0607 -0.0461 -0.3811
20896W        W37370  12.848  19.243  13.656  0.1454 -0.2606  0.1165
20897W        W37371  17.050  12.396  10.900 -0.1721 -0.1686 -0.1605
20898W        W37372  11.261  15.947   1.837  0.0904  0.1607  0.0173
20899W        W37373   3.378  17.208  12.142 -0.0543 -0.1376 -0.2556
20900W        W37374   7.782  13.206  12.686 -0.0836 -0.2579  0.2501
20901W        W37375  10.696   9.376  10.432  0.1823  0.0021 -0.0930
20902W        W37376   6.253  15.588   2.745 -0.0649 -0.1603  0.0390
20903W        W37377   4.824  17.534   9.381 -0.0169 -0.1687 -0.0383
20904W        W37378  10.915  18.619   0.283 -0.0499  0.1688  0.0955
20905W        W37379   3.460  17.849   2.273 -0.0128 -0.1503 -0.5128
20906W        W37380   6.911  10.496   1.552 -0.0958  0.1151 -0.2368
20907W        W37381  16.849   0.580   3.526 -0.2323  0.0285  0.0143
20908W        W37382   7.694  11.509   1.925  0.1645 -0.0813 -0.0023
20909W        W37383  12.951   3.394  11.677 -0.0024  0.2472 -0.1207
20910W        W37384  17.382   4.492   2.569 -0.1808  0.0047  0.2818
20911W        W37385   8.836  16.601   1.091  0.0803 -0.0199  0.3116
20912W        W37386  15.689   6.992   2.200 -0.4893  0.0701  0.0118
20913W        W37387   6.875   4.712   4.528 -0.2607  0.0431 -0.0290
20914W        W37388   2.481  18.537   3.244 -0.0539  0.0261  0.3333
20915W        W37389  13.216  18.468   4.135  0.1710 -0.1664  0.3703
20916W        W37390  12.727   9.028   1.399  0.1826 -0.0348 -0.1824
20917W        W37391   8.053  17.077   0.387 -0.1454  0.0336 -0.1303
20918W        W37392   9.040  19.369  12.544  0.0841  0.1496  0.0094
20919W        W37393  19.288   9.641   4.310  0.0094 -0.0372  0.2983
20920W        W37394  16.797  18.531   0.109 -0.1148 -0.0207  0.0538
20921W        W37395  11.908  19.237   0.318 -0.1073 -0.1871  0.1590
20922W        W37396   4.922  18.870   8.761 -0.1481  0.1114 -0.3414
20923W        W37397   6.071   4.288   9.961  0.1479 -0.1979  0.2613
20924W        W37398   6.177  17.352  11.602 -0.0059 -0.1172  0.1648
20925W        W37399   2.520  14.714  10.611 -0.2490 -0.0475 -0.1381
20926W        W37400  15.400   5.590   3.182 -0.0303 -0.3431 -0.2690
20927W        W37401   3.311   6.019  10.481 -0.2773  0.0158  0.4074
20928W        W37402  18.812  10.606   1.417  0.3118  0.2474  0.0386
20929W        W37403   0.142   1.715   1.320  0.1642  0.0769 -0.4264
20930W        W37404   0.346  10.412   3.974 -0.1123  0.1933  0.2125
20931W        W37405   9.483  12.574  12.321 -0.1771  0.2418  0.0128
20932W        W37406  19.423  18.179   0.424 -0.0730  0.0261  0.1480
20933W        W37407   3.319  14.164  11.047  0.5025 -0.1131 -0.4438
20934W        W37408  14.037  15.496   4.922 -0.1409 -0.2648 -0.0055
20935W        W37409   3.586   3.776   3.842 -0.3315  0.0875  0.2163
20936W        W37410   9.633  12.032   2.915  0.1393 -0.6544  0.0551
20937W        W37411  15.978  17.812  11.533  0.2556  0.0529 -0.1213
20938W        W37412  12.152   1.685   1.509 -0.3435  0.2373  0.0311
20939W        W37413  10.782  16.386  12.371 -0.1238  0.3083 -0.3433
20940W        W37414  13.601   2.715   3.265  0.1435 -0.1594 -0.1525
20941W        W37415  19.195   8.785   4.676  0.0758 -0.0146  0.1406
20942W        W37416   7.445   3.039   3.650 -0.0408  0.0403  0.0275
20943W        W37417   1.420   1.635  12.459 -0.1577  0.3828  0.1204
20944W        W37418  12.758   6.315  13.183  0.3164  0.2528  0.0047
20945W        W37419  15.793  13.987   1.496 -0.0351 -0.2718  0.1479
20946W        W37420   5.861   6.612   3.761  0.1293 -0.4257  0.0227
20947W        W37421  19.352  10.629  11.573  0.2243  0.3976 -0.1279
20948W        W37422   5.927   0.855  10.673 -0.2640 -0.2613 -0.1050
20949W        W37423   7.494  13.206   2.104  0.0134  0.1623 -0.4063
20950W        W37424  12.915  13.669  10.974  0.1297 -0.1976 -0.1279
20951W        W37425   0.595  18.772   4.911 -0.1780 -0.1167  0.3168
20952W        W37426   3.381  18.548  12.561  0.3916 -0.1054  0.1846
20953W        W37427  10.219   5.982   1.001 -0.4728 -0.1138  0.2788
20954W        W37428   9.159   4.318   0.032 -0.0603  0.1233 -0.1521
20955W        W37429   4.588   1.318   1.287  0.0742  0.0641  0.1140
20956W        W37430  17.223  18.379   1.330 -0.0774 -0.2861 -0.1113
20957W        W37431   5.884  14.714  14.195  0.0441  0.0769 -0.3050
20958W        W37432  17.732   7.011   5.045 -0.2908 -0.1887  0.2969
20959W        W37433  13.473   8.234   1.245  0.2496 -0.1392 -0.3896
20960W        W37434   3.287  16.358   4.500  0.0508 -0.1092  0.1098
20961W        W37435   1.146   7.902  10.166 -0.0588 -0.0823  0.1481
20962W        W37436  10.830  19.277   3.863  0.4073 -0.1151 -0.1203
20963W        W37437  15.174  14.876   0.095 -0.3649 -0.0511  0.1366
20964W        W37438  19.457   4.521  14.370 -0.0503  0.3198  0.1775
20965W        W37439   8.149   4.341   3.764  0.1510  0.1164  0.1608
20966W        W37440  10.640   8.611  12.664 -0.1189  0.2494  0.0098
20967W        W37441  13.547  19.268   0.507  0.0908 -0.1961  0.0588
20968W        W37442  13.264  12.102   1.186 -0.2594  0.0630  0.1170
20969W        W37443   5.547   9.989   1.391  0.2273 -0.0326  0.2948
20970W        W37444  15.473   4.077  10.718  0.0140  0.2663  0.3757
20971W        W37445  13.763   5.608  12.362 -0.3331 -0.2531  0.0909
20972W        W37446  14.433  13.355   3.773 -0.1442 -0.0862 -0.2730
20973W        W37447   1.655  13.720   1.869 -0.0881  0.0309 -0.0270
20974W        W37448   4.096   2.075  12.715 -0.2925  0.3561  0.1659
20975W        W37449  13.056   2.264  11.529 -0.3031  0.0478 -0.1481
20976W        W37450   0.962   6.114   0.693 -0.1464  0.1735  0.2024
20977W        W37451   7.213  13.897  14.219  0.0774 -0.2941  0.2369
20978W        W37452  11.680   2.433  11.957 -0.1512  0.2410  0.3346
20979W        W37453  10.951  15.703  10.892  0.1759 -0.1276 -0.1365
20980W        W37454   8.794   8.803   4.292  0.0716  0.0101 -0.1570
20981W        W37455  11.944   2.482   4.639 -0.0604 -0.0913 -0.0818
20982W        W37456  13.971  11.113   5.870  0.1502  0.1743 -0.0083
20983W        W37457  15.053  11.187  12.415 -0.2508 -0.0846  0.1075
20984W        W37458  10.339  10.103  12.443 -0.0242  0.0248 -0.1540
20985W        W37459  13.250  18.253   1.282  0.0805  0.5144 -0.2130
20986W        W37460  13.608  11.487  11.708 -0.1072  0.3958 -0.2257
20987W        W37461   6.176   2.458   0.959  0.0957 -0.2542 -0.1618
20988W        W37462   7.224   8.167  12.786  0.0525  0.0731 -0.1278
20989W        W37463  19.549   6.648   2.234  0.0957 -0.2287 -0.0587
20990W        W37464   6.196  18.033   4.216 -0.0111 -0.0796 -0.0062
20991W        W37465  18.425  19.394   0.701  0.2138 -0.1097  0.0280
20992W        W37466  13.961   5.978   2.601 -0.1774 -0.1146 -0.2911
20993W        W37467   5.841  18.782   4.469  0.3197 -0.2972 -0.0937
20994W        W37468   8.252  10.464   0.183 -0.2206  0.0509 -0.2257
20995W        W37469   6.869  15.825   3.135  0.3913  0.4323  0.1532
20996W        W37470   1.952  16.489  13.650 -0.0811 -0.1788 -0.1797
20997W        W37471   7.331  18.792   1.252 -0.1036 -0.2186  0.5408
20998W        W37472  18.183  16.213  13.537 -0.1660  0.2117  0.3019
20999W        W37473  17.990  12.405  10.826  0.0991  0.0075  0.2662
21000W        W37474   5.487   6.546   2.938 -0.0159  0.4555  0.0538
21001W        W37475   0.181   5.463   2.726 -0.0819  0.1100  0.2493
21002W        W37476   2.063  10.743   1.854 -0.0095 -0.0431  0.3731
21003W        W37477  14.191  10.147   0.592 -0.0144  0.0268 -0.0053
21004W        W37478  11.457  14.212   3.382  0.3294 -0.0174 -0.0416
21005W        W37479  15.732   1.527  11.413 -0.3172  0.1895 -0.0722
21006W        W37480   2.532  11.216  12.085 -0.0070  0.1808  0.2038
21007W        W37481   0.688  14.108  12.268 -0.1346  0.1144  0.2335
21008W        W37482   0.724  10.363   2.115 -0.0221 -0.4183 -0.2233
21009W        W37483   0.243   6.860   5.187 -0.1784 -0.1387 -0.2076
21010W        W37484   0.743   4.799  10.567  0.0075 -0.3269  0.0147
21011W        W37485   7.367  12.767   4.273  0.3699 -0.1749  0.0376
21012W        W37486  15.730   4.537  13.549  0.1822  0.1489  0.3233
21013W        W37487  11.232   6.212  12.098  0.0526 -0.0854 -0.2984
21014W        W37488  10.352  10.388  13.710  0.0439  0.3319 -0.2815
21015W        W37489   5.143  12.596   2.905 -0.1087 -0.5602  0.1644
21016W        W37490  17.669  10.748  14.224 -0.1081  0.1195 -0.0731
21017W        W37491   4.749  10.452   0.989 -0.0743  0.1514  0.1810
21018W        W37492   1.600   6.490   1.272 -0.1494 -0.2887  0.3148
21019W        W37493  14.686   5.325  10.939 -0.1562  0.1647 -0.0713
21020W        W37494  11.109   2.836  10.864  0.1884 -0.0053 -0.4074
21021W        W37495  11.907   1.251   0.872 -0.0797 -0.1931 -0.1025
21022W        W37496  16.622  16.575   4.120 -0.2119  0.1644 -0.0138
21023W        W37497  15.073  10.337  11.626  0.1091  0.4049 -0.1299
21024W        W37498   4.675  19.185   3.191 -0.1635  0.5227  0.0104
21025W        W37499  14.530   3.898   2.339  0.1895  0.0148  0.0136
21026W        W37500   2.445   0.964   4.096  0.1089  0.4033  0.1327
21027W        W37501   2.661   7.076  10.236  0.3730 -0.2462  0.2720
21028W        W37502   2.339  15.675  11.034 -0.2689 -0.0490  0.1767
21029W        W37503  17.065  19.431   4.634 -0.2853 -0.0898 -0.2550
21030W        W37504  15.330   7.026  13.439  0.0812 -0.0866 -0.1804
21031W        W37505  14.534  11.369  12.311  0.0446  0.1152  0.1655
21032W        W37506  14.138   4.705   3.428  0.3256 -0.1139 -0.0830
21033W        W37507   6.010   0.861   2.490  0.0287 -0.1438  0.0676
21034W        W37508   1.467   4.490   9.381 -0.1274  0.2352 -0.1163
21035W        W37509   3.481   6.786   2.267  0.0065  0.0247  0.1564
21036W        W37510   8.278  11.456   4.815 -0.0308 -0.0767 -0.0239
21037W        W37511  18.518  19.576   2.220 -0.1152 -0.0192 -0.0087
21038W        W37512  10.354   2.246  10.794  0.1521 -0.1516  0.3259
21039W        W37513  11.698  18.062  14.225 -0.4886  0.1050 -0.2883
21040W        W37514   6.976   9.469   3.762  0.2488 -0.1369  0.4316
21041W        W37515   8.915  10.997   2.630 -0.1847 -0.1947  0.2384
21042W        W37516   7.278  19.355  13.904  0.3371 -0.1618  0.2066
21043W        W37517  16.485  15.640   2.623 -0.3282  0.1789  0.4176
21044W        W37518  15.535   1.479  13.018  0.0639 -0.0563  0.1418
21045W        W37519  17.118  15.230   4.815 -0.1556 -0.3408 -0.1723
21046W        W37520  12.118  13.515   2.376  0.0338 -0.2292  0.1671
21047W        W37521  16.484   5.503   1.845 -0.1803 -0.2241 -0.0563
21048W        W37522   8.830  11.450  12.754  0.1727  0.0400 -0.2609
21049W        W37523   3.730  17.823   0.749  0.2564 -0.1104 -0.0381
21050W        W37524   1.422   9.382   1.198  0.0329  0.1826  0.1826
21051W        W37525   9.646  17.270  12.271 -0.1662 -0.1876 -0.1486
21052W        W37526  15.160  13.145   1.722  0.0848 -0.1021  0.2389
21053W        W37527  17.156  16.994   0.176 -0.0003  0.2217  0.0030
21054W        W37528   8.876   6.215  11.045 -0.1169 -0.2187  0.1819
21055W        W37529  10.701  14.154   2.671  0.1064 -0.0790 -0.0628
21056W        W37530  11.901  15.726   2.125  0.1942 -0.2626 -0.2570
21057W        W37531  15.160   3.372  13.468  0.2063 -0.1085  0.0351
21058W        W37532  19.256  13.209   3.753  0.2418 -0.0586 -0.0694
21059W        W37533  10.774   5.880  14.113 -0.3906 -0.1645 -0.1362
21060W        W37534  14.830  10.691   4.233 -0.0330 -0.0371  0.2647
21061W        W37535   1.807   7.716  12.124  0.3932 -0.2197 -0.1633
21062W        W37536  14.385   3.268   9.954  0.3126 -0.0230 -0.1578
21063W        W37537  13.811  17.586   5.380 -0.2420 -0.1243  0.0882
21064W        W37538   4.472  16.812   2.823 -0.1200 -0.0805 -0.2941
21065W        W37539   4.742   6.453  12.593 -0.1383 -0.0882 -0.0276
21066W        W37540  18.033  18.952  13.060  0.0022  0.0009 -0.0657
21067W        W37541  18.706  17.729   1.320 -0.1043 -0.0283 -0.2237
21068W        W37542  18.498   4.050   2.638  0.3655 -0.0463  0.0095
21069W        W37543  11.181  18.472  12.893 -0.1964  0.0066  0.1712
21070W        W37544   7.859  14.799  14.369 -0.2142 -0.0262 -0.2717
21071W        W37545   5.610   4.664   5.260 -0.4238  0.0490 -0.0204
21072W        W37546  12.483   4.347  13.212  0.2719 -0.0380 -0.0352
21073W        W37547  10.010   1.062  11.960 -0.0905  0.1162  0.0398
21074W        W37548  14.063  16.512   1.182  0.1564  0.0905 -0.1610
21075W        W37549  18.077  18.915   1.393 -0.2629 -0.1346 -0.0563
21076W        W37550  14.955   3.902   4.702  0.0602  0.1656  0.4388
21077W        W37551   5.043   4.853  11.348 -0.2393 -0.3040 -0.2501
21078W        W37552   1.148   3.703   9.914  0.2962  0.1829  0.1803
21079W        W37553  16.807  18.245   3.115  0.1943 -0.1711  0.1507
21080W        W37554   6.935   0.552  12.427 -0.0238  0.0339 -0.1573
21081W        W37555  13.571   1.293  13.423 -0.2074  0.0042 -0.2505
21082W        W37556   1.330   9.696  11.539  0.0892 -0.0829  0.0142
21083W        W37557  11.241   0.172   1.473 -0.1832 -0.4039 -0.0833
21084W        W37558  18.840  11.778  13.298 -0.4407 -0.1278 -0.0220
21085W        W37559   0.722  18.932  13.449 -0.2309  0.1214  0.3671
21086W        W37560  11.404  11.661   5.047 -0.0630 -0.0396  0.2402
21087W        W37561   2.871   6.567  12.614 -0.0171  0.0335 -0.0421
21088W        W37562   0.794   5.544   1.022  0.0742 -0.1217 -0.0930
21089W        W37563   1.637  10.823   4.182  0.4851 -0.0510 -0.1264
21090W        W37564   7.934  18.859   4.760 -0.3584 -0.0109 -0.0886
21091W        W37565   1.133   5.476  12.029  0.0893 -0.2679  0.1135
21092W        W37566   6.365   2.358   0.054 -0.2895 -0.1567 -0.1839
21093W        W37567  18.611  10.838  10.245 -0.1469  0.1022 -0.0477
21094W        W37568   5.784   0.095  11.218  0.1861  0.0566  0.0827
21095W        W37569   3.401   5.547  13.723 -0.1529  0.0015 -0.0383
21096W        W37570  15.874  16.776   9.684  0.0518 -0.1061 -0.0176
21097W        W37571  16.651   9.192  12.878  0.0641  0.0377 -0.1730
21098W        W37572   3.676   2.300  14.520  0.1345  0.2297 -0.1212
21099W        W37573   0.612   0.214  10.473 -0.6249 -0.1575 -0.0795
21100W        W37574  13.980   7.721  12.223  0.0887  0.0419  0.2774
21101W        W37575  13.370   8.504  14.451  0.0967 -0.3306 -0.1329
21102W        W37576   3.875  12.126  14.222  0.0675 -0.3421  0.2786
21103W        W37577  14.588  19.482   2.759 -0.0169 -0.1911  0.0410
21104W        W37578   1.367   7.523  14.150  0.0896  0.0993 -0.2706
21105W        W37579   7.437   9.088  11.820 -0.0004 -0.0698 -0.0759
21106W        W37580  17.412   3.647   0.765  0.0470 -0.2988  0.1031
21107W        W37581  13.992  11.324  14.333  0.1197 -0.0037  0.0992
21108W        W37582  12.624   2.179   1.545  0.2238 -0.3853 -0.3374
21109W        W37583   5.717  17.333   0.442 -0.2150  0.0194 -0.1155
21110W        W37584   5.542  10.255  13.978  0.0749  0.0107 -0.1853
21111W        W37585  14.278  12.729   0.268 -0.2904  0.3366  0.0409
21112W        W37586   3.209  18.337  14.540 -0.2772  0.2682 -0.3585
21113W        W37587   6.954   4.108   5.362  0.1139  0.0110 -0.0006
21114W        W37588   9.033   9.854   0.875  0.0212  0.2463 -0.1385
21115W        W37589   7.486   7.542   4.545  0.0531 -0.2848 -0.5123
21116W        W37590  13.419   7.125  11.135 -0.3221  0.2700  0.1467
21117W        W37591  11.071   1.261  12.161  0.1810  0.0994  0.0064
21118W        W37592  12.421   2.225  13.756  0.4318  0.2269 -0.2196
21119W        W37593  15.690   9.836   9.946 -0.1598  0.2747 -0.0048
21120W        W37594  12.885  14.777   3.613  0.0369  0.2421 -0.2720
21121W        W37595  15.454   0.541  10.981 -0.3786 -0.1745  0.2318
21122W        W37596   1.156  16.511   0.586 -0.0499 -0.0351 -0.1534
21123W        W37597  15.413  16.207   5.564 -0.0804  0.0416  0.4417
21124W        W37598  19.287   3.067   4.279  0.1332 -0.2394 -0.0930
21125W        W37599   4.045  11.540   1.382 -0.1623  0.0300  0.3022
21126W        W37600   1.344  17.231   3.215 -0.0821 -0.0170 -0.0138
21127W        W37601   4.478   2.814  13.329 -0.1652  0.0441 -0.0931
21128W        W37602  15.249  11.737   0.652 -0.0377  0.3882 -0.0827
21129W        W37603  13.292  12.925   3.542 -0.5669  0.3031 -0.0123
21130W        W37604   7.346   5.646  12.804  0.2395 -0.3852 -0.0584
21131W        W37605   8.120  15.306   3.099 -0.2420  0.0148  0.3266
21132W        W37606   2.650   0.962  12.976 -0.0147  0.0893 -0.1533
21133W        W37607   3.876   7.188  14.286  0.1575  0.0946 -0.2010
21134W        W37608  12.627  11.896  12.514  0.0132 -0.0701  0.2982
21135W        W37609   5.643  11.818  12.017  0.1897  0.1791  0.1345
21136W        W37610   6.953  17.065   1.652 -0.3603  0.1762 -0.1211
21137W        W37611  17.883   5.547  14.194  0.5058 -0.0080 -0.0504
21138W        W37612   0.726  12.610  13.276 -0.0233 -0.0350 -0.2156
21139W        W37613   7.206   5.329   0.483 -0.0058  0.2414 -0.4045
21140W        W37614  16.295  19.362   1.774  0.0445  0.1189 -0.0715
21141W        W37615   7.142  13.091  13.476 -0.0843 -0.0692  0.0896
21142W        W37616  15.249   0.976  10.823  0.1714 -0.3554 -0.0911
21143W        W37617   9.815  18.394   3.710  0.2373  0.1333  0.2751
21144W        W37618  10.142  17.574  13.614 -0.0338  0.2476  0.2239
21145W        W37619  17.375   8.719   3.662  0.0958  0.0086 -0.5153
21146W        W37620  11.444  13.037  11.746 -0.0497  0.0737  0.2643
21147W        W37621  11.730  12.722   1.288  0.2586 -0.0960 -0.2084
21148W        W37622  13.081  13.420  11.377 -0.1105  0.0901  0.0426
21149W        W37623  16.822  13.630  14.196  0.2193 -0.2491  0.1914
21150W        W37624  15.276  15.469  12.632  0.1058 -0.2264  0.0899
21151W        W37625   8.661  13.066  11.263 -0.2599 -0.2713 -0.1290
21152W        W37626  17.503   7.723   2.162 -0.0630 -0.2931  0.1161
21153W        W37627  17.384   8.462   1.278 -0.1091  0.0997  0.1340
21154W        W37628   6.048  17.997  13.492 -0.0222 -0.1144 -0.2267
21155W        W37629  12.670  10.544   4.895 -0.0991  0.4051 -0.0962
21156W        W37630   8.617   0.753   1.163  0.0341  0.2887 -0.1412
21157W        W37631  18.758   6.620   1.802 -0.2293  0.1275 -0.1365
21158W        W37632  11.471  14.806   1.366  0.2546 -0.1178 -0.0408
21159W        W37633   5.769  11.428  10.861 -0.0016  0.1062  0.1734
21160W        W37634   0.845  15.523  12.243 -0.1347 -0.3771  0.0608
21161W        W37635   6.498  12.413   3.932 -0.0475  0.0924  0.0465
21162W        W37636  17.479   5.788   3.811  0.2990 -0.0937  0.1082
21163W        W37637  12.854   8.553  13.237 -0.1644  0.5021 -0.2080
21164W        W37638  18.935  11.886   0.320  0.1973  0.0868 -0.0319
21165W        W37639  16.383  12.689   5.542  0.1805  0.1900  0.3737
21166W        W37640   0.847   8.011  11.066  0.1931 -0.0791  0.0714
21167W        W37641   6.804  14.828  10.991  0.3115  0.0034  0.1442
21168W        W37642  10.290   9.633  11.785 -0.0054  0.1277  0.3938
21169W        W37643   2.347  13.477  10.397 -0.0672  0.0116  0.2960
21170W        W37644  13.564  17.036   2.875 -0.2356 -0.1779  0.1144
21171W        W37645  15.460  14.612   0.421 -0.1767 -0.3031  0.0834
21172W        W37646  17.731   9.854   2.185 -0.0764 -0.2155 -0.3167
21173W        W37647  16.113   6.287  14.529  0.3748 -0.0264  0.1801
21174W        W37648   0.094  13.807   1.256 -0.3152 -0.0896 -0.1681
21175W        W37649  10.785   8.838   1.217 -0.0337  0.2355 -0.0513
21176W        W37650  14.866   9.171   3.443 -0.2004  0.0450  0.1576
21177W        W37651  16.413  10.321   0.346  0.2913  0.2439 -0.1124
21178W        W37652   9.983   9.226  11.655 -0.0944  0.4706  0.1397
21179W        W37653  10.857   9.978   3.120  0.0256 -0.2148 -0.1299
21180W        W37654   2.035  11.011   3.057 -0.0227  0.1703 -0.1047
21181W        W37655  18.614   5.130  12.492 -0.0335  0.0521  0.0103
21182W        W37656  16.453   0.605  12.225 -0.1283 -0.3257  0.0692
21183W        W37657  13.517  16.141  14.498 -0.2471  0.0086  0.2832
21184W        W37658  12.482  16.931  13.999 -0.1402 -0.3723 -0.1885
21185W        W37659  18.881   2.325   2.673 -0.0598  0.0188  0.1278
21186W        W37660   7.556   7.250  12.031 -0.3879  0.1475 -0.0218
21187W        W37661  17.458  12.097  11.066  0.0360 -0.0995 -0.0778
21188W        W37662   6.778  17.495   4.672 -0.0715 -0.0953  0.0130
21189W        W37663  14.514  11.437   0.893  0.0185  0.1011  0.0734
21190W        W37664  14.118  10.854  13.404 -0.1772 -0.4072 -0.0064
21191W        W37665   0.281   8.179  13.952  0.0403 -0.0562 -0.1395
21192W        W37666   8.958   3.355  13.871 -0.0595  0.3386 -0.0409
21193W        W37667   5.920   1.177   1.619 -0.4937  0.1277  0.1134
21194W        W37668  14.608   9.921   3.088  0.2661  0.0820 -0.2178
21195W        W37669   7.432   5.826   4.061  0.1011 -0.0535 -0.0673
21196W        W37670  14.307  17.337   0.511  0.1632 -0.2089  0.1046
21197W        W37671  17.643  15.098   4.042  0.0237  0.3012 -0.1594
21198W        W37672   1.718  13.451   3.632 -0.0744 -0.1350  0.0694
21199W        W37673  14.685   9.079  12.359 -0.5586 -0.1490 -0.0145
21200W        W37674   0.140  18.103  13.164  0.1696  0.1825  0.0986
21201W        W37675  14.716  15.179  13.129  0.0807  0.0240 -0.0166
21202W        W37676  13.665  11.713  11.281  0.0343 -0.3352  0.1203
21203W        W37677   5.825  13.463  12.852 -0.0205  0.3638  0.0891
21204W        W37678   3.360   5.324   1.370 -0.0647 -0.0865  0.1366
21205W        W37679  16.304   3.169  12.478  0.4763 -0.0841  0.2069
21206W        W37680  18.369   2.521  10.417  0.0842  0.2061  0.2223
21207W        W37681   2.719  18.383  14.539 -0.2013 -0.0311  0.0091
21208W        W37682  10.651  16.523  11.257 -0.0806 -0.0141  0.1924
21209W        W37683   5.487  12.987   0.810  0.2916  0.1035 -0.3657
21210W        W37684  17.737   4.162   0.672  0.0781 -0.2447 -0.2675
21211W        W37685  14.712  17.457   0.149  0.0635  0.1988 -0.0560
21212W        W37686  12.833  16.714   9.906  0.2924 -0.0536  0.0426
21213W        W37687   8.540  11.672   0.880 -0.1534  0.2983  0.2143
21214W        W37688  13.551  15.929  12.638  0.1038 -0.0206 -0.2578
21215W        W37689  13.459   5.261   3.115  0.0719 -0.0399  0.2066
21216W        W37690   3.113  16.278  12.273  0.0599  0.3886 -0.0785
21217W        W37691  12.261   1.422   0.632  0.1922 -0.1054 -0.1023
21218W        W37692  17.394  17.298  12.314  0.0619  0.1926 -0.1198
21219W        W37693   3.374  16.468   0.057 -0.2660 -0.2022 -0.0838
21220W        W37694  13.075  17.855   2.288 -0.1258 -0.1797  0.0250
21221W        W37695   9.337  17.990  14.439  0.0716  0.1852 -0.0531
21222W        W37696  10.222   6.333   0.625  0.1402 -0.1416  0.0532
21223W        W37697   6.501   8.248   2.111 -0.3091 -0.1691  0.0462
21224W        W37698   7.624  12.329  12.173 -0.0923  0.0485  0.2090
21225W        W37699  12.725  12.231   4.332  0.0711 -0.3608  0.1028
21226W        W37700   3.263  11.499   3.524  0.3315 -0.0671  0.1173
21227W        W37701   2.092   8.353   9.667 -0.1138  0.0513 -0.1551
21228W        W37702  18.114  13.835   4.056 -0.2586  0.2092  0.0221
21229W        W37703   2.039   9.098   2.582 -0.3516 -0.0249 -0.0403
21230W        W37704  15.274  14.844  13.576  0.0831  0.2947 -0.0622
21231W        W37705   1.517   1.682   0.607  0.1532  0.5172  0.0853
21232W        W37706  13.890   9.444  10.756  0.0237 -0.0347 -0.0744
21233W        W37707  17.989  13.819   0.708 -0.0335 -0.2404 -0.2925
21234W        W37708  11.220   1.855   4.197 -0.0833  0.1850 -0.3776
21235W        W37709   9.036  18.097  13.918  0.2034  0.0880  0.1310
21236W        W37710  13.766   4.128   1.269  0.1178  0.3725 -0.1950
21237W        W37711  15.114   6.372  12.261  0.1281  0.2698  0.3036
21238W        W37712   6.766  12.389  11.822 -0.2554  0.3351  0.0216
21239W        W37713   7.425  17.406  11.507  0.2753 -0.1982 -0.0210
21240W        W37714  15.228  12.905  14.361 -0.2543 -0.2441  0.2399
21241W        W37715  11.606   0.556   0.560 -0.1284  0.3034  0.1197
21242W        W37716   5.572   3.902   2.642  0.0407 -0.0168  0.0621
21243W        W37717   2.903  18.341  13.088 -0.2856 -0.2989 -0.0772
21244W        W37718   5.483  15.789  12.253 -0.0765  0.2767  0.2294
21245W        W37719  12.600  17.211  10.308  0.0150 -0.0944  0.1964
21246W        W37720   3.239   7.117   0.940  0.0636  0.1844  0.2435
21247W        W37721  17.351  12.820   2.709 -0.3088  0.0390  0.3451
21248W        W37722   6.153  12.774   3.462 -0.0919 -0.0502 -0.2294
21249W        W37723  15.252  11.248  13.610 -0.0318 -0.0454 -0.1126
21250W        W37724   7.877  19.492   2.863 -0.0088 -0.2350  0.1018
21251W        W37725   9.602  14.077  10.825 -0.1181  0.0369  0.4291
21252W        W37726   2.137  19.466  13.956 -0.4632 -0.0984  0.1703
21253W        W37727   8.777   5.796  13.793  0.0361  0.0946  0.3638
21254W        W37728   2.000   1.824   2.313 -0.3410  0.1548 -0.0005
21255W        W37729   2.427  11.989   4.051 -0.2189 -0.0506  0.0770
21256W        W37730  18.188  16.266  12.284 -0.2065 -0.1042  0.0686
21257W        W37731  14.258  18.595   1.349 -0.0924  0.1415  0.1092
21258W        W37732  17.687   1.536  13.781  0.2700  0.0580  0.0900
21259W        W37733  11.521  11.849  10.263  0.0515  0.0167 -0.2368
21260W        W37734   5.087  14.007   0.217 -0.2497  0.2441  0.0499
21261W        W37735  13.521  14.540   4.327  0.2840  0.1498  0.0573
21262W        W37736  19.246   2.277  11.621 -0.0564 -0.0499  0.3349
21263W        W37737  13.562  17.257  13.083  0.0068  0.0292  0.1834
21264W        W37738  17.154  15.006  13.256 -0.0340 -0.1143 -0.2164
21265W        W37739  13.967  16.568  13.305 -0.3184  0.1647  0.2886
21266W        W37740  17.670  10.060   3.586  0.1513  0.0236 -0.1534
21267W        W37741   1.386   9.908   0.955 -0.5112  0.4660 -0.1632
21268W        W37742  12.914   1.346  12.629  0.0861  0.0254  0.1039
21269W        W37743  18.085  15.013  13.844 -0.2737 -0.3400  0.0185
21270W        W37744   3.385   9.452   3.244  0.1554  0.1544  0.0024
21271W        W37745  12.444   8.446  14.432  0.4224  0.4164 -0.0126
21272W        W37746  11.112   8.012  11.322  0.0401  0.0632 -0.2244
21273W        W37747  17.293   1.954   0.392 -0.0203  0.1399  0.1162
21274W        W37748  17.599   9.985  11.878  0.0852 -0.0307  0.0120
21275W        W37749  16.972  17.227   3.340 -0.1579  0.3144 -0.1947
21276W        W37750   2.449  14.843   0.160  0.2730  0.0253  0.0686
21277W        W37751   6.446   0.511   5.010 -0.1849 -0.1580  0.0161
21278W        W37752  10.467  10.958  14.063  0.3016  0.1539  0.1094
21279W        W37753  17.071   5.252   3.117 -0.1784 -0.1947  0.1770
21280W        W37754   2.391   0.688  13.411 -0.0302 -0.1281  0.0769
21281W        W37755   1.990  17.763   1.369 -0.1302  0.1312  0.0016
21282W        W37756   7.600  14.567  13.991 -0.1130  0.3036 -0.2290
21283W        W37757   8.290  10.365   1.969 -0.0910 -0.1707 -0.1167
21284W        W37758   7.634   7.087   0.415  0.0652 -0.2205 -0.0141
21285W        W37759  12.337   7.021  13.736 -0.1060  0.0880 -0.0252
21286W        W37760  16.757  14.332   0.163  0.1814  0.0112  0.1963
21287W        W37761  12.183  11.245   4.011 -0.0633  0.3753 -0.1726
21288W        W37762   6.148   2.238   1.389 -0.2490 -0.2567  0.1933
21289W        W37763  13.146   0.758   1.884  0.0248 -0.1488 -0.0133
21290W        W37764  12.107  17.153   0.242  0.1196  0.2407 -0.2050
21291W        W37765   1.697  18.634   0.247 -0.0684  0.1588  0.1533
21292W        W37766  12.618  10.831   0.818 -0.2379  0.1531 -0.0831
21293W        W37767   4.310  13.990  12.023  0.0150  0.1456  0.0986
21294W        W37768  10.424  10.574   4.277 -0.0251  0.4476  0.0163
21295W        W37769  18.025  11.915   1.587 -0.0182 -0.0289  0.1445
21296W        W37770   9.193   7.490   2.710 -0.0074 -0.1559  0.0523
21297W        W37771   6.559   9.078  14.225  0.0998 -0.0312 -0.2378
21298W        W37772   3.469  15.557  10.987 -0.1264  0.1492  0.2348
21299W        W37773   0.167  16.217   4.217  0.2110  0.0783  0.2847
21300W        W37774   5.700   0.071   3.170 -0.3042  0.1117 -0.0926
21301W        W37775  12.698   3.719  10.884 -0.1641 -0.0929 -0.0579
21302W        W37776   7.821  17.994   3.734 -0.3084  0.1854 -0.0692
21303W        W37777   0.742   2.158   1.807  0.1820 -0.2175  0.1138
21304W        W37778   0.470  15.676  12.667 -0.0177  0.0681 -0.1437
21305W        W37779   2.228  19.291  11.279 -0.2156  0.0208 -0.0992
21306W        W37780   3.464   3.137  13.489  0.0915  0.2930  0.0664
21307W        W37781   4.567  17.338   0.394  0.2796  0.1357 -0.0789
21308W        W37782  11.706  10.032  10.329  0.1862 -0.1690  0.0178
21309W        W37783   1.134   9.812  12.918 -0.0240 -0.1382  0.2072
21310W        W37784  18.609   7.499  13.972 -0.0031 -0.3123  0.2069
21311W        W37785   6.056   9.284   3.572 -0.4795 -0.0904  0.0024
21312W        W37786   5.074   4.170   1.978  0.5088 -0.2749  0.0237
21313W        W37787   3.801  16.286   4.135 -0.0931 -0.1034  0.0331
21314W        W37788   6.322  13.914  11.964  0.2619 -0.2610  0.0320
21315W        W37789   7.464   2.315  12.212  0.0690 -0.0892 -0.0838
21316W        W37790   9.289   1.024   4.881  0.0383 -0.0176 -0.1620
21317W        W37791   8.023  18.329   1.504  0.4501  0.1701  0.0780
21318W        W37792   5.758   9.682  12.892  0.1670 -0.1444  0.1357
21319W        W37793   9.091  10.088   4.326  0.2305 -0.1772 -0.1800
21320W        W37794  13.911  17.617  10.511  0.0144 -0.2105  0.1657
21321W        W37795   6.571   4.159   1.109  0.2038 -0.5310 -0.3287
21322W        W37796  16.570  10.595   3.477  0.0303 -0.2548  0.1720
21323W        W37797  13.207  18.066  10.992 -0.1132  0.1345 -0.2629
21324W        W37798  15.160  18.572  14.121 -0.3267 -0.2679 -0.3947
21325W        W37799   0.561  12.473  10.315  0.2054  0.3985 -0.1935
21326W        W37800   0.890  17.207   0.637 -0.2882  0.0585  0.0146
21327W        W37801   2.071  14.453  10.703 -0.0587  0.1002  0.0601
21328W        W37802   2.526  11.676   1.729 -0.1744  0.2686  0.1309
21329W        W37803  16.683  16.836  14.462  0.1585  0.1427 -0.0643
21330W        W37804   1.542  10.921   2.486 -0.0293 -0.0964  0.3396
21331W        W37805  14.983   2.128  11.324 -0.1602  0.0448  0.0787
21332W        W37806  16.822  11.246   0.548  0.3344  0.1244 -0.1356
21333W        W37807   6.335  10.247   4.076  0.1977 -0.1766  0.0434
21334W        W37808  16.116  12.868  13.877  0.0122  0.6334 -0.0264
21335W        W37809   9.435  17.444   1.772  0.2559  0.2291  0.0104
21336W        W37810   7.394  11.406  10.256 -0.0528 -0.0960 -0.0147
21337W        W37811   7.677   0.685   0.671 -0.2987 -0.2514 -0.0103
21338W        W37812   1.242  13.395  14.251 -0.0033 -0.0430  0.1400
21339W        W37813  10.977   7.181   1.304 -0.2968  0.2998  0.1751
21340W        W37814   7.266   0.259  11.176 -0.0428 -0.0503 -0.1119
21341W        W37815   7.019  13.674   1.430  0.2867  0.2010  0.0613
21342W        W37816  12.984  15.231  11.594  0.1510 -0.1399 -0.0391
21343W        W37817  10.652   0.586  13.289  0.0288  0.0798  0.0157
21344W        W37818   5.062   1.897  14.273  0.1700  0.1973  0.1538
21345W        W37819  18.819  13.492  12.009  0.0913 -0.2182  0.1759
21346W        W37820   2.329   2.859   1.974 -0.0585 -0.0636 -0.0201
21347W        W37821  12.721  18.465   3.884 -0.1223  0.1100 -0.0353
21348W        W37822   4.403   2.142   4.480 -0.0428  0.0241 -0.2450
21349W        W37823  14.963  13.188  11.091 -0.1000 -0.0233 -0.0676
21350W        W37824   3.351  17.563   1.383 -0.1255  0.1233 -0.4251
21351W        W37825  10.974  12.041  10.328  0.1591 -0.0192 -0.1058
21352W        W37826   9.414   4.569   3.576 -0.1598  0.2350  0.0867
21353W        W37827  19.265  16.540   3.346  0.0308 -0.0039 -0.0257
21354W        W37828  10.125   0.207   4.149 -0.2732 -0.2182  0.0855
21355W        W37829  15.544  10.217  10.959  0.2193 -0.0281 -0.2993
21356W        W37830  10.407  14.090  11.936 -0.0141 -0.2249  0.1735
21357W        W37831  14.950   2.828   2.329  0.3083 -0.0015  0.0332
21358W        W37832  13.621   5.603   2.522  0.3906  0.0697  0.2053
21359W        W37833  17.985   6.790   4.632  0.4169  0.2615  0.0950
21360W        W37834  17.746   7.984  12.982  0.3519  0.3125 -0.0369
21361W        W37835   4.890   9.613  12.746 -0.1539  0.0784  0.0290
21362W        W37836   9.987   2.612   0.270  0.0369 -0.2510 -0.1890
21363W        W37837   8.094   2.701   1.335 -0.1377 -0.1852 -0.0904
21364W        W37838   1.301   9.609  10.953  0.1689 -0.0619  0.0855
21365W        W37839  17.332  14.708   4.128  0.0522 -0.2759 -0.1338
21366W        W37840   8.383   6.120   0.327 -0.0019 -0.2281 -0.1040
21367W        W37841   8.598  16.961   0.732 -0.2209 -0.1091 -0.3730
21368W        W37842  18.523  14.137   3.384 -0.0403 -0.3343 -0.0526
21369W        W37843   3.315  14.067   0.764  0.0695 -0.0022  0.0762
21370W        W37844   7.841  14.440   3.100  0.0872 -0.1866 -0.2849
21371W        W37845   0.836  15.289  13.909  0.3993  0.1042 -0.0242
21372W        W37846   5.551  11.991   0.360 -0.3145  0.1037 -0.0662
21373W        W37847   6.284   3.264   0.912 -0.1623  0.2213 -0.2804
21374W        W37848  10.584  11.559   4.440 -0.1001  0.1689 -0.2020
21375W        W37849   7.919  12.948   0.247 -0.1422 -0.1248  0.1223
21376W        W37850   2.138   1.803   0.031  0.3357 -0.4667 -0.0543
21377W        W37851  10.127   5.650   1.355 -0.2550 -0.1608  0.0567
21378W        W37852   4.375   0.661  10.984 -0.2069 -0.0206 -0.3659
21379W        W37853   0.005   8.213   1.683  0.1932  0.2130 -0.0989
21380W        W37854  18.029  17.516  12.137 -0.2281  0.2647 -0.0045
21381W        W37855  16.608  13.985   4.511  0.4330  0.0223 -0.0285
21382W        W37856  17.631   9.761   4.280  0.0334 -0.2061  0.0197
21383W        W37857   8.078  10.158  11.326 -0.0310  0.0060  0.0838
21384W        W37858   6.101  16.202   4.451 -0.0143  0.3389  0.0908
21385W        W37859   8.654   1.353  11.267 -0.1718 -0.3552 -0.0238
21386W        W37860  16.275   3.489   3.656  0.0877  0.0869  0.1685
21387W        W37861   0.862  15.966  12.549 -0.0198  0.0047 -0.3530
21388W        W37862  15.381  16.710  14.587  0.2213 -0.2078  0.2604
21389W        W37863   5.444  16.633  14.149 -0.0595 -0.2446 -0.1732
21390W        W37864   6.323   2.709   4.376 -0.0611 -0.0697 -0.0469
21391W        W37865  17.407   4.402  14.325  0.2136 -0.2817  0.2965
21392W        W37866   3.746   4.338  11.163  0.2624  0.0307 -0.1390
21393W        W37867   3.125  10.393   3.263  0.0234  0.2213  0.0903
21394W        W37868   7.808  10.016   3.952 -0.0788  0.2476 -0.0238
21395W        W37869  16.605   4.222  14.551 -0.2509 -0.2678  0.2655
21396W        W37870   1.051  16.818  11.175 -0.1739 -0.1089  0.1323
21397W        W37871   8.114   0.609   4.472  0.1758 -0.1779  0.0219
21398W        W37872   6.400  17.001   0.898 -0.3865 -0.0123  0.2803
21399W        W37873  18.802  14.122  11.499  0.0356  0.0823 -0.1209
21400W        W37874   7.682   9.297  10.518 -0.2048  0.0311  0.0202
21401W        W37875   9.971  14.249  12.795  0.1051  0.1082  0.1325
21402W        W37876  11.929  14.598  11.508 -0.1354  0.2190 -0.3354
21403W        W37877  16.754   2.245  12.549 -0.0222  0.1107  0.0763
21404W        W37878  19.300  10.607   2.075 -0.0192  0.0315  0.0190
21405W        W37879   0.983   7.028   0.740  0.0417 -0.0722  0.3151
21406W        W37880   9.694  15.978  14.214  0.0362  0.1192  0.1769
21407W        W37881   7.431   0.342  13.927  0.0276 -0.0532  0.1742
21408W        W37882   2.604  10.687   1.743  0.1756 -0.0421 -0.3805
21409W        W37883   4.720  12.181  14.296  0.0447  0.0533  0.6237
21410W        W37884  11.324  10.176   0.969  0.4135 -0.0462  0.2184
21411W        W37885  17.428   7.489   3.092  0.2068 -0.0946 -0.0342
21412W        W37886   3.142   9.643   1.511 -0.4267 -0.0433 -0.1060
21413W        W37887  16.895   9.301  13.315  0.0928  0.0826 -0.1639
21414W        W37888   9.178   9.417   5.037  0.0736  0.0839 -0.2411
21415W        W37889  14.768   8.800  13.001  0.0218  0.2512  0.0275
21416W        W37890   6.104  13.765  11.517  0.2769 -0.0278  0.2136
21417W        W37891  11.004   3.014   5.013  0.0470 -0.3377 -0.2989
21418W        W37892   0.609  13.945   0.393 -0.0744  0.1596 -0.0452
21419W        W37893  14.516   6.556  14.199  0.0139  0.1033 -0.0879
21420W        W37894  18.581   7.837   4.444 -0.3022 -0.0296  0.0376
21421W        W37895  11.734   0.228  12.460 -0.0843 -0.0020  0.0904
21422W        W37896  10.151   7.794   4.020 -0.0098  0.2553 -0.1380
21423W        W37897  11.066  12.802  13.120 -0.1774 -0.0678  0.3451
21424W        W37898  14.037   2.026  11.835  0.1934 -0.2345  0.7297
21425W        W37899  15.771  10.838   2.795  0.3330  0.0387  0.4698
21426W        W37900   2.463   0.026   2.843  0.2255 -0.0335  0.0254
21427W        W37901  10.270  14.853   1.151 -0.1942 -0.1283 -0.0099
21428W        W37902  11.858  10.984  11.147  0.2643  0.2360  0.2748
21429W        W37903  18.277   9.583  13.784 -0.1533 -0.1743 -0.0035
21430W        W37904   0.616  18.000   0.844 -0.2346  0.3448 -0.0184
21431W        W37905   1.430   8.752  10.680  0.0020  0.0626  0.2940
21432W        W37906  12.160  17.778   4.571 -0.0131  0.1927  0.1736
21433W        W37907  19.578  13.074   0.170  0.4163  0.1521 -0.0648
21434W        W37908  17.971  10.185  13.218  0.0728  0.0623 -0.1099
21435W        W37909  14.814   8.769  11.841 -0.0595 -0.0699 -0.0251
21436W        W37910  10.074   2.559  11.552  0.1145  0.2312 -0.1716
21437W        W37911   7.231  19.288  10.395 -0.0007 -0.0307 -0.2355
21438W        W37912  16.870   3.373  12.137  0.1404  0.0535 -0.1467
21439W        W37913   6.420   5.602  10.130 -0.0461  0.0431  0.1287
21440W        W37914  12.332   9.457   2.666  0.1094  0.0363 -0.2695
21441W        W37915   1.789   6.925   1.082  0.0419 -0.0717 -0.2268
21442W        W37916   9.263   6.129   1.639 -0.1804  0.0640  0.2150
21443W        W37917   6.123   0.206   2.949 -0.0530 -0.1410  0.1031
21444W        W37918  14.336  15.706   2.889 -0.0638 -0.0919  0.2192
21445W        W37919  10.484  15.517   2.809 -0.1266  0.1481  0.1846
21446W        W37920   3.807   8.320   3.796  0.2801 -0.0234  0.3500
21447W        W37921  16.817   6.769   1.937  0.1952  0.1312  0.0375
21448W        W37922  12.266  18.679  10.469 -0.1094  0.1570 -0.2516
21449W        W37923   8.888   5.141  10.903  0.0743 -0.1559 -0.3896
21450W        W37924  16.013   5.131   4.791 -0.3994 -0.0154 -0.1141
21451W        W37925  12.596   4.175  11.393  0.0235  0.1790  0.0264
21452W        W37926   7.225   4.786   4.076 -0.1048 -0.1105 -0.0421
21453W        W37927   7.686  10.467   2.243 -0.1984 -0.0926 -0.0961
21454W        W37928   9.156  14.388  12.379  0.0486  0.3091  0.0021
21455W        W37929  17.909   1.481   4.534 -0.0528  0.0581  0.2862
21456W        W37930   7.887   8.693   9.585 -0.0279 -0.1959  0.0888
21457W        W37931   3.111  10.470  12.628  0.0638 -0.0939  0.1221
21458W        W37932  15.150  14.563  11.348  0.0849  0.0480  0.2334
21459W        W37933  15.760   5.326   3.626 -0.2406 -0.0576 -0.0104
21460W        W37934   6.512   8.263  10.130 -0.2859 -0.1821 -0.0811
21461W        W37935  17.991   7.457  10.239  0.0480 -0.1781  0.3843
21462W        W37936   0.960   5.350   2.409  0.1446 -0.0746  0.0219
21463W        W37937   3.471  18.744  10.439 -0.2547 -0.1292  0.0807
21464W        W37938   0.296   3.742   3.445  0.2493  0.3510  0.0671
21465W        W37939  17.136  16.855  12.774 -0.1213  0.0821  0.3105
21466W        W37940  13.773   4.884  10.947  0.2026  0.1747  0.0461
21467W        W37941  18.901   0.078  12.607  0.1117 -0.0518  0.1300
21468W        W37942   0.400  18.163   3.264 -0.1350  0.1773 -0.0271
21469W        W37943   6.002   6.676  13.517  0.1647  0.0963 -0.0407
21470W        W37944  17.673  12.909   1.387 -0.2800 -0.2498  0.2095
21471W        W37945  14.929  11.362   1.781 -0.1079  0.1301  0.0672
21472W        W37946  19.558   9.920   3.580  0.1238  0.4295 -0.1566
21473W        W37947  14.583   2.443  12.052 -0.0710  0.1883  0.1079
21474W        W37948  14.702   9.195   4.858 -0.0991 -0.2713 -0.1951
21475W        W37949   0.086  11.398   3.712 -0.0962 -0.0402  0.1472
21476W        W37950  14.296   3.827   2.801  0.1741  0.0516 -0.0204
21477W        W37951  10.154   2.211   3.472  0.2402 -0.2512 -0.1333
21478W        W37952   3.570   0.194   0.212  0.4586  0.0510  0.1974
21479W        W37953   1.596  11.216  11.273  0.1113  0.0463 -0.2003
21480W        W37954  17.343   9.379   2.136 -0.1741  0.0175 -0.2548
21481W        W37955  11.775  16.861  14.623 -0.0433  0.1085  0.1016
21482W        W37956  15.528   2.008  11.752  0.0415  0.2803 -0.3016
21483W        W37957  17.520  15.574   2.631 -0.0295  0.1405 -0.0966
21484W        W37958   8.773   6.870   3.513  0.1407 -0.2367 -0.0670
21485W        W37959  15.184   2.201  12.907 -0.0439 -0.1238  0.0586
21486W        W37960  14.890  13.770   1.581 -0.0725 -0.2109  0.2612
21487W        W37961  14.847   1.058  13.575  0.2256  0.0527 -0.0444
21488W        W37962  18.708   1.460   0.865 -0.1134  0.0546 -0.0785
21489W        W37963   6.987  10.014   9.225  0.0833 -0.2009 -0.2917
21490W        W37964  18.094  13.574   2.721  0.2398 -0.0960  0.1648
21491W        W37965  10.578   3.487   3.171  0.4174  0.2878 -0.0365
21492W        W37966   5.849  13.726   1.968 -0.0719 -0.1909  0.1633
21493W        W37967  12.838   8.001   0.535  0.2698 -0.1575 -0.0881
21494W        W37968   3.479  13.414   3.326  0.1559 -0.4433 -0.1089
21495W        W37969   0.595   6.340  11.686 -0.1300 -0.2340 -0.2953
21496W        W37970  17.657   8.370   3.389  0.0748 -0.1287  0.1404
21497W        W37971   6.905  12.578   1.754 -0.0379 -0.3482 -0.0484
21498W        W37972  13.560   3.025  14.458  0.2445 -0.4942  0.0802
21499W        W37973  15.499   0.760  14.154  0.1385 -0.1309  0.0192
21500W        W37974   8.626   5.484   0.706 -0.1917  0.3208 -0.0748
21501W        W37975   8.495  12.610  12.611  0.0900 -0.0134 -0.1807
21502W        W37976  19.612  12.328   0.998 -0.1034 -0.3808  0.0751
21503W        W37977  18.951   9.487  14.261  0.0400 -0.0010  0.1121
21504W        W37978  11.998  10.277  14.497 -0.1869 -0.1363 -0.2273
21505W        W37979   8.598   9.536   2.188 -0.2134 -0.0179 -0.3328
21506W        W37980  14.558   5.643  12.448  0.0813  0.2179 -0.1788
21507W        W37981   3.286   5.590   1.924  0.2481  0.5572 -0.2137
21508W        W37982   5.250   4.346  14.228 -0.0653  0.1829 -0.1960
21509W        W37983   8.940  13.763   2.560  0.1141  0.1388  0.1691
21510W        W37984  13.381  18.758   2.827  0.0390  0.2855  0.0150
21511W        W37985  18.431   1.573   9.996 -0.0782  0.0177 -0.2100
21512W        W37986  11.311  16.889  11.708  0.3285 -0.1042 -0.1327
21513W        W37987   5.041   8.209   2.254  0.0438  0.0873 -0.2202
21514W        W37988   3.185  12.671   1.872  0.1595  0.2284  0.0424
21515W        W37989  12.823   4.210   2.592  0.0582 -0.0269 -0.0663
21516W        W37990  14.532  19.164   3.883  0.1136  0.4071  0.1225
21517W        W37991  13.889   6.455   2.490  0.1253 -0.0992  0.4354
21518W        W37992   2.493  10.496  14.323  0.0029 -0.0557  0.0408
21519W        W37993  10.739  18.044   3.866  0.0373  0.1889 -0.0658
21520W        W37994   1.905  13.166   3.276  0.0546  0.0016  0.2740
21521W        W37995  14.271   6.656  10.178  0.2392  0.2353  0.3295
21522W        W37996   0.722  13.884  12.934  0.0538 -0.1762  0.2901
21523W        W37997  16.132  13.265  13.481 -0.0087  0.1091  0.1827
21524W        W37998   8.077  10.953  11.892  0.0144  0.2600 -0.6299
21525W        W37999   5.808  12.693  11.200  0.1762 -0.0833 -0.2543
21526W        W38000  13.301   2.529  12.732 -0.2930 -0.1755 -0.1685
21527W        W38001  17.700  11.794   2.024  0.3862 -0.4564 -0.3035
21528W        W38002   5.991  12.849   9.936 -0.1195 -0.1154  0.4018
21529W        W38003   6.637  13.829   4.680 -0.2232 -0.2377 -0.2518
21530W        W38004   3.785  13.388  14.028 -0.0664  0.1099 -0.0947
21531W        W38005   4.090   6.555   3.726  0.2319 -0.1244 -0.0601
21532W        W38006  14.118   7.937   5.119  0.1912 -0.0499 -0.0874
21533W        W38007  15.281   7.621   0.631  0.2960  0.0961  0.0171
21534W        W38008  14.414   4.061   1.289 -0.3011  0.1937 -0.0844
21535W        W38009  19.223  14.397   3.941 -0.0296 -0.1302  0.0088
21536W        W38010   2.024  14.636   1.590  0.1830 -0.1438  0.3705
21537W        W38011   1.154  10.789   2.127 -0.2289 -0.1277 -0.0543
21538W        W38012   5.989   8.910   0.584  0.2159  0.1114  0.1780
21539W        W38013   1.514  10.439  14.360 -0.2730  0.2047  0.6669
21540W        W38014   2.459  11.826   2.216  0.0913  0.1852 -0.0047
21541W        W38015   6.622  13.966   1.306 -0.1090  0.1651 -0.1861
21542W        W38016  12.755   3.639   2.465 -0.1115  0.1429  0.1200
21543W        W38017   4.164  16.670   3.677 -0.0166 -0.0833  0.2856
21544W        W38018   5.020  16.426  12.440  0.1564  0.0279 -0.3603
21545W        W38019   6.975  11.157  13.730  0.3081 -0.1704  0.2688
21546W        W38020  16.378  13.990   0.839 -0.2332  0.0778  0.1151
21547W        W38021  19.054  12.286   4.141  0.0365  0.2131 -0.1564
21548W        W38022  18.818  18.264   3.309  0.1844  0.1308  0.1353
21549W        W38023   1.035  16.257  11.602  0.0568  0.0530 -0.2398
21550W        W38024   6.237   5.562   3.113 -0.0166 -0.2217  0.1347
21551W        W38025  15.927   8.265  13.866 -0.0433 -0.0760 -0.2801
21552W        W38026   1.760   0.471  11.641  0.3057  0.1034 -0.1145
21553W        W38027  15.647   8.481   2.103  0.1393  0.0671  0.1410
21554W        W38028   9.118   5.006  14.149  0.0724 -0.2383  0.0765
21555W        W38029  18.543   4.282  10.952  0.1172 -0.2217 -0.1205
21556W        W38030   6.063   4.036   2.557  0.3305 -0.1789 -0.1045
21557W        W38031   4.299   0.951   9.020 -0.3194 -0.3720  0.1294
21558W        W38032   4.223   2.714   0.818 -0.2281 -0.0759 -0.5265
21559W        W38033  15.417  11.480   1.171  0.1748  0.5051 -0.0441
21560W        W38034  16.086  16.699  12.993  0.1690  0.1864  0.1862
21561W        W38035  18.280  16.313   2.323 -0.2755 -0.2902 -0.0587
21562W        W38036   9.738   3.987   2.231 -0.2461 -0.1824  0.2740
21563W        W38037   8.595  15.651  10.159  0.2939  0.2003 -0.2510
21564W        W38038  10.244   1.524  12.995 -0.0550  0.1185 -0.0821
21565W        W38039  16.284   2.192   1.627  0.1075  0.1284  0.1131
21566W        W38040  14.050  15.597  14.017 -0.2325  0.3860 -0.0395
21567W        W38041  18.422  11.421  11.967  0.0699 -0.0173  0.0438
21568W        W38042   6.921   6.844   1.254 -0.0796  0.0796  0.2288
21569W        W38043   5.340   4.606   1.749 -0.1475 -0.2125 -0.2402
21570W        W38044   4.232   2.936   5.073  0.0798  0.3025 -0.2688
21571W        W38045  18.120  16.282   2.829  0.1359 -0.0374  0.1054
21572W        W38046   8.526   0.002  14.354  0.1120  0.2895 -0.0007
21573W        W38047  11.718  11.941  13.776  0.0942 -0.0623 -0.0046
21574W        W38048  12.549  17.237   1.490 -0.3016  0.0680  0.0878
21575W        W38049   6.907   1.139   2.479 -0.2840  0.0320 -0.1148
21576W        W38050   0.340   2.140   3.579 -0.0598  0.0987 -0.0040
21577W        W38051   3.646   7.658   2.497 -0.1124 -0.0348 -0.2529
21578W        W38052  13.805   9.638   4.779  0.1181 -0.1754 -0.0653
21579W        W38053  11.650  10.540  12.558 -0.1027  0.0496  0.1067
21580W        W38054   4.466  11.963   1.401  0.0892  0.0578 -0.3014
21581W        W38055  13.040  10.472  12.613 -0.0185 -0.1219  0.0806
21582W        W38056   9.097   6.463   3.666  0.1829  0.3428 -0.1863
21583W        W38057   1.816   6.684   4.506  0.0177 -0.1321  0.1888
21584W        W38058  16.236   3.233   1.340 -0.0360 -0.1067 -0.0885
21585W        W38059   8.151   9.390   0.757  0.1211  0.0961  0.0410
21586W        W38060   3.027   0.432   0.542  0.0439 -0.2973  0.1899
21587W        W38061  12.440   8.656  12.935  0.0195  0.1842 -0.1492
21588W        W38062  13.517   9.751  14.019 -0.1851 -0.0460  0.2967
21589W        W38063   5.727   7.317   1.562 -0.1835 -0.0728  0.0539
21590W        W38064   7.895  11.011  10.314  0.1324  0.1920 -0.2249
21591W        W38065   3.563   4.515  13.659 -0.0866  0.3290 -0.0481
21592W        W38066  12.550   0.546   3.213 -0.0835 -0.2046  0.3137
21593W        W38067   5.985   0.130  12.469 -0.1830 -0.1386  0.0192
21594W        W38068  18.955  17.895  11.250 -0.0272  0.0125  0.1516
21595W        W38069   7.234   7.671  12.016  0.3049  0.0568 -0.0704
21596W        W38070  18.036  15.163  13.365 -0.2065  0.1433 -0.0504
21597W        W38071   6.077   6.056  12.911 -0.2980 -0.0611  0.2767
21598W        W38072  11.646  15.064   2.805  0.1198  0.3464 -0.1949
21599W        W38073   7.949   6.071   3.980 -0.1941 -0.2349  0.0473
21600W        W38074   5.160  13.090  13.835 -0.0227  0.2883  0.1351
21601W        W38075   5.941   3.450   1.642 -0.2445 -0.2637 -0.1190
21602W        W38076  15.181   0.145   3.818 -0.0336 -0.0417  0.1981
21603W        W38077   5.628   1.013   3.740 -0.1102 -0.0253  0.0274
21604W        W38078   1.349  13.806  10.699 -0.1973  0.0799 -0.3125
21605W        W38079  17.258   9.854   1.960  0.2584 -0.0701  0.0375
21606W        W38080   3.474   8.982  12.016 -0.0597 -0.3943 -0.1166
21607W        W38081  14.120  13.827  13.143 -0.3914 -0.1258 -0.2532
21608W        W38082   5.435   7.525  11.990  0.1401  0.0653  0.3831
21609W        W38083   7.440  10.940   0.862 -0.1439  0.2142 -0.2846
21610W        W38084   6.382  17.756  12.433  0.1237  0.0708 -0.3060
21611W        W38085  17.241  10.089   0.725 -0.1754  0.1108  0.1954
21612W        W38086   9.759  11.253   4.596 -0.1658  0.0402  0.1886
21613W        W38087   1.698   2.222   4.798 -0.2405 -0.2668 -0.0683
21614W        W38088  16.364   3.460  11.164 -0.0015  0.1460  0.0266
21615W        W38089   3.791  15.191  12.748 -0.2732  0.0120  0.0216
21616W        W38090  19.529   5.513  13.262  0.4059 -0.4417  0.2425
21617W        W38091  12.120  17.273   4.312 -0.2289  0.1387  0.2999
21618W        W38092   0.908   0.979   1.701  0.2174  0.2168 -0.2459
21619W        W38093   5.246   2.549   0.023 -0.1784 -0.1486  0.2937
21620W        W38094   9.638  12.348  13.521  0.1579  0.2099  0.2028
21621W        W38095   5.340   9.909  12.701  0.1698 -0.0925 -0.2118
21622W        W38096   0.543   0.838   0.844 -0.0023  0.0940 -0.1534
21623W        W38097   5.579  14.797   3.691 -0.1813  0.0317  0.2456
21624W        W38098   6.484   6.669   1.406 -0.0879 -0.0988  0.1847
21625W        W38099   7.978  19.332  13.581  0.2923  0.2723 -0.1194
21626W        W38100   8.348  15.016  12.633  0.0336 -0.0313  0.2886
21627W        W38101   5.913  19.389  10.881  0.0388 -0.0691 -0.2768
21628W        W38102   4.908  12.318   4.552  0.1428  0.1117  0.0029
21629W        W38103   0.200  11.722   1.341  0.1070  0.2779  0.3575
21630W        W38104   6.928   8.192   1.793 -0.0473  0.0155 -0.1394
21631W        W38105   7.796  10.246  11.909  0.1851 -0.0597 -0.0995
21632W        W38106  14.921  16.758   3.633 -0.0816 -0.0393  0.2716
21633W        W38107  10.065  16.114   3.859  0.2542 -0.3447 -0.2405
21634W        W38108   4.615  13.030  11.236  0.0277 -0.1146  0.2987
21635W        W38109  12.687  13.568   4.759  0.0157  0.1458  0.0642
21636W        W38110  11.185   3.187  12.837 -0.2477  0.3178 -0.0659
21637W        W38111  11.202   0.300   4.258  0.5196  0.1612 -0.1118
21638W        W38112  13.872   4.287  12.206 -0.0811 -0.0419  0.0693
21639W        W38113  14.035   7.424   0.360  0.1317  0.0133  0.2688
21640W        W38114  13.779   6.082   2.126 -0.0643  0.0891  0.2201
21641W        W38115   3.985   8.422  10.037  0.0824 -0.1814 -0.1130
21642W        W38116  12.048  16.843   4.063 -0.1226 -0.0062  0.1706
21643W        W38117   8.373   7.727  13.595  0.2580 -0.0455  0.0280
21644W        W38118  14.620  14.354   0.744  0.3072 -0.1142  0.3570
21645W        W38119  14.979   3.540  11.276 -0.0491 -0.0788 -0.3248
21646W        W38120   6.460   6.691   2.363 -0.2296  0.1374 -0.1696
21647W        W38121  10.329   0.306   1.084 -0.0293  0.1345  0.0205
21648W        W38122  12.155  13.718   0.693  0.1985 -0.1445 -0.3585
21649W        W38123  17.954  14.324  13.838  0.0280 -0.0976 -0.1417
21650W        W38124   5.083  17.337   4.053 -0.0222 -0.0109  0.1279
21651W        W38125  15.890   6.775  11.180 -0.1638 -0.4346 -0.0512
21652W        W38126   4.823  12.621   1.406 -0.0578  0.0146  0.0051
21653W        W38127  12.509  17.328   5.595  0.0731 -0.1462  0.2667
21654W        W38128   3.607   6.565  11.168 -0.0878 -0.0444 -0.1373
21655W        W38129  14.155   1.314  11.293  0.2129  0.2489 -0.3446
21656W        W38130   1.784  10.667   1.245  0.2866  0.1957  0.1452
21657W        W38131  14.009   3.615   0.053 -0.1983  0.1466  0.0427
21658W        W38132   6.259  16.102   0.715 -0.1174 -0.3234 -0.1293
21659W        W38133  11.447  14.118   2.240  0.2144  0.4486  0.1606
21660W        W38134   8.336  14.974  13.509 -0.1814  0.0354  0.1030
21661W        W38135   6.252   6.491  11.111 -0.0268 -0.0116  0.5120
21662W        W38136  11.586   9.432   2.173  0.0240  0.3150 -0.0105
21663W        W38137   1.289   0.229  13.202  0.1577  0.1137 -0.0912
21664W        W38138   4.647   9.562  12.173  0.2863 -0.2266  0.0147
21665W        W38139  13.873   6.412  11.644  0.1582  0.2330 -0.4052
21666W        W38140   4.064  13.532  11.809 -0.1890 -0.2115  0.3826
21667W        W38141  16.610   7.549   0.627 -0.0686 -0.0983 -0.0643
21668W        W38142  17.475   1.706   2.300 -0.4243  0.0502  0.0152
21669W        W38143  17.887  12.669   4.291  0.1325 -0.1409  0.0611
21670W        W38144  13.264  11.292   4.861 -0.0359  0.2247 -0.0956
21671W        W38145   4.328   9.220  11.133  0.0320  0.0703  0.3821
21672W        W38146   1.552   5.381   2.993  0.4782 -0.0192  0.1179
21673W        W38147  10.164   2.142  11.273  0.1547 -0.3906  0.0512
21674W        W38148  12.077   6.751  14.203  0.2461  0.0801 -0.0340
21675W        W38149  18.296   7.370   1.338 -0.1658 -0.2096 -0.2091
21676W        W38150  16.516   6.468  12.890 -0.2921  0.1647 -0.0995
21677W        W38151  17.547   2.345   0.317  0.2335  0.4647  0.0535
21678W        W38152   5.586   5.256   1.186  0.0701  0.2454 -0.1540
21679W        W38153   4.098   9.333  13.509 -0.0650 -0.0241  0.0561
21680W        W38154  12.306   3.294   4.110  0.0942 -0.3287 -0.0732
21681W        W38155   9.900   0.851   3.541  0.2898  0.0133 -0.2059
21682W        W38156   1.681   1.419  10.009 -0.1361 -0.0115  0.0630
21683W        W38157  12.021  12.493  10.750 -0.1257  0.1489  0.0870
21684W        W38158   1.000   5.384  13.063  0.1844  0.2922 -0.1274
21685W        W38159   2.687  15.892  11.349 -0.0073  0.2072 -0.2105
21686W        W38160  13.952  12.135  12.591  0.0649  0.0196 -0.0853
21687W        W38161  17.333  13.588   2.199 -0.0837 -0.0168  0.0725
21688W        W38162  12.817   3.558   3.476  0.0106 -0.1530  0.2105
21689W        W38163   2.698   4.047   9.852 -0.1509  0.1898  0.4017
21690W        W38164  13.664  12.973  10.916  0.0494 -0.0445  0.1898
21691W        W38165   5.712  11.339   3.958 -0.0436 -0.2002  0.0283
21692W        W38166   8.689  18.458  11.684  0.1271 -0.0042  0.1712
21693W        W38167   5.959   1.909  10.737  0.4073 -0.1485 -0.0420
21694W        W38168  18.753   3.264   5.079  0.3510 -0.0560  0.1648
21695W        W38169   0.010  14.996  12.585 -0.1872 -0.2625 -0.0878
21696W        W38170   3.366  18.864  13.459 -0.4692  0.0885 -0.1754
21697W        W38171   2.620  19.611  14.486 -0.1007 -0.0512  0.0403
21698W        W38172  17.954  12.011  11.160 -0.0580 -0.1058 -0.0148
21699W        W38173  13.654  18.527  14.529  0.0477  0.1569 -0.2398
21700W        W38174   9.948   9.212   4.961 -0.0923  0.0734 -0.0653
21701W        W38175  18.618  10.814  14.071  0.1740 -0.0590  0.1678
21702W        W38176  11.047  19.033   3.419  0.1786  0.0824 -0.0892
21703W        W38177  10.746   2.625   0.106  0.1481  0.1595 -0.4639
21704W        W38178   2.160   3.773   4.193 -0.2611  0.0074  0.1418
21705W        W38179  12.347   9.406  14.423 -0.0204 -0.1591  0.0555
21706W        W38180  17.468   9.124  11.802  0.1793 -0.1908  0.1659
21707W        W38181   5.427  19.260   0.371 -0.0480  0.1479 -0.4331
21708W        W38182  19.511   1.901  13.367  0.3633 -0.0520 -0.0040
21709W        W38183   2.166  14.100  14.206  0.2598 -0.0366  0.0344
21710W        W38184   9.824   6.351   0.241  0.0935  0.2445 -0.0663
21711W        W38185  14.032  13.092   0.484  0.3945 -0.2739  0.0444
21712W        W38186   7.570  12.376  14.162  0.1264 -0.3329 -0.1161
21713W        W38187   0.826  18.279  13.425 -0.0835 -0.0356  0.1819
21714W        W38188   1.576  13.009  13.953 -0.0142 -0.1651 -0.0746
21715W        W38189  18.346  10.404  10.874 -0.0177  0.0098  0.0479
21716W        W38190   2.885  11.382   5.797 -0.1911  0.2073 -0.1172
21717W        W38191   6.109   4.376   1.276 -0.2034  0.0977  0.3250
21718W        W38192   9.718  14.403   0.385 -0.1703 -0.3269 -0.0780
21719W        W38193   4.424   6.120  14.426 -0.1303  0.0563  0.3272
21720W        W38194   1.774  18.540  13.345  0.0133  0.5080 -0.1186
21721W        W38195   3.237  11.608   4.005 -0.1759 -0.0544  0.2220
21722W        W38196   2.328  15.529  13.385  0.1031  0.2317  0.2973
21723W        W38197  10.547  12.578   1.984  0.1016 -0.0315 -0.1464
21724W        W38198  18.684   0.587   4.962 -0.4882 -0.1701 -0.2710
21725W        W38199   2.686   6.289   2.635 -0.0900  0.0006  0.2325
21726W        W38200  17.090  14.660   2.954  0.2001  0.1232  0.1468
21727W        W38201   8.868   4.063  14.361  0.1291  0.0912  0.0922
21728W        W38202  15.087   9.034   5.551 -0.0888 -0.1073 -0.0787
21729W        W38203  13.998  17.625   0.873  0.2453  0.2359  0.3110
21730W        W38204   4.434   0.718   3.183  0.1714  0.0079 -0.3303
21731W        W38205   6.477   8.316  10.850 -0.3351 -0.1008 -0.1279
21732W        W38206  15.934   5.958   3.862 -0.1340  0.0932  0.1859
21733W        W38207  13.136  18.474   3.460  0.3114  0.0673  0.1303
21734W        W38208  11.970  18.677   2.331 -0.1963  0.0605 -0.0099
21735W        W38209  13.291  12.708  10.601  0.0309 -0.0691  0.0115
21736W        W38210   0.119  11.220  10.161 -0.4338 -0.0200 -0.0993
21737W        W38211   2.124   3.141   2.393 -0.2639  0.1274  0.1744
21738W        W38212   5.091   8.781  11.882 -0.2440  0.1372 -0.0658
21739W        W38213   3.099  17.002   3.089 -0.0193 -0.0632  0.1011
21740W        W38214   8.813  11.240   4.512  0.1134  0.2436  0.0703
21741W        W38215   0.514  19.214  10.618 -0.0922 -0.2133  0.1090
21742W        W38216  15.294   3.112   3.567  0.3324 -0.4351 -0.1098
21743W        W38217  14.329   6.919  11.057  0.0460 -0.0704  0.3308
21744W        W38218  19.078   6.153   2.825  0.1011  0.1954  0.2534
21745W        W38219  11.063  12.554   5.206 -0.2065 -0.4335  0.2509
21746W        W38220  14.159   0.802  13.813  0.0654 -0.2547 -0.0006
21747W        W38221  14.140  16.713  10.594 -0.0897 -0.3012  0.1822
21748W        W38222  16.869   0.818  14.094  0.0072  0.0405 -0.2777
21749W        W38223   3.333  14.489   1.759 -0.0428  0.2998 -0.0131
21750W        W38224  14.912  12.069  11.947  0.3331 -0.1007 -0.1839
21751W        W38225   4.802  13.084   5.738 -0.0774 -0.1956 -0.2502
21752W        W38226   7.403  10.499   0.135  0.1350  0.0867  0.1716
21753W        W38227   9.910  17.339   4.248  0.1175  0.1569  0.1294
21754W        W38228  12.776   5.213  13.550 -0.0088  0.1999 -0.2405
21755W        W38229  12.461   9.298   1.913  0.0937 -0.1806  0.1662
21756W        W38230   5.149   1.626   4.226  0.0868 -0.0357 -0.2401
21757W        W38231   3.150  17.057   5.131 -0.1027 -0.3079 -0.1143
21758W        W38232   1.853  13.844  14.538 -0.3360 -0.0157 -0.0316
21759W        W38233  12.735  10.971   5.089  0.1578 -0.0863 -0.0389
21760W        W38234  14.674   8.465  11.293  0.1000 -0.1063 -0.0470
21761W        W38235  14.372  11.006   2.302  0.2964  0.2898 -0.0726
21762W        W38236   6.845   4.123  14.248  0.4306 -0.0493  0.1012
21763W        W38237  11.399  18.026  13.093  0.0495  0.4364  0.0090
21764W        W38238   4.875   0.731  11.190  0.0731 -0.1255  0.1281
21765W        W38239   6.387   0.266  12.947 -0.1406 -0.0731 -0.1448
21766W        W38240   1.316  15.756  13.556  0.4599  0.3303 -0.0517
21767W        W38241   3.379   1.689  13.658  0.4365 -0.2117 -0.1024
21768W        W38242   4.385  12.512   2.458 -0.3301  0.2452 -0.1645
21769W        W38243  16.585   7.188  11.654 -0.0954  0.2077  0.2240
21770W        W38244  19.372   0.638  11.946 -0.0709 -0.0257 -0.0373
21771W        W38245  12.073  10.202  10.696  0.3638  0.0216 -0.0254
21772W        W38246   7.867   5.404   3.241 -0.1162 -0.0821  0.0346
21773W        W38247   6.806  14.004   1.793  0.0761  0.2589 -0.5385
21774W        W38248   4.852  19.393   1.589 -0.0751  0.2457 -0.4632
21775W        W38249   0.080   2.245   4.279 -0.0845  0.0615  0.0177
21776W        W38250   4.348   3.808  14.597  0.2217  0.0285 -0.0816
21777W        W38251  10.121  16.847   3.529  0.1008 -0.4203  0.2627
21778W        W38252   7.370  10.106   2.580  0.0095  0.1574  0.2281
21779W        W38253  10.239   2.118  12.340 -0.2208 -0.2033  0.2806
21780W        W38254   4.095   4.123   0.329  0.1498 -0.0978 -0.3352
21781W        W38255   9.576  17.690   9.747  0.0604 -0.3593 -0.0774
21782W        W38256  14.593  18.427   3.446 -0.0326 -0.1327  0.2946
21783W        W38257   8.241  16.370  12.882  0.1173  0.1907 -0.1592
21784W        W38258   3.303  14.300  11.960 -0.2780 -0.2184  0.1094
21785W        W38259  19.123   6.856  14.097 -0.2238 -0.1733  0.0427
21786W        W38260  18.697   0.272   4.084  0.0885 -0.2035  0.2927
21787W        W38261   7.558   9.730   2.186 -0.0605 -0.3332  0.1534
21788W        W38262  17.208  15.700  14.411  0.1086 -0.0906  0.0895
21789W        W38263  15.006   6.641  13.660 -0.0819 -0.0824  0.4317
21790W        W38264  10.998   9.553   3.423  0.2048  0.0326 -0.0356
21791W        W38265  17.367  11.723   0.939  0.1578 -0.0322  0.0819
21792W        W38266  15.713  18.801  14.340  0.5895  0.2268  0.0251
21793W        W38267   6.269  13.810   0.996  0.0115 -0.2846 -0.3170
21794W        W38268   5.790   6.191  10.662  0.4395  0.0201 -0.3564
21795W        W38269   7.699   5.887   3.052  0.1018 -0.0837  0.2267
21796W        W38270   2.149   6.831  14.215 -0.0836 -0.0037 -0.1101
21797W        W38271  13.700   0.468  12.132  0.4062 -0.2124 -0.2903
21798W        W38272   1.727   8.967   5.022 -0.2229  0.0691  0.0066
21799W        W38273   3.021   7.196   0.127 -0.0388 -0.1348  0.1234
21800W        W38274   7.088   1.553   2.677  0.3313 -0.0506  0.1378
21801W        W38275  18.340  19.312  12.854 -0.4690  0.2731  0.2200
21802W        W38276  17.402   5.319   1.855 -0.0898  0.3652  0.1754
21803W        W38277  11.034   5.555   1.850 -0.5479  0.1707 -0.0535
21804W        W38278   2.575  11.577   1.207  0.0324  0.1566  0.2678
21805W        W38279   4.956   7.371  11.808 -0.0710  0.1999  0.2089
21806W        W38280   3.011  10.224  13.035  0.0915  0.1403 -0.1121
21807W        W38281   2.590  16.349   5.075  0.1778  0.0898  0.0647
21808W        W38282   5.925  15.529  12.405 -0.1627 -0.1285 -0.0733
21809W        W38283   6.590  10.470   3.402  0.4025  0.0422  0.3644
21810W        W38284   2.163  13.645   1.682  0.1689 -0.3872  0.2364
21811W        W38285  11.465  11.837   2.328  0.0717  0.0721  0.0271
21812W        W38286  10.976   7.943  12.750  0.0338 -0.1148  0.1017
21813W        W38287   6.699   9.910   4.550 -0.1292  0.0543 -0.0767
21814W        W38288  18.623  16.955   5.139  0.0384 -0.2414 -0.2945
21815W        W38289   5.124   4.208  11.567  0.0179 -0.2423 -0.2573
21816W        W38290  10.002   0.620   1.763 -0.1314  0.3298  0.0650
21817W        W38291  16.990   5.571   1.701 -0.1391  0.0018 -0.3186
21818W        W38292  16.571   8.628  14.402 -0.1185 -0.0092 -0.4440
21819W        W38293   2.579  12.661   3.097  0.0548  0.1025 -0.2971
21820W        W38294  12.963  17.195   5.694 -0.1911  0.3635 -0.1898
21821W        W38295  12.969  14.411   4.630  0.3000  0.0044 -0.0490
21822W        W38296   7.319   8.429   2.168  0.1351 -0.1995 -0.1201
21823W        W38297   2.470   1.343  10.277 -0.0268  0.2418 -0.0000
21824W        W38298   1.925   5.980   0.571 -0.1397  0.1809 -0.2479
21825W        W38299   4.226   1.128   3.536  0.2970  0.1117  0.1681
21826W        W38300   8.904   1.600  12.392  0.2788  0.2112  0.3196
21827W        W38301  17.180  17.658  13.366 -0.0407  0.4254  0.0407
21828W        W38302   3.724   2.092  13.778 -0.2366  0.2679 -0.0706
21829W        W38303   8.226  17.280   0.881 -0.4869  0.0732 -0.0607
21830W        W38304   9.128  15.986   4.892 -0.0219 -0.0213 -0.3825
21831W        W38305  15.112  15.894   0.913 -0.1101 -0.1064  0.2855
21832W        W38306  11.303   4.208  11.878 -0.1082 -0.0466 -0.0122
21833W        W38307  10.594  19.621  13.231  0.1599 -0.0228  0.0923
21834W        W38308   3.099  17.934   3.257  0.1197 -0.1719 -0.2128
21835W        W38309   8.396   3.787   9.772  0.1685 -0.2358  0.0227
21836W        W38310   3.165  10.339   4.665 -0.2148 -0.2168  0.0516
21837W        W38311   1.219   4.817  14.636 -0.1662  0.2562 -0.2510
21838W        W38312   1.858   2.174  10.459 -0.1816  0.2268  0.3168
21839W        W38313   4.011   5.071   2.324 -0.6018 -0.1712 -0.1671
21840W        W38314  16.105  18.885  13.060 -0.0144  0.0085  0.0035
21841W        W38315  17.432  14.515   4.643  0.0304  0.0405 -0.3787
21842W        W38316   1.341   2.997   2.741 -0.2319 -0.0175 -0.0163
21843W        W38317   7.531  15.082  12.928 -0.2213 -0.1301  0.1239
21844W        W38318  15.511  12.694   3.475  0.0304 -0.2512  0.1046
21845W        W38319  16.686  17.695  13.444  0.1218  0.2065 -0.2558
21846W        W38320  18.509  12.089  13.037  0.0021 -0.0910  0.2404
21847W        W38321   4.959   2.145   1.340 -0.0062  0.0938  0.4219
21848W        W38322  12.430   6.869  12.819  0.1720 -0.1319 -0.1384
21849W        W38323  15.021  17.140   4.050 -0.0858 -0.1482 -0.2793
21850W        W38324  11.901  18.274  12.826  0.1355 -0.0659 -0.3637
21851W        W38325  19.225  11.952   3.712  0.1233  0.0837 -0.1475
21852W        W38326  12.571  11.862  13.948  0.0023 -0.2545 -0.0895
21853W        W38327   8.614  14.902  12.097  0.0577 -0.1734 -0.1736
21854W        W38328  12.594  10.360   0.641 -0.3429 -0.0754  0.1235
21855W        W38329   6.532   9.431   5.248  0.1363  0.1158  0.2550
21856W        W38330  16.374  10.724  14.270 -0.0028 -0.4145 -0.2893
21857W        W38331   8.722   8.153  14.452  0.1292  0.1585 -0.1015
21858W        W38332   9.576   7.173   3.609 -0.0176 -0.1245  0.1591
21859W        W38333  11.738   0.858   3.387  0.3001 -0.1077  0.0033
21860W        W38334  14.075  17.799   4.983 -0.0025  0.1012 -0.1463
21861W        W38335  16.843   8.221  10.670  0.2000  0.1537 -0.2036
21862W        W38336   4.643  14.718  14.531  0.1035 -0.0347  0.4564
21863W        W38337   0.871  16.794  14.341 -0.1824  0.1603  0.0172
21864W        W38338  14.072  18.526  11.732  0.2127  0.0043 -0.1320
21865W        W38339   6.961   0.487  12.951  0.1465  0.3207  0.1985
21866W        W38340   6.081  12.533  14.350 -0.0886 -0.2209 -0.0639
21867W        W38341   0.474   7.754  12.658 -0.1395 -0.0173  0.0811
21868W        W38342   1.515  17.372   1.980 -0.0003 -0.0859  0.1650
21869W        W38343  18.504  10.643   2.449 -0.1183 -0.1740 -0.0227
21870W        W38344   6.760   5.705   4.659 -0.0087  0.0065  0.1257
21871W        W38345   4.257  11.724   0.957 -0.3986  0.0100 -0.4593
21872W        W38346   3.475  15.069   1.982  0.0857 -0.1828 -0.1724
21873W        W38347   6.933  12.415   4.254  0.0806 -0.1017  0.2147
21874W        W38348   8.077   9.233  11.413 -0.2463 -0.1657 -0.4003
21875W        W38349   6.475  12.830   4.239 -0.1449  0.0841 -0.0402
21876W        W38350   0.336  10.917   4.512 -0.0596  0.2242 -0.0335
21877W        W38351  12.907   0.177   2.526  0.3387  0.1102  0.2131
21878W        W38352  16.716  13.881  12.130  0.0643 -0.1865  0.2769
21879W        W38353   3.387   3.456  10.390 -0.3225 -0.0199  0.0581
21880W        W38354  13.470   2.681   0.154 -0.1993 -0.4490  0.0316
21881W        W38355   7.355  15.186   0.593 -0.0294 -0.0005 -0.1099
21882W        W38356   7.541   8.664  13.488  0.0781  0.1654  0.0460
21883W        W38357  10.395  17.183   4.453  0.1722  0.2336  0.0839
21884W        W38358  18.166   8.231   0.060  0.0946 -0.1121  0.2426
21885W        W38359  18.206   6.752  13.234 -0.0517  0.1277 -0.0363
21886W        W38360  13.526   8.218   3.241  0.1528 -0.1341  0.1412
21887W        W38361   5.798  18.581   1.848  0.0187  0.0481  0.2352
21888W        W38362   4.005   4.723  14.339  0.2028 -0.0761 -0.4598
21889W        W38363   7.487  10.623   4.560  0.0565 -0.2854 -0.2240
21890W        W38364  12.414  19.593   4.927 -0.2333 -0.1730 -0.2677
21891W        W38365  12.721  10.687  11.674 -0.1124  0.0880 -0.4160
21892W        W38366   9.228   7.356   0.987  0.0910  0.1235 -0.0235
21893W        W38367  18.535  15.061   0.886  0.0305 -0.0886 -0.2939
21894W        W38368   7.149   8.642   3.192  0.0672 -0.1959 -0.0819
21895W        W38369  15.060  12.814  12.995 -0.0125  0.3759  0.2889
21896W        W38370   9.030  13.278  13.613 -0.0180 -0.1565  0.1855
21897W        W38371  14.866  14.856   2.981 -0.2270 -0.0998  0.0532
21898W        W38372  16.340  19.412   2.354  0.1022  0.1354 -0.2480
21899W        W38373   4.650  11.669  12.478  0.0361 -0.0665  0.3681
21900W        W38374  15.850  13.259  12.934  0.0336  0.0758 -0.2356
21901W        W38375   2.462  10.300   4.539  0.1034  0.1263 -0.0239
21902W        W38376   3.844   2.167   4.262 -0.0431 -0.1110  0.4615
21903W        W38377  13.853   8.147   2.388  0.1161  0.0174  0.0464
21904W        W38378   6.386  11.095   9.201 -0.0796 -0.2123  0.0429
21905W        W38379  16.511  18.708  13.364  0.0001 -0.3656  0.0804
21906W        W38380   2.520  17.605  11.388 -0.0668 -0.0984 -0.0480
21907W        W38381   2.081   7.297  12.012  0.1068 -0.3444  0.0141
21908W        W38382  18.469  18.533   0.803 -0.0247  0.1805  0.2132
21909W        W38383  13.981  12.484  12.211 -0.0512 -0.3102  0.0990
21910W        W38384  11.474  14.652   3.694 -0.1929 -0.2152  0.0304
21911W        W38385   3.956   6.747   2.170  0.0482 -0.4424 -0.0788
21912W        W38386  18.424  16.432   5.038 -0.1454  0.2739 -0.1314
21913W        W38387   5.056   8.141   1.776  0.2242  0.1406  0.1520
21914W        W38388   3.745   8.984   2.457 -0.0468  0.2784  0.2039
21915W        W38389  16.998   6.112  11.842  0.0661  0.1274 -0.3925
21916W        W38390   9.637  15.044  13.509  0.0799 -0.0802  0.2335
21917W        W38391   3.381   1.893   9.834  0.2417 -0.2189 -0.3918
21918W        W38392   8.827  11.380  10.382 -0.0405  0.1991 -0.0177
21919W        W38393  19.210   5.900   1.355 -0.1895  0.1065  0.1441
21920W        W38394  19.017   9.026  12.994 -0.0409 -0.2325  0.0140
21921W        W38395  16.594   0.435   1.152 -0.2358  0.1330 -0.1330
21922W        W38396  16.410   0.508   3.400  0.0252  0.4870 -0.0553
21923W        W38397   1.086   7.561  10.617 -0.0987 -0.1361 -0.0646
21924W        W38398  17.465  11.944   9.672  0.2034 -0.1158 -0.4156
21925W        W38399   9.481  16.613   2.962 -0.0194 -0.1665 -0.0380
21926W        W38400  12.219   4.673  12.935  0.1590  0.1003 -0.0282
21927W        W38401   2.962  17.731   2.223  0.1697 -0.0129  0.3334
21928W        W38402   7.171  11.730  10.968  0.1975 -0.1682 -0.0773
21929W        W38403   1.420  12.296   3.293 -0.2600 -0.2817 -0.1610
21930W        W38404   4.969  10.882   4.385 -0.1244  0.4428 -0.0865
21931W        W38405  18.750   5.614   3.558  0.1625  0.0449 -0.2624
21932W        W38406   9.285   9.462  12.590  0.0451 -0.1918  0.0880
21933W        W38407  17.134   8.548   1.653  0.2394  0.2182 -0.1920
21934W        W38408   1.025  12.904  10.396 -0.0542 -0.3409 -0.0192
21935W        W38409   4.306   2.506   0.197  0.2507 -0.0973  0.0654
21936W        W38410   8.844   4.069   9.902 -0.0932 -0.0257 -0.1559
21937W        W38411  12.566  14.966   2.482 -0.1577 -0.0514 -0.2057
21938W        W38412  10.080  18.724   1.865 -0.0178 -0.0198 -0.1246
21939W        W38413  18.403   4.159   4.430 -0.1987  0.0223  0.2106
21940W        W38414  14.463   3.903   4.902 -0.0827 -0.2119 -0.0281
21941W        W38415   8.064   0.600  12.279 -0.1030  0.0351  0.1085
21942W        W38416  18.919  14.846   3.641 -0.2633 -0.3555 -0.1200
21943W        W38417   3.753  13.557  12.279  0.1660 -0.2577  0.0499
21944W        W38418  14.298   5.226  10.255 -0.0996 -0.3582 -0.1642
21945W        W38419  17.194  19.000   4.408 -0.1475  0.0661 -0.0116
21946W        W38420   9.393  13.759   3.266 -0.4573  0.0081  0.3088
21947W        W38421   1.228  19.470  14.584  0.1225  0.0349 -0.0893
21948W        W38422  14.499  18.327  11.896  0.2809  0.1794  0.1175
21949W        W38423  10.231  12.419  14.194  0.2701 -0.1004 -0.2222
21950W        W38424  13.405   1.875   3.205  0.0938 -0.0032  0.4174
21951W        W38425  11.770  15.903   4.274 -0.0221 -0.2098 -0.3336
21952W        W38426  17.966  10.604  13.582  0.0431  0.0059  0.1442
21953W        W38427  15.117   6.896  11.807 -0.1243  0.3381  0.0112
21954W        W38428   0.422   3.591  10.936  0.2174 -0.3527 -0.0547
21955W        W38429   8.836  13.975   4.401  0.1737  0.1751 -0.1057
21956W        W38430   2.860  15.706   4.776 -0.3493 -0.2080 -0.1168
21957W        W38431  10.521  15.688   1.496 -0.1518 -0.2349 -0.2011
21958W        W38432  13.699   5.110   2.142 -0.1190  0.1730 -0.1413
21959W        W38433   9.127  11.994   4.536  0.1413 -0.0765 -0.0114
21960W        W38434   0.795   8.674  12.269 -0.1040  0.0590  0.1535
21961W        W38435   5.525  12.854   1.646 -0.2281  0.1096  0.1845
21962W        W38436  16.655   7.478  13.344 -0.2418  0.0788 -0.2496
21963W        W38437  16.148   6.928  12.929  0.1871 -0.3605  0.2153
21964W        W38438  13.512   2.142   1.577  0.1853 -0.3468  0.3783
21965W        W38439   1.140  16.610   1.122  0.1444  0.0125  0.2706
21966W        W38440   8.141  11.818  10.775  0.0533  0.1830  0.2306
21967W        W38441   4.308  12.118  13.351 -0.0100  0.2521 -0.3507
21968W        W38442   0.613   7.740   3.499  0.0423 -0.2556 -0.2587
21969W        W38443  18.028   2.214   1.578  0.2097 -0.0596 -0.1661
21970W        W38444  16.461  16.056   4.168 -0.2070 -0.4596 -0.0436
21971W        W38445   6.696  13.063  11.069  0.0356  0.0081  0.0879
21972W        W38446  16.516  10.266  14.554  0.0784  0.2811  0.1444
21973W        W38447   6.222   3.824   1.059  0.1134 -0.6793  0.0396
21974W        W38448  19.559   8.684   3.137 -0.1711  0.0563 -0.1266
21975W        W38449   1.608  16.354   0.390  0.4400  0.0610 -0.2517
21976W        W38450  12.777   1.712  11.689 -0.2166  0.0355 -0.1237
21977W        W38451   6.002   6.951  11.263  0.1828  0.1479 -0.1692
21978W        W38452  16.041  16.356   1.003  0.1742  0.0870 -0.1709
21979W        W38453  12.981  17.474  13.153  0.1949  0.3015  0.0574
21980W        W38454  15.161  11.303   2.978 -0.2037  0.0223  0.3956
21981W        W38455   6.391   2.746  13.786  0.3700 -0.2207 -0.1287
21982W        W38456  10.396   7.555  10.744 -0.2272 -0.0116 -0.0306
21983W        W38457  12.273   9.479   0.263 -0.0267 -0.2066 -0.0971
21984W        W38458   4.772  14.187  11.967  0.1665 -0.2742 -0.0468
21985W        W38459   1.561  14.094   0.142  0.0966  0.0134 -0.2273
21986W        W38460   1.495  13.374   1.500  0.2839  0.0409 -0.2090
21987W        W38461  14.953  13.640  13.813 -0.2245  0.0601 -0.4834
21988W        W38462  17.093  15.110   3.870 -0.0854 -0.2686  0.2695
21989W        W38463  14.332   7.867   4.636 -0.1179 -0.2451 -0.0153
21990W        W38464  15.901   8.593   4.804 -0.1626  0.6576 -0.4269
21991W        W38465   3.894   5.281   5.293  0.3149 -0.2091 -0.2325
21992W        W38466   0.018   5.478   2.162 -0.3027  0.0400  0.2160
21993W        W38467  10.190  16.361   0.962  0.0377  0.4201 -0.4995
21994W        W38468   1.478  12.216  10.147  0.1904 -0.1838  0.1283
21995W        W38469  19.451   6.724   1.266 -0.2674 -0.2000  0.0132
21996W        W38470   7.942  16.776  10.838 -0.3085 -0.0066  0.2265
21997W        W38471   9.856  16.245  13.829  0.6054  0.0806 -0.0098
21998W        W38472  19.310   6.316   0.999  0.1637  0.0523 -0.2963
21999W        W38473  18.699   9.417   3.715 -0.0537  0.0230 -0.0581
22000W        W38474   6.775   9.225  10.483  0.2741  0.0532 -0.1389
22001W        W38475  11.816  13.630  13.598  0.0639  0.1983  0.1076
22002W        W38476   4.760  12.467  11.257 -0.2905  0.0390 -0.3005
22003W        W38477   4.718   6.329   4.562  0.0116  0.2162 -0.0662
22004W        W38478  14.504  18.077   4.561  0.1506  0.1925 -0.0899
22005W        W38479  12.277   2.862   0.386  0.2337  0.2752  0.2789
22006W        W38480  18.814  15.941   2.905  0.1451 -0.0198 -0.0819
22007W        W38481   3.635   9.060   4.827 -0.2749  0.0916 -0.2287
22008W        W38482  12.798   1.352  11.302  0.1123 -0.1052 -0.0166
22009W        W38483  19.188  11.756   1.872 -0.2283  0.0488  0.0595
22010W        W38484   0.596   1.681   4.415  0.0727 -0.2894 -0.0657
22011W        W38485   4.121  14.120  14.186  0.4041  0.0190  0.2111
22012W        W38486   8.078  12.524   3.891 -0.3511 -0.0172  0.2001
22013W        W38487  10.801   8.000   0.947  0.0065 -0.0395 -0.0136
22014W        W38488  17.831  18.326   4.266  0.1031  0.0772  0.2929
22015W        W38489   9.912  12.781   1.255  0.0374  0.0334  0.2576
22016W        W38490   1.629  18.086  12.954 -0.0095  0.0884 -0.1811
22017W        W38491  10.638   4.664  12.093  0.1650 -0.0568  0.1284
22018W        W38492  12.731  16.476  14.073  0.1932  0.1566  0.0326
22019W        W38493   8.572   3.072   3.341 -0.3860 -0.1733  0.1708
22020W        W38494   4.106   5.993  13.502 -0.0044 -0.1533  0.3371
22021W        W38495   7.523   0.561   3.122  0.1908 -0.1618  0.0128
22022W        W38496   1.790   6.454  13.364  0.1286 -0.2291  0.0909
22023W        W38497  13.182  13.545   1.307 -0.1305 -0.0178 -0.1361
22024W        W38498  15.208  11.605   4.562  0.0279  0.1944 -0.0016
22025W        W38499  14.285  11.864   2.146 -0.0223 -0.3346  0.1826
22026W        W38500  10.399   5.650  12.516 -0.1993  0.1031 -0.2900
22027W        W38501  13.511  14.532  13.206  0.2070 -0.1279  0.0472
22028W        W38502   5.115   2.309  13.706 -0.3578 -0.1092 -0.1633
22029W        W38503   5.064  11.564  14.542 -0.1106  0.1715  0.0940
22030W        W38504  12.284   7.107   3.113  0.1755  0.4777  0.0238
22031W        W38505   5.999   2.922   0.725 -0.0152 -0.1009  0.1428
22032W        W38506  14.523   9.352   3.013 -0.2084 -0.2289  0.0867
22033W        W38507  14.112  16.390  12.758  0.6504  0.2106  0.3568
22034W        W38508   6.427   7.019  14.330 -0.0519  0.0810 -0.1816
22035W        W38509   9.747   6.285   2.105  0.0270 -0.0062 -0.1285
22036W        W38510   5.354  17.784   1.525  0.3200  0.0301  0.2152
22037W        W38511   3.114   9.692  11.409 -0.2267 -0.1384 -0.0522
22038W        W38512  18.158  16.077   1.858 -0.1844 -0.0824  0.2064
22039W        W38513   8.258  18.292   0.628  0.2576  0.0744 -0.0341
22040W        W38514   9.040   4.930  11.840 -0.2606 -0.0280 -0.0381
22041W        W38515  17.577  17.797  13.720 -0.0067  0.2417 -0.1980
22042W        W38516   1.375  16.506  13.104  0.0537  0.1434 -0.1662
22043W        W38517   3.472  12.654  13.763  0.2359 -0.3845  0.4110
22044W        W38518   3.477   0.159   9.546  0.1956  0.0580 -0.1318
22045W        W38519   2.312   7.817   4.780 -0.0254  0.1953  0.0075
22046W        W38520   1.533   5.875   4.102  0.0686  0.1743 -0.3340
22047W        W38521   9.072  12.116   2.891 -0.1498 -0.2391  0.0477
22048W        W38522  19.491  18.886  14.104 -0.0235 -0.3092 -0.0806
22049W        W38523   1.409   2.267   0.610  0.3683 -0.3531 -0.2202
22050W        W38524   7.677  17.056   3.579 -0.2632 -0.2573 -0.2781
22051W        W38525   4.714  16.366   3.997  0.0211 -0.1430 -0.0246
22052W        W38526   9.970  12.278   0.878 -0.0076 -0.1337 -0.2235
22053W        W38527  16.181   0.090  12.385 -0.0614 -0.4395 -0.0572
22054W        W38528  16.311  14.685   2.786 -0.5999 -0.2046  0.2257
22055W        W38529  16.515  16.310   3.295  0.0700  0.1861 -0.2164
22056W        W38530  12.300   5.851   0.077  0.0744 -0.0531  0.4836
22057W        W38531   7.531   6.366   2.330 -0.1855 -0.2063  0.0553
22058W        W38532   8.748   7.139   1.104  0.1930  0.4376  0.4329
22059W        W38533   9.664   8.403  11.245  0.1230  0.0528 -0.3227
22060W        W38534  10.570   1.766  10.886 -0.2647  0.1365 -0.0300
22061W        W38535  14.571   3.355  11.423  0.1246  0.1687 -0.2821
22062W        W38536  13.927   8.955   3.642  0.0900 -0.2613 -0.0268
22063W        W38537  13.231   1.445  11.651  0.0586 -0.0918 -0.1446
22064W        W38538   8.010   0.716  10.848 -0.1925  0.0269  0.0225
22065W        W38539  18.574  17.536  11.152 -0.0948  0.1020 -0.0679
22066W        W38540  10.896  10.299  14.282 -0.2521  0.2225 -0.0609
22067W        W38541   5.410  16.757  11.465  0.0012  0.0133  0.0478
22068W        W38542   9.116   1.982   2.677  0.0904  0.1316  0.2403
22069W        W38543   6.539   0.732   3.975 -0.1543  0.0171 -0.0996
22070W        W38544  12.732   0.203  11.176  0.0496 -0.3390  0.0382
22071W        W38545  17.227   5.744  13.006  0.1623  0.0315 -0.1333
22072W        W38546   5.768   2.199   1.034 -0.2583  0.6676 -0.2011
22073W        W38547  11.065   8.248  14.184 -0.3235  0.1552 -0.0938
22074W        W38548   1.379  13.880   3.488  0.1911  0.0547  0.1051
22075W        W38549   9.921   1.971   2.090 -0.2974 -0.0590  0.0580
22076W        W38550   4.553   6.798  10.924 -0.4280 -0.4564  0.0113
22077W        W38551  13.411  14.832   1.907 -0.1454  0.0221  0.3583
22078W        W38552  15.203  18.454  10.648 -0.1812  0.1510 -0.3708
22079W        W38553  14.405   4.229   0.485  0.1994  0.1645 -0.1375
22080W        W38554   8.946   1.421   4.058 -0.0151 -0.2091 -0.0047
22081W        W38555   6.167   0.910   3.618 -0.1848  0.1492 -0.4422
22082W        W38556   0.720   0.940   0.367 -0.3203  0.2487 -0.0950
22083W        W38557  13.077  11.003   1.779 -0.1880  0.0356 -0.0931
22084W        W38558   9.581  19.228   1.426  0.0625  0.2939  0.0538
22085W        W38559  13.257   5.859   4.113 -0.0810 -0.3903  0.2599
22086W        W38560  10.183   1.435   0.067  0.1730  0.1415 -0.0679
22087W        W38561  13.455  15.041  13.000  0.0060 -0.0265 -0.1615
22088W        W38562   2.229   6.779  13.639  0.1941 -0.0188 -0.2382
22089W        W38563  13.421  15.067  11.965 -0.0799 -0.0297  0.1613
22090W        W38564   3.858   5.733  11.972  0.1074  0.0641  0.3639
22091W        W38565   7.007  15.812  14.598  0.0284 -0.1292  0.4588
22092W        W38566   9.116  18.835  14.505  0.3245  0.2218 -0.1388
22093W        W38567  13.369  10.366  11.594  0.0665  0.0408  0.2592
22094W        W38568   9.303  13.385   5.556 -0.0018 -0.0634 -0.1025
22095W        W38569  17.927   4.055   2.824 -0.0809 -0.0547 -0.2527
22096W        W38570  11.618  17.636  13.463  0.0171 -0.0943  0.1451
22097W        W38571  16.576   5.415   4.071 -0.0732 -0.2991  0.2701
22098W        W38572  16.022  12.122   4.487  0.2287  0.0710 -0.0415
22099W        W38573  17.054   7.214  12.584 -0.0480  0.0785  0.3041
22100W        W38574   4.040   9.996  10.817  0.3937 -0.1035 -0.1731
22101W        W38575   6.635   4.589   2.007  0.0571  0.1036  0.0202
22102W        W38576  11.377  17.731   4.742 -0.4752  0.2389 -0.3082
22103W        W38577  18.790   4.806  13.464 -0.3264  0.3321  0.0666
22104W        W38578   3.255  13.306  13.472 -0.1104 -0.1768  0.2160
22105W        W38579  13.157   7.521  13.042  0.2309 -0.0680 -0.5239
22106W        W38580  11.706   3.390  13.135  0.2167 -0.2228  0.0828
22107W        W38581   8.456   9.889   1.125  0.0146 -0.4224 -0.0549
22108W        W38582   5.477   6.837  13.974  0.4889  0.0880 -0.0808
22109W        W38583  18.806  11.752  13.769  0.1299  0.0223 -0.0061
22110W        W38584  14.099   1.645   4.459  0.2891 -0.0331  0.1900
22111W        W38585  14.067   6.416   1.952  0.0405  0.3333 -0.3030
22112W        W38586   5.482   4.441  10.732  0.0436  0.1323  0.2266
22113W        W38587   1.082   4.680  11.386  0.0715  0.0885  0.1436
22114W        W38588   1.961   2.529   1.243 -0.0536 -0.0258 -0.0332
22115W        W38589   0.803  16.891   2.094 -0.0709  0.0709 -0.0417
22116W        W38590   4.875  17.301   9.835 -0.0391  0.1455 -0.0228
22117W        W38591   1.944   6.932   3.114  0.0658 -0.0764 -0.1256
22118W        W38592  11.045   1.628  12.849  0.1019  0.1174  0.1762
22119W        W38593   4.758  10.150  14.458  0.3453  0.2548 -0.1998
22120W        W38594   5.101   5.778  14.351 -0.0626  0.0522  0.1942
22121W        W38595   8.271  15.557   0.156 -0.1079  0.0892  0.1931
22122W        W38596   1.660  19.221  14.376  0.0628 -0.0863  0.1458
22123W        W38597  13.484  10.794   1.925  0.2468 -0.2356 -0.0883
22124W        W38598  11.386   7.270  13.966 -0.5029  0.2380 -0.2451
22125W        W38599  13.957   9.221   0.458  0.3972 -0.0625 -0.0784
22126W        W38600   4.450   9.714  10.881 -0.1767  0.0610  0.0877
22127W        W38601  16.763   6.083   4.253  0.0711  0.0650  0.1770
22128W        W38602   7.429   6.133  11.675  0.2091  0.2913 -0.1415
22129W        W38603  19.061  14.751  14.220  0.0818  0.2355  0.1264
22130W        W38604   0.111   5.997   4.847 -0.0057 -0.0197  0.1925
22131W        W38605   6.198   1.753  13.918  0.1189 -0.0205 -0.2657
22132W        W38606   2.906  14.542   2.473  0.1145 -0.0641 -0.0019
22133W        W38607  13.070  18.033   0.868 -0.3473 -0.0520  0.0314
22134W        W38608  10.361  11.523   3.886 -0.4051 -0.3703 -0.0081
22135W        W38609  17.153   2.347   2.893 -0.1963  0.1707 -0.2678
22136W        W38610   8.308   2.031  13.521  0.0730  0.0791  0.0139
22137W        W38611  16.915  17.214   2.144  0.0354 -0.3298  0.1369
22138W        W38612  19.476  17.524   1.980  0.0030  0.0541  0.2223
22139W        W38613   2.207  17.139   3.195  0.2795 -0.3022 -0.0263
22140W        W38614  14.692  10.352  12.515 -0.1885  0.1965  0.0471
22141W        W38615   1.925   7.693  13.133  0.1027  0.2031 -0.2361
22142W        W38616   2.841   4.337  10.983 -0.1450  0.0985 -0.0773
22143W        W38617   4.947   0.339   4.433 -0.0100 -0.1790  0.1252
22144W        W38618  16.132  12.506  10.539  0.5117 -0.1981  0.2176
22145W        W38619   5.109  11.392   3.106  0.0134  0.2171 -0.2380
22146W        W38620  13.766  16.781  10.238 -0.0940 -0.2385  0.1570
22147W        W38621  18.316  13.575   0.386  0.0227 -0.3970 -0.0925
22148W        W38622   6.536  11.641   0.335  0.0296 -0.1978 -0.2963
22149W        W38623   3.834   1.239  12.768 -0.2222  0.0771 -0.0127
22150W        W38624   4.704  15.833  12.274 -0.0237 -0.0078 -0.3744
22151W        W38625  10.843  11.560   5.233  0.0017 -0.1529 -0.2613
22152W        W38626  14.146  15.169   3.648  0.2017 -0.1267  0.0964
22153W        W38627   5.689  10.668   3.302 -0.1352  0.2816 -0.1831
22154W        W38628   3.575  17.387  10.688 -0.3145  0.0182 -0.3136
22155W        W38629   3.850   6.142  14.378  0.4077 -0.1398 -0.4145
22156W        W38630  19.436   5.364  10.976 -0.2555  0.4829  0.1280
22157W        W38631   3.000   0.029  10.851 -0.2624 -0.3029 -0.4384
22158W        W38632  16.406  19.256  14.154  0.2976  0.1142  0.0798
22159W        W38633  14.344  14.856  11.839 -0.0077 -0.0966  0.2655
22160W        W38634   8.256  19.402  13.133  0.1226  0.3563 -0.1031
22161W        W38635   1.323   4.261   3.985 -0.2619 -0.0757 -0.1926
22162W        W38636   3.661  11.344   2.508 -0.0261 -0.1250  0.0946
22163W        W38637  11.313   5.903   0.434  0.1645  0.0662 -0.0428
22164W        W38638  17.560   8.942   4.625 -0.0757 -0.1948 -0.0004
22165W        W38639   5.307  16.263  12.865 -0.0983  0.1236  0.1122
22166W        W38640   7.136   5.083   0.046  0.2798  0.0387 -0.2743
22167W        W38641   0.214   7.077  13.374  0.4417  0.2903  0.3560
22168W        W38642  19.151   9.873  10.810  0.3364 -0.2023  0.0605
22169W        W38643   5.483   0.292   2.078  0.0781  0.1233 -0.5216
22170W        W38644  13.056   7.915   5.003  0.3188  0.2206 -0.1013
22171W        W38645   4.072  14.029   0.385 -0.2749 -0.0990  0.1457
22172W        W38646   4.343   9.863   5.254 -0.0752 -0.0000 -0.2263
22173W        W38647  16.474  16.724   4.576 -0.0639  0.3169 -0.0364
22174W        W38648   1.235   2.692  13.063 -0.1087  0.2096 -0.1298
22175W        W38649  15.028   8.677   1.278 -0.2907  0.0608  0.0624
22176W        W38650  18.502   3.859   2.120  0.0070  0.0531  0.1991
22177W        W38651   5.130   5.246   0.893 -0.2440 -0.1480 -0.3097
22178W        W38652   7.712   2.715  14.118  0.1622  0.1053  0.0091
22179W        W38653   4.182  16.381   4.649 -0.0075  0.2772  0.0182
22180W        W38654  14.432   4.641  12.811  0.1510  0.2057  0.0653
22181W        W38655   0.409   1.794   1.952  0.2299 -0.1399  0.1015
22182W        W38656   1.441   5.186  13.246  0.1317  0.0207  0.2291
22183W        W38657   1.257   6.516   2.662 -0.1052  0.0976  0.1739
22184W        W38658  19.607  15.524  12.552  0.0669 -0.2578  0.3222
22185W        W38659   7.906  18.796  13.794  0.1991  0.0202 -0.1862
22186W        W38660   4.611   3.831  13.579  0.1185 -0.0855  0.1057
22187W        W38661  11.509  14.522   3.026 -0.2806 -0.0601  0.3252
22188W        W38662  16.042   8.172  11.413  0.4109 -0.0195 -0.1976
22189W        W38663   5.652  10.566   9.928 -0.1144 -0.3517  0.3345
22190W        W38664   3.738   8.429   9.142 -0.0693  0.1140 -0.1535
22191W        W38665   6.697  13.422   2.400  0.0409 -0.0003 -0.4236
22192W        W38666   7.055   5.364   2.107  0.1162 -0.1635  0.3366
22193W        W38667   0.955   4.597   3.103 -0.0428  0.0409 -0.0404
22194W        W38668  16.861  13.019   2.926  0.0587  0.0621  0.0996
22195W        W38669  16.628   8.703   4.838  0.0991 -0.2380 -0.1198
22196W        W38670  11.552   0.104   2.186  0.1697  0.0027  0.2310
22197W        W38671   2.529  19.266  13.582 -0.1481  0.0547  0.2036
22198W        W38672  12.729   3.017   1.454  0.1491  0.2109 -0.1268
22199W        W38673   9.179   0.498   2.992 -0.1337  0.2388  0.0518
22200W        W38674  19.167   9.239  12.397 -0.2635  0.0615  0.0842
22201W        W38675  11.486  11.511   3.906  0.3245 -0.1620 -0.3322
22202W        W38676   9.540  19.201  11.549 -0.1627  0.0884 -0.3115
22203W        W38677  19.435  12.007   0.656 -0.1702  0.1930  0.2431
22204W        W38678  18.266  11.686  14.328  0.3166  0.0111 -0.2741
22205W        W38679   9.168   3.819  10.828  0.0813 -0.1304  0.0960
22206W        W38680   9.934   8.131   2.546  0.0631 -0.2416  0.0692
22207W        W38681  18.084   0.879  11.624 -0.0630  0.0641 -0.1786
22208W        W38682   0.285  10.156  14.491  0.0586  0.0132 -0.1970
22209W        W38683   8.434  10.949   0.159 -0.2100  0.0348  0.0239
22210W        W38684   3.297   7.704   2.158  0.2219 -0.2208  0.0301
22211W        W38685  19.305   3.983   1.690 -0.2895  0.0680  0.3292
22212W        W38686   1.129   2.920  11.874 -0.1966 -0.0355  0.0731
22213W        W38687  15.914  16.893  13.715 -0.2286  0.1868 -0.0812
22214W        W38688  17.266  10.880  11.291 -0.0721  0.3126 -0.0184
22215W        W38689  12.885   4.300   0.207  0.1987  0.1871 -0.0245
22216W        W38690  15.814  14.825  12.717 -0.1338  0.0656  0.0770
22217W        W38691  11.233   7.601  11.674 -0.1087  0.1187  0.1095
22218W        W38692  16.925  13.300   1.969  0.1981 -0.1258 -0.3705
22219W        W38693   6.207  18.868   1.330 -0.2403  0.1743  0.2718
22220W        W38694  11.239   8.091  10.703 -0.0089  0.3468  0.0009
22221W        W38695   5.744   0.878  12.545 -0.1362  0.2235  0.1001
22222W        W38696   8.477  18.111  13.576  0.0586  0.2409 -0.2531
22223W        W38697  15.567  10.260   4.588 -0.2868 -0.1902 -0.1389
22224W        W38698   5.665   5.085  10.188 -0.1228 -0.1988  0.1353
22225W        W38699  18.730  15.063   4.096 -0.4087  0.2658  0.3917
22226W        W38700  10.045  13.318  11.861  0.0483 -0.0283  0.2800
22227W        W38701   9.200   3.294   0.135 -0.0263  0.2672 -0.2127
22228W        W38702   3.047  15.914  12.821 -0.0746  0.2517  0.4453
22229W        W38703   2.278  17.405   1.130  0.1248 -0.0546 -0.0009
22230W        W38704  18.078   9.121   0.756 -0.0401  0.0716 -0.1164
22231W        W38705   4.001   2.551  12.459  0.2616  0.2482  0.1652
22232W        W38706   6.592  19.489   0.235 -0.1649 -0.1434 -0.0863
22233W        W38707  11.921   9.035  14.158 -0.0366 -0.5463  0.1036
22234W        W38708  17.591  15.927  12.939  0.1346  0.0577 -0.0014
22235W        W38709   2.133  12.757   2.126 -0.0637  0.2535  0.3314
22236W        W38710   5.901   5.040   3.802 -0.1856 -0.1730  0.2216
22237W        W38711  18.560   6.360  10.977  0.1002  0.1359  0.1936
22238W        W38712   3.952  16.005  11.996  0.0098 -0.0470  0.2816
22239W        W38713   0.424  12.965   0.987 -0.0843  0.1432 -0.2077
22240W        W38714   0.724  19.272   0.813 -0.1325  0.1696 -0.1681
22241W        W38715   6.940   4.595   0.018 -0.1359 -0.1385 -0.4112
22242W        W38716   6.754   9.959   1.244  0.1909  0.0385  0.0844
22243W        W38717   3.032   2.036  13.493 -0.0033  0.3125 -0.0680
22244W        W38718   9.831  14.096  13.776 -0.3122  0.0374 -0.2202
22245W        W38719  18.009  11.175  10.251 -0.1899 -0.2774  0.0704
22246W        W38720   1.337  12.712   2.954  0.2825 -0.4281 -0.0208
22247W        W38721   3.768   3.881   0.759  0.3518  0.0017  0.1307
22248W        W38722  13.326   7.382   2.791  0.1195  0.2496 -0.2659
22249W        W38723   0.897   4.554   2.287  0.0375  0.1618 -0.2341
22250W        W38724   2.908  18.781   3.980  0.1576 -0.1619  0.0276
22251W        W38725  11.035   0.151   2.014 -0.0363  0.1169  0.2111
22252W        W38726   0.219   0.628   3.965 -0.0655  0.2397  0.0920
22253W        W38727  14.126   9.092   2.832  0.2735  0.1469  0.1657
22254W        W38728   2.602   4.575   3.560 -0.1112 -0.2306 -0.1000
22255W        W38729   4.861  13.288  12.388 -0.0789 -0.1046 -0.0317
22256W        W38730   1.284   3.584   2.068 -0.4848 -0.1452 -0.1627
22257W        W38731  18.462   7.323  14.497 -0.0752  0.3120  0.0274
22258W        W38732  14.311   4.689   0.673  0.0012  0.0054 -0.1345
22259W        W38733  13.026  19.454  14.422  0.3403  0.2559  0.0456
22260W        W38734  18.908   0.543  12.846  0.4747  0.2223 -0.3392
22261W        W38735  19.106  12.084   2.405  0.4203  0.1862  0.1155
22262W        W38736  18.584  15.002  14.067  0.0497 -0.1931 -0.2634
22263W        W38737   8.028   6.452  13.564  0.2110 -0.2495  0.0651
22264W        W38738   7.003   8.927   9.095  0.2524  0.1893 -0.0610
22265W        W38739   5.749   4.152  12.350 -0.1990  0.0485 -0.0150
22266W        W38740  10.602  13.705   9.693 -0.0049  0.2558  0.2757
22267W        W38741   8.530  11.076   3.354  0.0963 -0.1381 -0.0747
22268W        W38742   0.580   2.070   2.398  0.0054 -0.0208  0.2264
22269W        W38743  18.435  19.075  11.846  0.0612 -0.0703  0.0995
22270W        W38744  17.858  13.376   4.012 -0.2710 -0.0466  0.0371
22271W        W38745  18.584   4.884   2.198  0.0864 -0.2301 -0.3190
22272W        W38746   7.891  14.242   1.134 -0.0988  0.1582  0.1686
22273W        W38747  14.324   0.033   1.715 -0.1866 -0.2648 -0.3950
22274W        W38748  10.669  16.963   1.721  0.0577 -0.1334 -0.3432
22275W        W38749  19.489  17.011  13.277  0.3350  0.0434 -0.0673
22276W        W38750   4.770  18.686  12.815  0.1305  0.1168 -0.4179
22277W        W38751   3.502   2.921  10.499  0.1312  0.0758 -0.1196
22278W        W38752   1.577   7.875   4.218 -0.0702 -0.0802 -0.0762
22279W        W38753  12.211  15.219   2.208  0.0610 -0.1299  0.1645
22280W        W38754  19.308  13.461   2.921 -0.3383  0.0791  0.0494
22281W        W38755   1.652  16.597   1.346 -0.2816 -0.1063  0.0346
22282W        W38756   9.568  18.895   0.698  0.0217 -0.0632 -0.2179
22283W        W38757   4.303   7.351  11.484 -0.0088 -0.0744  0.0194
22284W        W38758  18.982   1.202  14.521  0.2968  0.0192  0.1213
22285W        W38759  11.863   8.096  12.028  0.2077 -0.1865 -0.0925
22286W        W38760  16.958   0.424  12.094  0.2928 -0.2340 -0.2258
22287W        W38761   8.005   9.426  13.113 -0.0156 -0.4000  0.3840
22288W        W38762   0.781  15.031  13.512 -0.0833 -0.1199 -0.0795
22289W        W38763  19.029  15.724  14.227  0.1109 -0.1226 -0.2021
22290W        W38764  18.495  11.173   3.625  0.0635  0.0291  0.1540
22291W        W38765  17.853  16.890   1.714 -0.1668  0.1451 -0.2179
22292W        W38766   9.329  15.621   2.395  0.1499  0.3705 -0.2378
22293W        W38767   7.100  14.046   2.548 -0.3044 -0.0483  0.1799
22294W        W38768   3.527   7.491  14.145  0.0358  0.1033  0.3056
22295W        W38769   9.361   0.413   1.211 -0.2622  0.0037 -0.0534
22296W        W38770   9.534  10.292   1.476  0.0472  0.2140 -0.1352
22297W        W38771   7.564   9.574   1.272  0.2770 -0.0777 -0.1787
22298W        W38772   2.217   3.917   1.840  0.0492 -0.1904  0.1717
22299W        W38773  18.700   2.313  13.056  0.1609  0.3160 -0.3415
22300W        W38774   1.308   4.350  13.056 -0.0809 -0.1116  0.2598
22301W        W38775  16.234  15.895  11.841  0.1009 -0.2021  0.0650
22302W        W38776   3.779  14.764   2.863  0.0723  0.3491 -0.5177
22303W        W38777   6.297   2.631  11.034  0.1064 -0.2399  0.1053
22304W        W38778  16.486   0.772   3.861 -0.2211 -0.2574 -0.0846
22305W        W38779   8.566   3.628   4.041 -0.0654 -0.1228 -0.2459
22306W        W38780   0.654  12.166   4.988  0.0319  0.0205 -0.3155
22307W        W38781   7.077   1.188   0.688 -0.1985  0.4733  0.0010
22308W        W38782   6.629   9.306  11.442  0.0305 -0.0528  0.0677
22309W        W38783  16.401   0.969   2.633 -0.3007  0.2699  0.2972
22310W        W38784  17.630  17.560  13.232  0.2513  0.3027 -0.1055
22311W        W38785   5.644   0.097  13.489 -0.0282  0.1324  0.0548
22312W        W38786  14.394   3.458   3.979 -0.3290 -0.1619  0.2425
22313W        W38787  10.159  12.835  12.076 -0.1511 -0.0600 -0.1979
22314W        W38788  17.638   1.265  10.248  0.0573 -0.0027  0.2058
22315W        W38789  16.938  15.513   3.548 -0.0842  0.0641 -0.0872
22316W        W38790  13.573  18.251  13.369  0.3058  0.0698  0.1648
22317W        W38791  15.374  10.532   4.921 -0.1252 -0.2781 -0.1012
22318W        W38792   6.259  19.274   0.635  0.5174 -0.1907 -0.2940
22319W        W38793   1.058   8.923   3.783 -0.1807 -0.2862  0.0410
22320W        W38794   2.995   8.510   4.925 -0.0072  0.3281 -0.0728
22321W        W38795  11.500   8.109  13.495 -0.1277  0.0179 -0.2363
22322W        W38796   4.646   8.079  11.740 -0.2456 -0.1406  0.0350
22323W        W38797  18.524  13.511  14.428  0.2341  0.2348  0.3078
22324W        W38798   0.607   6.352   9.606  0.4066 -0.1585  0.0445
22325W        W38799   4.014  16.235   3.349  0.0121  0.0740 -0.1251
22326W        W38800  16.160  13.434   0.307 -0.1916  0.0241 -0.0156
22327W        W38801   5.031   3.748  11.841  0.2894  0.0670 -0.5466
22328W        W38802   4.503  10.815   0.134 -0.1536  0.1411  0.3471
22329W        W38803  15.352  15.037   4.884 -0.0798  0.1391 -0.1994
22330W        W38804  17.403  18.492   0.087  0.1316 -0.1004  0.1515
22331W        W38805   6.830   9.809  13.823  0.1366 -0.1248 -0.1851
22332W        W38806  11.867   3.304   3.717  0.0334 -0.0233 -0.1937
22333W        W38807   2.901  17.875   0.450 -0.2960 -0.0486 -0.7228
22334W        W38808   7.750  11.490  13.668  0.0478 -0.2411  0.3491
22335W        W38809  19.600   1.035   1.718 -0.1524 -0.0710 -0.0625
22336W        W38810  13.103  18.948   0.471  0.3069  0.0834  0.2290
22337W        W38811  12.623  13.531  12.427  0.2285 -0.0231 -0.1057
22338W        W38812  14.332  14.676   3.889  0.0407 -0.3597 -0.0141
22339W        W38813   3.461   7.626  11.797  0.0378 -0.1121 -0.1115
22340W        W38814   6.714   4.408   0.698 -0.0450 -0.0506  0.2768
22341W        W38815   6.618   8.938   4.849  0.0376 -0.1544  0.1506
22342W        W38816   9.127  14.945   1.762  0.3403 -0.1619  0.1442
22343W        W38817   1.467  15.239  12.830 -0.1197 -0.1231 -0.0840
22344W        W38818  18.360  10.753   3.211  0.0498 -0.0913 -0.0679
22345W        W38819   0.374   4.278  11.723 -0.4145  0.4360 -0.0686
22346W        W38820   9.301   9.956   2.609 -0.3922 -0.1153 -0.1915
22347W        W38821   6.750   4.223   1.590  0.0341  0.4462  0.1744
22348W        W38822  14.666   4.849  11.358 -0.1595 -0.2723  0.0844
22349W        W38823  13.731   8.796  11.524  0.1024 -0.0198 -0.0746
22350W        W38824  19.400   0.572   1.128 -0.0655  0.1173  0.3843
22351W        W38825  12.501   4.639  12.359  0.1800  0.0333  0.1571
22352W        W38826  18.604   0.921  11.480  0.2039 -0.0036  0.1929
22353W        W38827  17.257  13.873  14.160 -0.0924 -0.1995  0.1034
22354W        W38828   3.415   4.514   4.197 -0.2557  0.0936 -0.0823
22355W        W38829  18.777   2.894   2.343 -0.1582  0.1540 -0.0080
22356W        W38830   9.294  14.778  13.688 -0.1103  0.3393 -0.0045
22357W        W38831  14.469   7.005  13.165 -0.1672  0.2340 -0.0923
22358W        W38832  19.486   1.300   4.955 -0.0594  0.0610 -0.1788
22359W        W38833   8.880  15.881  10.483  0.0371  0.0743  0.0441
22360W        W38834  10.578  10.592  11.753  0.0027  0.2213 -0.2341
22361W        W38835   2.901  18.745   2.439 -0.0077  0.3171 -0.2740
22362W        W38836  11.421  14.410  14.249 -0.1435 -0.0124 -0.0586
22363W        W38837   3.247  17.486   4.936 -0.1970  0.0604  0.0069
22364W        W38838   9.275  12.554  11.887  0.0667 -0.1630  0.1643
22365W        W38839   6.353   5.134  13.627 -0.0235  0.2410  0.2971
22366W        W38840  15.957   6.366   5.611 -0.0558 -0.0916 -0.0432
22367W        W38841  15.769  17.449  14.527  0.0119 -0.2428  0.1377
22368W        W38842  15.160  15.507  11.716 -0.2488  0.0971  0.0861
22369W        W38843   8.338   3.594   3.525  0.2912 -0.1110  0.3368
22370W        W38844   3.623   5.833  12.464  0.1063 -0.1425 -0.2312
22371W        W38845  12.800   9.866  13.422  0.0994  0.1576  0.1632
22372W        W38846  17.150   9.944  12.758  0.1044  0.1598  0.1781
22373W        W38847  19.159  17.128   0.321  0.0113  0.0035  0.3867
22374W        W38848   3.653  17.369   3.797  0.0017  0.0979  0.2052
22375W        W38849  12.395   8.190   0.445 -0.1201 -0.0794  0.0760
22376W        W38850   8.469   7.855   0.125  0.0910  0.3513  0.0594
22377W        W38851   5.665  10.379   1.085 -0.0371  0.0896 -0.0854
22378W        W38852  12.070   7.892   4.173 -0.2881  0.2077  0.0500
22379W        W38853  15.110  10.687   0.683 -0.0897  0.1364  0.2767
22380W        W38854  16.181  11.502   1.110 -0.0096 -0.0030  0.1138
22381W        W38855  16.164   5.159  13.617  0.1299 -0.2972  0.0998
22382W        W38856   0.980   1.418   1.309  0.2467 -0.1119 -0.4793
22383W        W38857  11.554   4.595   1.317 -0.3036 -0.1725  0.2090
22384W        W38858   1.068  16.334   3.692 -0.2126  0.2300  0.0336
22385W        W38859   1.391  19.344   0.983  0.2024 -0.2606  0.1401
22386W        W38860   9.687   8.628  14.623  0.0895 -0.0617 -0.1992
22387W        W38861   7.145  10.197  11.652 -0.1517 -0.1591 -0.2957
22388W        W38862  15.817   6.001  10.559 -0.2093 -0.1714 -0.0341
22389W        W38863   0.272  13.554  13.892  0.2764  0.0073 -0.3455
22390W        W38864  19.528   4.525   3.974  0.0988 -0.0561 -0.2559
22391W        W38865   2.858   6.219   3.552  0.3512 -0.2213  0.1485
22392W        W38866   1.414   6.357  13.019  0.0579 -0.1941  0.0717
22393W        W38867   3.268  10.843  10.907  0.1124 -0.0984  0.0074
22394W        W38868   7.740  12.364   5.565  0.0391  0.0140 -0.0961
22395W        W38869  10.988   5.387  11.846 -0.0812  0.0911  0.0636
22396W        W38870   5.386  13.810   1.191  0.4022 -0.3524  0.0200
22397W        W38871  16.601  13.004   4.830 -0.1284  0.0491 -0.1462
22398W        W38872   6.472  17.173   3.768  0.1127  0.4162 -0.0724
22399W        W38873  19.391   3.377   1.140 -0.0008  0.2810  0.0703
22400W        W38874   7.722  15.967  11.999 -0.1256  0.1818 -0.1299
22401W        W38875   1.554   7.016   5.342 -0.1176 -0.0744 -0.0546
22402W        W38876   8.150   3.316   1.162  0.1261 -0.3787 -0.1962
22403W        W38877   6.069   0.864   2.000 -0.0607  0.0188  0.3395
22404W        W38878   7.617  12.638   0.385  0.3364  0.1339 -0.2972
22405W        W38879  14.240   1.365  10.543 -0.1365 -0.0265  0.1160
22406W        W38880   8.487   5.543   3.110 -0.2740 -0.1343  0.4763
22407W        W38881  15.217  19.447  11.739  0.2004 -0.2682  0.1933
22408W        W38882   6.392  15.616   0.513  0.2866  0.1042  0.2077
22409W        W38883  15.389   3.641   4.976 -0.4387 -0.1481 -0.0364
22410W        W38884   7.600   8.006   0.033 -0.0961  0.0788 -0.0423
22411W        W38885  12.979   4.444  11.402 -0.1150 -0.1185 -0.0367
22412W        W38886  19.599  11.736   2.333 -0.2487  0.0512 -0.2677
22413W        W38887  18.319  16.799  13.298  0.0500  0.1032  0.3688
22414W        W38888  11.998   5.115  13.130  0.0165 -0.3000  0.0673
22415W        W38889  10.212   4.993  10.393 -0.0872  0.0220 -0.0087
22416W        W38890  15.896  10.570  14.517 -0.0253 -0.1235  0.0011
22417W        W38891  14.319  10.687   0.493  0.3708 -0.1961 -0.1133
22418W        W38892  11.467   5.818  14.054 -0.0139 -0.2957 -0.1147
22419W        W38893  18.032  13.873   3.542 -0.2269 -0.2004  0.3329
22420W        W38894   9.325  12.705  13.849  0.1565  0.0425 -0.0589
22421W        W38895   3.528   0.829  14.278  0.3543 -0.0161 -0.0313
22422W        W38896   2.343   9.743   2.131 -0.1666 -0.1579 -0.0478
22423W        W38897  18.661  17.815  13.700 -0.0129 -0.2183 -0.0340
22424W        W38898  16.494  15.828  12.247 -0.0644 -0.2347  0.0666
22425W        W38899  15.749   1.110   2.079  0.3143  0.0553  0.3382
22426W        W38900   9.340   4.773   2.394  0.0256  0.1988  0.0842
22427W        W38901  19.180   7.979   4.273  0.0626 -0.1674  0.1289
22428W        W38902   9.067   4.878   1.375  0.0193 -0.1896  0.0269
22429W        W38903   3.262   5.075   0.924 -0.0340  0.2085 -0.0286
22430W        W38904   5.445   3.356  14.311  0.0145  0.1494 -0.3830
22431W        W38905  18.655   1.844   3.575 -0.1238  0.2502  0.4432
22432W        W38906  16.479  19.018   1.342  0.0166 -0.0070  0.1108
22433W        W38907  13.731   8.326  10.297  0.0448 -0.3152 -0.4037
22434W        W38908   0.583   1.747  13.894  0.2163 -0.3239  0.2980
22435W        W38909   4.265  17.196  13.489 -0.1315 -0.0853 -0.2431
22436W        W38910   6.066   9.230  13.573  0.2674  0.0954 -0.1459
22437W        W38911   0.502   8.413  11.884  0.4173  0.2518 -0.2722
22438W        W38912  12.970   9.951  12.489 -0.3656 -0.1268  0.3415
22439W        W38913  16.025  14.635  14.154 -0.3457  0.0086  0.0606
22440W        W38914  11.458  16.163   0.590  0.2353  0.0480  0.4051
22441W        W38915  15.237   9.879  10.474 -0.3142  0.1636 -0.3263
22442W        W38916  18.715   1.709  13.927 -0.1170 -0.0343 -0.0741
22443W        W38917   2.586  14.737  13.319 -0.2573  0.3445 -0.1750
22444W        W38918  13.217  11.584  11.393  0.0998  0.1308 -0.2238
22445W        W38919   2.543  16.639   1.976 -0.0646 -0.0030 -0.3036
22446W        W38920   8.754   9.828   3.922 -0.2711 -0.1399  0.1197
22447W        W38921   1.459  15.338   3.789  0.1512  0.0389  0.0850
22448W        W38922   7.504  11.444   3.392  0.3614 -0.0686 -0.3334
22449W        W38923  16.157   3.372   2.715  0.1348 -0.1610 -0.3124
22450W        W38924  12.949   1.310   1.997  0.2188  0.0879  0.0949
22451W        W38925   3.219   0.197   1.014  0.0778 -0.1411 -0.0193
22452W        W38926  16.614   3.528  12.772  0.1398 -0.1147  0.0425
22453W        W38927   5.159  13.851   0.714  0.0436  0.1565  0.0442
22454W        W38928  11.738   5.924  13.621 -0.0096 -0.0308  0.0131
22455W        W38929   8.144  19.090  11.751  0.0173  0.2314 -0.1286
22456W        W38930  16.491   1.036   1.653 -0.0977  0.0888  0.0919
22457W        W38931   9.371   7.769  13.339 -0.1577 -0.0137 -0.0736
22458W        W38932  18.991  11.480   0.012  0.0641  0.0477 -0.2137
22459W        W38933   0.337  15.318   3.201  0.1261 -0.2741 -0.2928
22460W        W38934   1.966  19.307   0.171 -0.0180  0.0423  0.5791
22461W        W38935  19.181   5.218   2.214 -0.0705 -0.0583 -0.0669
22462W        W38936   3.928   4.295  12.366  0.1905  0.2835 -0.1723
22463W        W38937  18.861  18.402  11.178  0.1135  0.0559  0.0878
22464W        W38938  10.744   3.765   0.303 -0.0076 -0.1400 -0.1518
22465W        W38939  14.046  17.059  13.299  0.0609 -0.2849  0.1004
22466W        W38940   1.850  18.137   1.078  0.1536  0.0382 -0.0360
22467W        W38941   6.387   5.445   4.924 -0.0476 -0.1784  0.0719
22468W        W38942  11.491  16.376   3.288 -0.1443 -0.1280 -0.1462
22469W        W38943   7.907  12.309   5.021 -0.0744 -0.3333  0.0881
22470W        W38944   4.675  17.657   4.110 -0.1174  0.1295 -0.0064
22471W        W38945  11.096  10.785   0.394 -0.0361  0.1289 -0.1536
22472W        W38946   1.610   1.035  13.709 -0.3415  0.1387  0.0384
22473W        W38947  17.639  16.630  10.452 -0.1071 -0.0351 -0.1514
22474W        W38948   0.050   8.412   0.788 -0.0209  0.0261 -0.2874
22475W        W38949  11.252   0.890   0.416  0.0701 -0.0307 -0.2001
22476W        W38950   5.893   4.702   4.789  0.0912 -0.1178  0.0938
22477W        W38951  19.293   7.064  13.398 -0.2756 -0.1808  0.2649
22478W        W38952   0.311  14.468  14.588  0.1594  0.2810  0.0530
22479W        W38953   2.297   6.193  11.231 -0.1321 -0.2039  0.0151
22480W        W38954  17.671  12.535  13.810 -0.1774  0.1664 -0.1715
22481W        W38955   6.152  16.321  10.323 -0.0578  0.0653 -0.1587
22482W        W38956   7.654   0.918  10.394 -0.0446  0.3279  0.0766
22483W        W38957   7.933  15.209  11.299 -0.2647  0.3183  0.0553
22484W        W38958  16.807   9.887   3.823  0.0805  0.0162 -0.3492
22485W        W38959  12.290   2.804  12.876 -0.1128  0.1275  0.1851
22486W        W38960   0.273  12.832  12.124  0.2024  0.0179 -0.1370
22487W        W38961   6.819   1.911   4.675  0.5341 -0.0401  0.0467
22488W        W38962   0.188   8.637   3.768  0.1687 -0.0665  0.0341
22489W        W38963  12.047   1.264  13.338  0.2364  0.4290 -0.0939
22490W        W38964  15.769  11.180   4.821 -0.2047 -0.4002  0.0592
22491W        W38965   3.760   6.381  12.601 -0.3018  0.1424  0.0177
22492W        W38966  12.745   5.054   0.846  0.4231 -0.0856  0.1873
22493W        W38967  18.240   1.132   1.507  0.0446 -0.0357 -0.1449
22494W        W38968  17.537   8.519  13.722 -0.0315  0.0983 -0.0588
22495W        W38969  16.222  19.288   0.454 -0.2295  0.0524  0.1124
22496W        W38970   9.738   0.802   4.415  0.2975  0.1781  0.1230
22497W        W38971  16.443  15.889   3.594  0.0139  0.0279  0.2227
22498W        W38972  17.880   5.826  12.273  0.2852  0.1908 -0.2180
22499W        W38973  15.987  18.912   1.712 -0.1560  0.2096 -0.0054
22500W        W38974   8.233   2.901  12.302 -0.1199  0.2581 -0.0169
22501W        W38975   2.428   7.590  13.361 -0.2435  0.1079 -0.1491
22502W        W38976   9.792   7.789  13.616  0.0811  0.3703  0.0155
22503W        W38977   4.158  14.529  11.154 -0.0957 -0.1208  0.3035
22504W        W38978  10.641   8.591  10.710  0.0061 -0.1422 -0.1831
22505W        W38979  12.015   1.898   1.961  0.1173 -0.2740 -0.0897
22506W        W38980  13.388   3.099  10.548  0.0810  0.1923 -0.0996
22507W        W38981  12.823  17.922   1.288 -0.0445 -0.0812 -0.1048
22508W        W38982   2.892   3.835   1.757  0.3186 -0.0155  0.1354
22509W        W38983   0.554  18.856   1.894  0.1910 -0.2636  0.1296
22510W        W38984  14.413   6.925   1.962  0.0736  0.0923  0.1127
22511W        W38985   4.468  12.213  11.667  0.1367  0.1899 -0.3636
22512W        W38986   0.208   3.942  13.714 -0.0400 -0.0776  0.3015
22513W        W38987  11.149   8.639  10.440  0.0165  0.1114 -0.0013
22514W        W38988   4.791   9.138   4.149  0.0602  0.2686  0.2019
22515W        W38989   3.443   7.038  14.430  0.2541 -0.1574 -0.1118
22516W        W38990  19.359   3.415  11.716  0.1706 -0.5857  0.3263
22517W        W38991  16.163   4.541  12.430 -0.2026 -0.3701  0.0234
22518W        W38992  17.358   8.170  13.392 -0.0922  0.3263  0.1840
22519W        W38993  13.427   3.973   0.953 -0.1222  0.0630 -0.0923
22520W        W38994  17.556   3.507  12.598  0.0505 -0.0426  0.2468
22521W        W38995   7.681   8.979  12.234 -0.0973  0.2393  0.1698
22522W        W38996   5.727   3.979  10.774 -0.1433  0.4672 -0.0887
22523W        W38997   8.358  13.773  13.075 -0.1270 -0.0885  0.0891
22524W        W38998  18.035  17.387   2.145 -0.1393 -0.2961 -0.1355
22525W        W38999   4.334   7.294  13.421  0.3190  0.0122 -0.1474
22526W        W39000   7.880   3.226  12.378  0.1645 -0.3770  0.0309
22527W        W39001  12.209  11.435   0.949  0.0149 -0.3134 -0.2264
22528W        W39002   6.224   5.272   2.690  0.0616 -0.0456  0.0366
22529W        W39003  11.606   0.760  10.442 -0.4535 -0.0844  0.0109
22530W        W39004   4.541   2.099  10.486  0.1586 -0.0469  0.0892
22531W        W39005   6.882  16.277   2.955 -0.2210 -0.0720 -0.1450
22532W        W39006   3.597  15.185   9.620 -0.2139  0.1197  0.2146
22533W        W39007   0.953  10.048  13.814  0.2132 -0.0861 -0.0617
22534W        W39008  14.958   4.665   1.992 -0.1374 -0.0238  0.1747
22535W        W39009   2.963   3.278  13.395  0.3017 -0.0248 -0.1167
22536W        W39010   8.131  17.020   4.852  0.0388  0.0382 -0.0606
22537W        W39011  13.342  10.589  13.899 -0.1128  0.1880 -0.0220
22538W        W39012  16.296  12.306   1.922 -0.3407 -0.3987  0.1486
22539W        W39013   7.632   1.383   4.882 -0.1857  0.0169 -0.1663
22540W        W39014   8.202   3.230  13.250 -0.1282 -0.0964 -0.3844
22541W        W39015  14.796  14.894   4.022 -0.5209  0.0349  0.1411
22542W        W39016  18.165   8.227   2.791  0.2930  0.1616  0.1342
22543W        W39017   9.975   8.177   1.042 -0.0130  0.1714 -0.0585
22544W        W39018  14.673  10.164  13.408 -0.0664 -0.0559  0.0707
22545W        W39019   0.710   7.930  11.739 -0.2670  0.0879  0.1169
22546W        W39020  14.961  12.643   1.857 -0.1533  0.0847  0.0461
22547W        W39021   5.688   0.064   1.168 -0.0127  0.3313  0.3447
22548W        W39022   5.708   9.625   9.474  0.2650  0.1599  0.2513
22549W        W39023   7.625  18.244   1.870 -0.1537 -0.0710  0.1309
22550W        W39024   3.974  12.031  12.314 -0.2562  0.0876 -0.0073
22551W        W39025   6.684  15.068   3.272 -0.0175 -0.2410  0.1340
22552W        W39026   1.016  13.342   2.971  0.1038  0.1132 -0.1826
22553W        W39027   7.587  11.531   4.824 -0.0998 -0.1203 -0.1104
22554W        W39028   5.242  19.506   2.404 -0.0248  0.2280  0.3391
22555W        W39029   1.166  14.266  13.545 -0.1615  0.0638  0.1222
22556W        W39030  18.463   9.178  10.385  0.2600 -0.1362  0.0675
22557W        W39031   9.161  18.352   1.890  0.2299 -0.2131  0.1210
22558W        W39032  14.036   2.508  13.605  0.0041 -0.1380 -0.0074
22559W        W39033   2.580  13.093   4.879  0.0307 -0.0737 -0.0007
22560W        W39034   9.566  16.193   3.709 -0.1490 -0.2298  0.0448
22561W        W39035   3.045  16.768   4.757  0.0193 -0.3806  0.0012
22562W        W39036   3.207  11.089  13.077  0.4983  0.1321  0.0009
22563W        W39037   3.483  16.083  11.770  0.2182  0.1575  0.0618
22564W        W39038   4.163   5.447  13.310 -0.1541 -0.0609  0.0740
22565W        W39039  10.379  13.490  10.901 -0.2418 -0.2395 -0.1894
22566W        W39040  16.465  14.626   1.405  0.0893 -0.2726  0.2214
22567W        W39041  12.652  12.798  12.895  0.2013 -0.1536  0.0632
22568W        W39042  15.546   2.518   3.386  0.3091  0.2762 -0.2351
22569W        W39043   5.893  10.875  13.233 -0.1841  0.1890  0.0622
22570W        W39044   6.390   0.210  14.625  0.1259 -0.2041 -0.2599
22571W        W39045   7.786   7.384  11.192 -0.1211  0.0320  0.0357
22572W        W39046   9.729  16.355   0.596 -0.2408  0.1659  0.4140
22573W        W39047   8.803   2.061   0.791 -0.4083  0.1927 -0.2596
22574W        W39048  15.945  13.450   1.556  0.0858 -0.2021 -0.2256
22575W        W39049  11.734  15.990   0.996 -0.0908 -0.3167  0.0822
22576W        W39050   7.079  13.193   9.825 -0.2397 -0.2595  0.2059
22577W        W39051   7.864   0.486  11.349 -0.1344  0.1533 -0.0236
22578W        W39052   3.887  17.950   1.220 -0.4025 -0.1359  0.2364
22579W        W39053   6.645   4.188  10.368  0.0407 -0.3177  0.0266
22580W        W39054   0.820  12.719  12.065  0.0160  0.1545  0.2217
22581W        W39055  13.398  12.791   0.404 -0.3282  0.2253  0.0708
22582W        W39056  11.390   8.252   2.592  0.2381 -0.0503  0.1821
22583W        W39057   0.138  17.442   2.908 -0.0648  0.1557  0.0444
22584W        W39058  16.205  16.048   2.363 -0.1262  0.3223 -0.1167
22585W        W39059   8.986  16.223   0.403  0.1149 -0.1654  0.3551
22586W        W39060   4.330  13.801   4.677  0.3576  0.2051 -0.0180
22587W        W39061  14.326  10.359   3.042  0.1630 -0.2025  0.0013
22588W        W39062   7.420  11.049   5.262 -0.1791  0.1835  0.0072
22589W        W39063  10.566   6.387   0.243  0.0192  0.3098 -0.0245
22590W        W39064   3.044  15.100  11.313 -0.1714  0.0524  0.0362
22591W        W39065  19.118  15.797  11.190  0.2613  0.0705  0.1695
22592W        W39066   9.858  18.905  12.840  0.3360  0.1240 -0.3363
22593W        W39067  15.806   0.798  13.576 -0.4672  0.0312 -0.4886
22594W        W39068  15.015  14.166   4.422  0.3268 -0.1423 -0.0134
22595W        W39069  12.626  13.814   3.345 -0.0475 -0.0221  0.1062
22596W        W39070  14.863   6.958  14.130 -0.0165 -0.1890 -0.1634
22597W        W39071  12.174  17.418   1.290  0.0444  0.2633 -0.0011
22598W        W39072   3.935  10.492   1.750  0.0408 -0.0190  0.2272
22599W        W39073   9.682  16.561  14.262  0.0626  0.2097  0.0928
22600W        W39074  16.270   5.603   3.594 -0.2755  0.0925  0.1003
22601W        W39075   1.243  13.152  11.339  0.1375 -0.0376 -0.1990
22602W        W39076   9.125  13.351  11.343  0.4480 -0.1447  0.4686
22603W        W39077   4.322  18.869  12.576  0.4143 -0.3195  0.0804
22604W        W39078   5.222  12.073  13.410 -0.1731  0.0604 -0.1953
22605W        W39079  12.955   1.055   3.788  0.2205 -0.1557 -0.1721
22606W        W39080   3.921  13.849   1.142  0.2504  0.0107  0.0533
22607W        W39081   3.205  12.229   2.177  0.0826  0.1285 -0.0306
22608W        W39082   6.269  18.425  11.730 -0.5173 -0.0383  0.2397
22609W        W39083   4.069  14.985  11.920  0.0371 -0.2748  0.0309
22610W        W39084   3.599   0.161  11.871  0.1014 -0.0881  0.2048
22611W        W39085  16.388   6.166   5.410 -0.1415 -0.2663  0.3099
22612W        W39086   8.015   2.951   0.830 -0.4645  0.1730  0.0776
22613W        W39087   2.454  17.145   3.609 -0.0933  0.1574 -0.4127
22614W        W39088   8.545  18.203   2.968  0.0914  0.4356  0.1705
22615W        W39089  12.168  19.548   1.375 -0.1914 -0.1365  0.4297
22616W        W39090  12.719   7.316   3.745  0.0705  0.2611  0.0968
22617W        W39091  13.157  12.537  13.231  0.2149 -0.0068  0.2958
22618W        W39092  17.778   4.782   9.850 -0.5932 -0.1365 -0.0859
22619W        W39093   9.636  12.340   2.466 -0.1570  0.0768 -0.1887
22620W        W39094   0.485   6.786   3.298 -0.0788  0.0431  0.2224
22621W        W39095   6.579   5.889  11.236  0.0036  0.0450  0.2359
22622W        W39096   5.086   7.992   1.302 -0.3456  0.1083  0.0713
22623W        W39097   6.992  17.608   3.643  0.1978  0.0501  0.0056
22624W        W39098  13.033   0.822   0.173  0.1916 -0.2468  0.1609
22625W        W39099  12.347   3.439  11.911 -0.0451 -0.2181 -0.0268
22626W        W39100  15.075  19.012   1.500 -0.0808  0.1561  0.0930
22627W        W39101  12.463  14.138   0.887 -0.0037 -0.1639  0.0012
22628W        W39102   0.972  16.448   2.878 -0.2068  0.0792 -0.1528
22629W        W39103   8.336   3.811   8.815 -0.2778 -0.1256  0.0093
22630W        W39104  15.847   0.783   3.664 -0.1478  0.6636 -0.0264
22631W        W39105  15.038  15.693   4.713 -0.0156  0.2831  0.3303
22632W        W39106  10.416   4.082   8.608  0.1114 -0.0415  0.0963
22633W        W39107   8.444   9.812  14.255  0.1256  0.3320 -0.0070
22634W        W39108  18.677   2.250  14.657  0.1655 -0.1059 -0.2483
22635W        W39109   7.593   4.591   0.224  0.0886  0.0957 -0.0387
22636W        W39110   5.388  10.117   3.461 -0.3701  0.2420  0.1773
22637W        W39111  17.142  17.606   3.708  0.0228 -0.2070  0.4587
22638W        W39112   4.285   7.166  12.851  0.2592 -0.0465 -0.1837
22639W        W39113   8.260  13.226   1.347  0.0175 -0.0198 -0.2116
22640W        W39114   3.692  18.331   0.848  0.3983 -0.1764 -0.0533
22641W        W39115  14.235   5.635  13.863 -0.1631  0.0258 -0.0043
22642W        W39116   2.224  12.635  10.376  0.1246 -0.0294  0.1963
22643W        W39117  15.174  16.740  12.957 -0.0061 -0.1109  0.0139
22644W        W39118   2.565   2.568   1.468 -0.1582 -0.0249  0.0221
22645W        W39119  16.821  15.489   4.079 -0.2808 -0.1373 -0.3147
22646W        W39120   1.719   9.395  10.947  0.2299 -0.0251 -0.2355
22647W        W39121  18.108  12.053   2.616  0.1249  0.3194 -0.2422
22648W        W39122  10.692  11.789  11.184  0.1865  0.3429  0.3573
22649W        W39123  15.889   1.019  14.086 -0.3239  0.4408 -0.1375
22650W        W39124  11.167  13.017  11.024 -0.4697 -0.2276  0.2440
22651W        W39125  16.477   4.928  12.387 -0.1829  0.2328  0.1736
22652W        W39126  14.159  17.712  11.126 -0.1035 -0.0579 -0.0018
22653W        W39127  19.512  18.057   3.627  0.5235  0.1046  0.0839
22654W        W39128  18.590  11.577  12.910 -0.1372 -0.1957  0.0568
22655W        W39129  19.042   8.973   3.063 -0.3894  0.1571  0.0416
22656W        W39130  16.995   0.717   5.039 -0.2339  0.0623  0.1489
22657W        W39131  11.267  18.849  11.001 -0.2048 -0.3612  0.1157
22658W        W39132  15.719   7.262   4.295 -0.0417  0.0258 -0.0803
22659W        W39133   9.591   3.726  10.558 -0.1194 -0.0406  0.1266
22660W        W39134   5.565   4.608  10.052 -0.1400 -0.4830  0.0584
22661W        W39135   5.152  18.420  12.992  0.1307  0.0338  0.1592
22662W        W39136   9.261   4.606   4.055 -0.1532 -0.1970  0.0134
22663W        W39137   5.912   1.978   3.125  0.1561 -0.5535  0.0533
22664W        W39138   9.674  14.338  11.470  0.1604 -0.0601 -0.1985
22665W        W39139   9.703  15.594  10.111 -0.0268  0.2567  0.0203
22666W        W39140   1.520   7.981  13.289  0.2811  0.1503  0.0625
22667W        W39141   0.550  13.214   3.483  0.0067 -0.2935  0.0874
22668W        W39142   0.569   5.927   0.486 -0.0499 -0.0957  0.1693
22669W        W39143   8.963   8.680   2.978  0.0300  0.3430 -0.2229
22670W        W39144  14.343  17.264   9.981 -0.0669  0.0432 -0.0277
22671W        W39145  10.569   5.275  12.080 -0.2898 -0.5230 -0.1199
22672W        W39146  14.460  17.459   2.134  0.0797  0.1338 -0.3040
22673W        W39147  10.507  16.439   2.666 -0.2105 -0.2900 -0.0074
22674W        W39148  10.377  12.873   0.833  0.1216  0.0029  0.0101
22675W        W39149  16.120   5.955   1.390  0.2121 -0.0049  0.0408
22676W        W39150  12.440  17.561  11.515  0.1075  0.0737 -0.0774
22677W        W39151  18.516  16.291   1.411  0.3991  0.0762  0.1188
22678W        W39152   3.093  13.884   0.334  0.1746  0.3428 -0.1543
22679W        W39153   9.359  10.046  11.481 -0.4353 -0.2551 -0.2419
22680W        W39154   4.333  10.298   3.983  0.0128 -0.0493  0.2021
22681W        W39155   8.092   4.615   9.209  0.1476  0.1314  0.0158
22682W        W39156  16.389  12.491  13.629  0.0722  0.0412 -0.0833
22683W        W39157  14.951  11.656   3.210 -0.1612  0.1839 -0.0633
22684W        W39158  17.645  18.242   4.755  0.0494 -0.0058  0.1409
22685W        W39159  17.104   7.225   4.967 -0.3699  0.2045  0.0278
22686W        W39160  10.349  17.762   4.901 -0.1533  0.1317  0.0667
22687W        W39161   7.883   1.947   9.225  0.2317  0.1730 -0.0644
22688W        W39162  10.213   0.085   3.284 -0.0888  0.2368  0.2251
22689W        W39163  18.461   7.685  11.782 -0.1993 -0.2517  0.4179
22690W        W39164   3.873  16.859  10.740 -0.1640  0.1999  0.0014
22691W        W39165   9.127  10.059   1.345 -0.0259 -0.2800  0.1840
22692W        W39166   5.705   1.674   1.931 -0.0061  0.2433  0.0275
22693W        W39167   0.144   7.368  12.677 -0.0134  0.2371  0.2621
22694W        W39168   1.976  15.170   2.796  0.0708  0.2243 -0.3790
22695W        W39169   8.568   9.863  12.719  0.0376  0.0164  0.2088
22696W        W39170  16.245   9.010   4.629  0.0915  0.0901 -0.1641
22697W        W39171   4.966   7.572   3.910 -0.1145  0.3477 -0.3005
22698W        W39172  16.436  14.511  10.929  0.3497 -0.1088  0.1604
22699W        W39173   3.648  13.711   0.149 -0.0295 -0.0161 -0.1636
22700W        W39174  18.258   6.203   3.902 -0.0495  0.0084  0.1943
22701W        W39175  18.800  15.577  13.786  0.0081 -0.1735 -0.1118
22702W        W39176  18.095  17.461  11.352 -0.2272  0.1267 -0.0715
22703W        W39177  17.232  14.003   2.427 -0.2013  0.1792 -0.3672
22704W        W39178   5.502   2.027  11.116 -0.2295  0.3751  0.1841
22705W        W39179   0.432   0.337   2.160 -0.2187  0.1586 -0.2526
22706W        W39180  11.527  19.436  13.334  0.3899  0.2302  0.3975
22707W        W39181  11.581  13.288   0.482 -0.1469 -0.0744 -0.1768
22708W        W39182  14.270   4.306   3.035  0.4418 -0.0029 -0.0279
22709W        W39183  11.275   7.293  10.366  0.0167  0.0731  0.2291
22710W        W39184  16.876   0.605  10.321 -0.0168  0.2951  0.1443
22711W        W39185  10.800  10.290   3.997  0.4452 -0.0945  0.2181
22712W        W39186   2.524   1.913   2.417 -0.1054 -0.1931  0.2249
22713W        W39187  11.881   5.656  13.227  0.3699 -0.1804 -0.1927
22714W        W39188  19.542  10.129  10.486 -0.1326 -0.0803 -0.0088
22715W        W39189  18.129  11.519   4.009 -0.4318  0.2655 -0.1543
22716W        W39190   7.807   1.168  14.068  0.1099 -0.3040  0.2355
22717W        W39191  19.227   8.297   4.767 -0.0764 -0.0730 -0.1201
22718W        W39192  16.038  10.782   0.365  0.3598 -0.2910 -0.0188
22719W        W39193  16.312   9.720   2.668  0.3309 -0.0463  0.2131
22720W        W39194   6.801   2.622  12.188 -0.1922  0.0720 -0.3389
22721W        W39195  13.552  14.848   0.573 -0.1394 -0.2049 -0.0768
22722W        W39196   9.680  16.741  11.595  0.5253 -0.0315 -0.3842
22723W        W39197   4.057  17.616  13.214  0.1961 -0.4206 -0.3406
22724W        W39198  17.871   9.399  13.566 -0.1431 -0.1191 -0.0305
22725W        W39199   1.940  11.406  11.639  0.1027  0.0686 -0.1287
22726W        W39200   1.716  15.146  14.464  0.2986 -0.1501 -0.1181
22727W        W39201  16.493  13.027  12.059  0.2537  0.1999 -0.0666
22728W        W39202   6.923   4.690   1.564  0.3057 -0.2423  0.2343
22729W        W39203   1.274  17.975  10.226 -0.0373  0.1558 -0.0450
22730W        W39204   0.923  12.329  11.630  0.3290 -0.2223  0.0547
22731W        W39205  18.779   7.187  11.240  0.0073 -0.0756  0.1204
22732W        W39206   7.574  14.825  13.499 -0.0942 -0.0049  0.1185
22733W        W39207   5.346   5.375  14.619 -0.3435 -0.0512 -0.0744
22734W        W39208  13.682   2.563  13.085 -0.2809 -0.1427  0.0748
22735W        W39209   9.221  12.382  12.703  0.0871  0.1096  0.1357
22736W        W39210   4.569   3.813  11.589  0.1084  0.4139 -0.1545
22737W        W39211   2.613   9.530   0.039  0.1100 -0.0097 -0.2948
22738W        W39212  10.793  13.688   2.821  0.1924  0.3191 -0.1958
22739W        W39213   5.497   2.977  10.721 -0.2355  0.3699 -0.1063
22740W        W39214  10.038  19.477  11.954 -0.1464 -0.0913  0.2626
22741W        W39215   9.888  17.172   1.842  0.2584 -0.4461  0.3062
22742W        W39216  18.627   7.536  10.876 -0.0554  0.1110 -0.0724
22743W        W39217   1.657  19.154   1.391  0.0585  0.1085  0.2683
22744W        W39218  15.074   3.603  12.439 -0.1655  0.0340 -0.0440
22745W        W39219   9.486   2.802   3.517  0.0458  0.1087 -0.0535
22746W        W39220  17.956   8.584   4.529  0.0237  0.4355 -0.1456
22747W        W39221   5.651  19.320  11.737 -0.2460  0.0365  0.1351
22748W        W39222  15.362   5.996  10.860 -0.1269 -0.1109 -0.0765
22749W        W39223  14.230  13.103  14.583 -0.0647  0.0053  0.0015
22750W        W39224  17.326  13.186   1.739  0.1995  0.0539  0.2036
22751W        W39225   9.077   4.011  12.243 -0.3329 -0.2393 -0.0828
22752W        W39226   4.880  16.397  10.528  0.0351 -0.1585  0.1365
22753W        W39227  16.196  18.468   2.285  0.3031 -0.2475 -0.3925
22754W        W39228  15.699  13.309  10.004  0.4733 -0.2964 -0.2097
22755W        W39229   8.630  13.542   0.580  0.1069 -0.1962  0.0452
22756W        W39230   5.129  18.212   1.288  0.1350 -0.1541  0.2358
22757W        W39231  18.357  13.217  11.965 -0.2637 -0.1187 -0.3400
22758W        W39232  19.191   7.822  13.341 -0.2064  0.0881 -0.1683
22759W        W39233  10.793  19.210   1.778  0.1573  0.0505 -0.0725
22760W        W39234   0.074   7.589   5.341 -0.0824  0.0969  0.2270
22761W        W39235   8.355   3.736   0.718  0.3415 -0.2188  0.0783
22762W        W39236  16.346  16.498   2.183  0.0707  0.0673  0.0522
22763W        W39237  14.349   8.245   0.803 -0.2902  0.2514 -0.0650
22764W        W39238  14.524  14.066   1.809  0.0155  0.1315 -0.0576
22765W        W39239   8.801  19.074  10.496 -0.1414 -0.1492  0.1723
22766W        W39240  10.471   9.100  11.851 -0.0886 -0.2590 -0.2895
22767W        W39241  12.360  15.649   0.202 -0.1134 -0.1057 -0.1186
22768W        W39242  17.540  18.766  14.347 -0.2414 -0.2976 -0.1034
22769W        W39243   7.868   3.542   3.028  0.0236  0.1746  0.5051
22770W        W39244   1.432   8.707   0.050 -0.1230  0.1437  0.3202
22771W        W39245   4.944   2.871  10.825  0.1391 -0.1402 -0.1329
22772W        W39246   0.520   3.952  10.590  0.0124  0.0360  0.1899
22773W        W39247  17.756  18.498  12.443 -0.0867 -0.1054  0.1748
22774W        W39248   3.203  17.940   2.663 -0.1648 -0.0995  0.2106
22775W        W39249  12.958   0.748  14.333  0.1066 -0.2298 -0.0024
22776W        W39250  17.645  14.264  10.071 -0.1475 -0.1310  0.0670
22777W        W39251  12.169   2.162   0.814  0.2729 -0.0509  0.1710
22778W        W39252   2.402  10.993  14.412  0.0089 -0.2129 -0.1008
22779W        W39253  15.362  11.625   5.544 -0.1759  0.0810 -0.1115
22780W        W39254   7.520   9.407   4.552  0.2381  0.2412 -0.4229
22781W        W39255  14.951   5.449  12.831  0.2004  0.1636  0.1750
22782W        W39256  14.579   2.996   2.552 -0.1106  0.0925  0.1144
22783W        W39257  17.518  10.041  11.411  0.0019  0.0519 -0.2519
22784W        W39258   3.711  12.338   3.935 -0.1990  0.0703  0.0454
22785W        W39259  18.720   6.639  13.472 -0.0695  0.2607 -0.2213
22786W        W39260  14.033  15.293  10.888 -0.0390 -0.2243  0.0466
22787W        W39261  10.626  17.793   3.394 -0.0976 -0.1337  0.0561
22788W        W39262   0.848  16.751   1.453 -0.1045 -0.0188  0.2486
22789W        W39263  14.926   6.163  13.591 -0.2182  0.1901  0.0817
22790W        W39264   3.108  17.258   1.052 -0.0324  0.1605  0.0960
22791W        W39265  14.585   7.372   0.241  0.0121 -0.2665 -0.0980
22792W        W39266   9.356  16.541   4.112  0.0631  0.0986  0.2118
22793W        W39267  15.959  18.604   2.839 -0.0908 -0.0520  0.2397
22794W        W39268   7.658  10.618   5.209  0.1380  0.4469  0.3861
22795W        W39269   9.009  16.662  10.844 -0.0173 -0.0439 -0.0807
22796W        W39270   5.329  13.990   2.579  0.0778  0.1256  0.0592
22797W        W39271   7.148  16.265   4.239 -0.1013  0.1510 -0.1679
22798W        W39272  19.184   4.699  10.713  0.0994 -0.0049 -0.0565
22799W        W39273   5.330  15.586   0.510  0.1213  0.1780 -0.0698
22800W        W39274   5.822   4.203   0.901  0.0099 -0.0803 -0.0110
22801W        W39275   1.920   2.164  14.317 -0.1297  0.3099  0.2212
22802W        W39276  16.027  18.544  10.359  0.2027 -0.1114 -0.0680
22803W        W39277  19.123   2.021  11.153 -0.1191 -0.1961 -0.1391
22804W        W39278  12.522   6.990   9.737  0.1678 -0.2059 -0.3552
22805W        W39279   8.044   6.702  14.142 -0.2381 -0.2417  0.1291
22806W        W39280  16.892   1.791  11.306 -0.0036 -0.2085  0.0842
22807W        W39281  19.456   9.477  14.317  0.2397  0.0417  0.1816
22808W        W39282  10.425   9.429   2.166 -0.0366 -0.3060  0.0221
22809W        W39283   6.972   8.647  12.874  0.2685 -0.1002 -0.1442
22810W        W39284  18.198  16.171  11.211  0.3741  0.0802 -0.0563
22811W        W39285  13.330  12.246   4.899 -0.0487  0.0780  0.0591
22812W        W39286  19.321  16.159   4.988  0.1049  0.0103 -0.1268
22813W        W39287   6.472  10.813   0.715  0.2935 -0.4307  0.1386
22814W        W39288  14.991   5.972  12.940 -0.0415 -0.3287  0.0315
22815W        W39289   2.073  12.018   2.578  0.1803 -0.0044  0.2417
22816W        W39290   4.172  17.815   9.925 -0.0612 -0.0119 -0.2616
22817W        W39291  10.685  16.884   0.300 -0.3151 -0.2439 -0.1624
22818W        W39292   9.571   8.302   4.379  0.0633  0.2933 -0.1619
22819W        W39293   0.480  18.814  12.369  0.2699 -0.1060  0.3130
22820W        W39294   2.083   7.249  13.500  0.0674  0.2827  0.1942
22821W        W39295  18.306   1.223  14.452  0.0012 -0.1451  0.0407
22822W        W39296   0.809   7.458   1.614 -0.0889  0.0215 -0.0035
22823W        W39297   8.963  13.598   1.367  0.0203 -0.0195 -0.1455
22824W        W39298   2.807   1.447   0.288  0.0352  0.0318  0.2089
22825W        W39299   3.520  18.038  13.366 -0.3519  0.2026  0.0282
22826W        W39300   4.639  16.381   1.603  0.2377 -0.1828 -0.1017
22827W        W39301  16.166   7.004  10.543 -0.1307 -0.1270  0.0327
22828W        W39302  13.237   5.120   0.514 -0.3450  0.0539  0.0540
22829W        W39303   4.026   7.478   3.224 -0.1255 -0.0147  0.1057
22830W        W39304   6.133  14.458   0.442  0.0970 -0.0976 -0.0575
22831W        W39305  14.644  10.737   3.493 -0.1546  0.2319  0.0185
22832W        W39306   6.524   0.053   4.654 -0.0943 -0.0936 -0.2360
22833W        W39307  15.674  18.513   1.071 -0.0495  0.1747 -0.3567
22834W        W39308  12.494  10.898   4.268  0.0901 -0.1765 -0.3567
22835W        W39309   8.076   3.926  11.532  0.3778  0.4429 -0.3957
22836W        W39310   0.028   6.161   1.364 -0.0447 -0.1380 -0.1906
22837W        W39311   9.869  14.830   1.590  0.1143  0.1641 -0.0080
22838W        W39312   3.408   1.905   2.874  0.0802  0.0123 -0.1142
22839W        W39313   7.277   2.096   0.066 -0.0561  0.0252 -0.1301
22840W        W39314   8.513  12.512   4.166  0.3361  0.3350  0.3317
22841W        W39315  12.479  13.272  14.089  0.1558 -0.0771  0.0346
22842W        W39316   3.632   5.920   2.685 -0.1448  0.0096  0.2693
22843W        W39317  14.253   2.478   1.745  0.2506  0.2393  0.0444
22844W        W39318   0.406   8.181  12.421 -0.1194 -0.0201  0.2553
22845W        W39319  10.649  16.801  14.438  0.2323 -0.0492  0.2756
22846W        W39320   9.985  15.663   4.097  0.1553  0.0199 -0.0547
22847W        W39321   0.245   8.977   3.384 -0.0230  0.1997  0.3053
22848W        W39322  15.181  12.123   2.460 -0.1313 -0.0042 -0.0213
22849W        W39323  18.070  14.050  10.373  0.2209 -0.0419  0.1428
22850W        W39324   3.613   4.009  13.811  0.0348 -0.1092 -0.1220
22851W        W39325   7.556   9.212   2.221  0.0291  0.0503 -0.1128
22852W        W39326  16.851   8.544   1.257  0.3694  0.0846  0.1067
22853W        W39327  18.047   0.427  13.967 -0.0933 -0.0068 -0.1803
22854W        W39328   1.422  13.253  10.443 -0.0386 -0.1399 -0.1373
22855W        W39329  18.261  16.852   4.817  0.0187  0.0290  0.3893
22856W        W39330  16.853   8.189  14.336  0.0133 -0.0794  0.1229
22857W        W39331  14.687   8.093   2.629  0.1471 -0.0010 -0.0532
22858W        W39332  15.449   5.230   9.270 -0.2026  0.0132 -0.2154
22859W        W39333  16.424   6.271  12.451  0.0373 -0.1742  0.6277
22860W        W39334   2.884   5.278  12.304 -0.2318 -0.1907  0.1373
22861W        W39335   9.987  16.216   1.989  0.0654 -0.1790 -0.1397
22862W        W39336  16.112   9.487   4.233  0.0239 -0.2912  0.2035
22863W        W39337   3.512   9.765   0.679  0.1384  0.1070 -0.1411
22864W        W39338  11.435   1.820   3.781 -0.1225  0.0442 -0.0724
22865W        W39339   5.015  12.316  13.817  0.1760 -0.0135 -0.1365
22866W        W39340   4.838   5.277   5.027 -0.1583  0.2191  0.3152
22867W        W39341  18.743  16.765  12.464 -0.0422 -0.0866  0.1981
22868W        W39342  14.791   0.225   3.468  0.1880  0.1454  0.1074
22869W        W39343  13.011  12.046  12.245  0.1127 -0.0276 -0.0948
22870W        W39344   9.526  11.817   0.222  0.2766  0.1587  0.0218
22871W        W39345   1.319  18.407  10.863  0.0325  0.2018  0.0595
22872W        W39346  16.222  17.265  14.631  0.0698  0.1585  0.0153
22873W        W39347  18.210  11.528   2.665 -0.0957  0.0070  0.0266
22874W        W39348   7.545  12.941  14.411 -0.3728 -0.2551 -0.1372
22875W        W39349   3.136   5.943  13.879 -0.0921  0.0974 -0.3200
22876W        W39350   9.717  17.955  10.581  0.0084 -0.1732 -0.0536
22877W        W39351  16.774  17.032   4.976  0.1245 -0.0771 -0.2654
22878W        W39352  17.916   5.753  10.986 -0.2016 -0.0191  0.0151
22879W        W39353  12.218  17.546  12.800  0.2478  0.1630 -0.4958
22880W        W39354   4.614   1.798  12.559 -0.1912  0.1335 -0.1211
22881W        W39355  18.659  13.637   3.385  0.3732  0.1971  0.0063
22882W        W39356  11.546  19.052   4.730  0.0263 -0.1547  0.1069
22883W        W39357   8.471   3.994   3.207 -0.2760  0.1992 -0.1211
22884W        W39358  18.884  13.263   4.766  0.1164  0.0018 -0.0601
22885W        W39359  16.514  17.648  12.577  0.1534 -0.0823 -0.1188
22886W        W39360   9.884  10.899  12.984 -0.0615  0.2375 -0.2028
22887W        W39361  12.256  12.223   4.876 -0.0636  0.1844 -0.5949
22888W        W39362   3.837  16.271  12.639 -0.4181  0.1366 -0.0805
22889W        W39363  13.288   9.822  10.667 -0.1909 -0.0847 -0.4182
22890W        W39364   9.790   9.917  10.060 -0.0190 -0.0088 -0.3486
22891W        W39365   4.294  16.951   2.318  0.0221  0.0083  0.2757
22892W        W39366   9.726   9.515   0.231 -0.0231  0.1555 -0.0120
22893W        W39367  16.869  13.218   0.564  0.0893 -0.1914 -0.0103
22894W        W39368  18.785   2.563   3.111 -0.0926  0.4702 -0.4485
22895W        W39369  15.369  17.533   2.735  0.2202  0.0341  0.1491
22896W        W39370   0.755   2.194   3.291  0.0309 -0.3096  0.0116
22897W        W39371  12.324  15.136  12.118  0.0027 -0.0515 -0.0146
22898W        W39372   2.113   8.445   1.496 -0.2644  0.0716  0.3580
22899W        W39373   4.723   9.117  11.463 -0.0455 -0.2385  0.0537
22900W        W39374  15.029  11.302  14.050 -0.3833 -0.2648  0.0812
22901W        W39375   4.614  12.814  13.134 -0.0040  0.0485  0.0890
22902W        W39376  15.782   1.681   9.246 -0.2385 -0.1958 -0.1883
22903W        W39377   2.128   7.364  10.331  0.1480  0.0379 -0.3906
22904W        W39378  10.006  17.918  11.007  0.0672 -0.0672 -0.0280
22905W        W39379   9.283  14.029  14.034  0.0957 -0.0048 -0.2927
22906W        W39380  15.460  13.704   0.046 -0.4606 -0.1901 -0.0745
22907W        W39381  19.164   8.728   0.891 -0.3033  0.2516 -0.0369
22908W        W39382   1.881   4.427  11.165  0.1403 -0.0171 -0.1378
22909W        W39383   2.594  13.952  12.330 -0.0681 -0.0979 -0.0572
22910W        W39384  14.243  11.720   2.661  0.0515  0.2401  0.3156
22911W        W39385  13.518   2.209  11.685  0.0007 -0.2639 -0.2940
22912W        W39386   1.262  12.477  10.632 -0.0220  0.0140  0.1887
22913W        W39387   0.178  18.629   2.176  0.0967  0.0574  0.1249
22914W        W39388  10.351  12.768   2.584  0.2235 -0.1303  0.0648
22915W        W39389   2.529   2.724   0.390  0.1303  0.0702  0.0799
22916W        W39390  14.792  13.087  14.635  0.4182 -0.0965  0.0336
22917W        W39391  11.423  16.401  10.943  0.0646  0.3172 -0.1198
22918W        W39392   8.006  12.749  12.755  0.1083 -0.2603 -0.2418
22919W        W39393   6.611  17.861   1.578  0.0915 -0.2903  0.1223
22920W        W39394   7.895   2.280   3.695  0.2439 -0.3594 -0.0316
22921W        W39395   8.150   7.739   5.345 -0.0963  0.2209  0.0512
22922W        W39396   9.190   1.539   1.357 -0.0244 -0.2734  0.0209
22923W        W39397  11.626   4.843   1.746 -0.4894  0.3038  0.1305
22924W        W39398   7.962  17.065  14.596 -0.1755  0.0580  0.2723
22925W        W39399  11.279   1.231  11.683 -0.0217  0.0966 -0.0544
22926W        W39400  12.937   0.407   3.661  0.0564  0.0961 -0.1268
22927W        W39401  11.023  18.189   1.599 -0.1943  0.2681  0.1854
22928W        W39402  14.323  16.123   4.215  0.1562  0.0341 -0.1706
22929W        W39403   2.576   0.606   9.571 -0.0261  0.0174  0.0884
22930W        W39404  13.273  16.898  10.184  0.2691  0.0827  0.1176
22931W        W39405  10.285   4.713   3.364 -0.0269 -0.0044  0.0472
22932W        W39406  12.025  15.150   4.799  0.0395 -0.0826 -0.0896
22933W        W39407   5.800  10.813  14.632  0.2158 -0.4120  0.0808
22934W        W39408   3.279   0.323  13.167 -0.1242 -0.2412  0.1336
22935W        W39409   0.438   3.093   9.888  0.1893 -0.1245  0.5127
22936W        W39410  10.194   6.461  12.407 -0.1174  0.0590 -0.1841
22937W        W39411  14.740   0.136   2.016 -0.0383 -0.0211  0.0348
22938W        W39412  11.317  14.795  10.961  0.0426 -0.0080  0.3732
22939W        W39413  10.988  13.913   0.088 -0.2705 -0.2780  0.0114
22940W        W39414  17.236  15.477   2.159 -0.1050 -0.0827 -0.0413
22941W        W39415   2.370   7.463   1.661  0.0621 -0.1691 -0.0297
22942W        W39416   3.030   8.137  12.790 -0.1028  0.2292 -0.0833
22943W        W39417   2.738  19.193   2.540  0.0516  0.1384  0.0873
22944W        W39418   9.350  18.373  13.651 -0.1086 -0.1213  0.1117
22945W        W39419   4.242  10.406  12.157  0.0760 -0.1986 -0.0200
22946W        W39420   1.922   8.896  10.841 -0.1063  0.4404 -0.0666
22947W        W39421  11.845   5.877  12.313  0.0722  0.0360 -0.1349
22948W        W39422   0.798  13.686   1.931  0.0741 -0.0617  0.2843
22949W        W39423   3.223   4.686   0.563 -0.4139  0.2671 -0.0285
22950W        W39424  17.003   3.406   1.700 -0.0824  0.0192 -0.1526
22951W        W39425   5.306   5.201  10.883 -0.0514 -0.0508  0.2498
22952W        W39426   4.172   9.779   1.389  0.0899 -0.2739  0.2145
22953W        W39427   4.574   7.285   1.944  0.3990 -0.0750 -0.3477
22954W        W39428   0.137   1.647  10.018  0.1034  0.0308 -0.1658
22955W        W39429   3.279   7.222   2.445 -0.0174 -0.1850  0.1931
22956W        W39430  15.247   4.936  14.124  0.0072 -0.1093  0.0059
22957W        W39431   8.550  14.580  11.560 -0.2103  0.0577  0.0644
22958W        W39432   9.587   3.919  12.686 -0.4845  0.0728  0.1748
22959W        W39433  14.459   1.972   2.304 -0.1014 -0.0430  0.2114
22960W        W39434   7.695   2.553  11.222  0.0974 -0.0089 -0.1251
22961W        W39435  18.230  12.560  13.786  0.1377  0.2489 -0.0381
22962W        W39436   3.357   8.878  12.958 -0.2889  0.5717 -0.0033
22963W        W39437   2.461   2.114  14.423 -0.1735  0.0893 -0.4348
22964W        W39438   5.384   3.512   2.356 -0.3197  0.4206  0.0162
22965W        W39439   3.508  10.306   0.201 -0.1514 -0.1287 -0.2024
22966W        W39440  14.570  10.692   2.658  0.1284  0.4708  0.0332
22967W        W39441   3.999   1.641   3.424 -0.0726 -0.1005 -0.0473
22968W        W39442  12.482   1.773  10.974  0.0559 -0.2449 -0.0467
22969W        W39443   2.861   9.005  13.209  0.0348  0.3977  0.1031
22970W        W39444   8.831   6.181   4.080  0.0769 -0.0711  0.3478
22971W        W39445   6.740   8.687   0.511 -0.0782 -0.0628  0.0569
22972W        W39446  16.008   1.666  12.917  0.1629 -0.1297 -0.1739
22973W        W39447   4.089  12.265   4.310 -0.2889  0.0168  0.0687
22974W        W39448   1.628   3.661  10.569 -0.2004  0.0027 -0.0970
22975W        W39449  13.334  12.184   2.579  0.0230  0.3890  0.2847
22976W        W39450   2.828   3.059  12.265  0.2091 -0.1653 -0.3324
22977W        W39451   7.080   5.174  10.637 -0.1927  0.2544 -0.0884
22978W        W39452   8.637   1.944   3.035 -0.3221  0.0055 -0.1684
22979W        W39453  11.880   4.193  11.269  0.1099 -0.0128  0.0754
22980W        W39454  13.667   2.820  13.503  0.3439  0.0441 -0.2306
22981W        W39455   3.349   4.219  10.799 -0.4697 -0.2129  0.1157
22982W        W39456  14.775   5.992   2.472 -0.3903  0.0662  0.1477
22983W        W39457   6.472   7.178  13.283 -0.1873  0.0071 -0.0967
22984W        W39458  11.996  11.704   5.108  0.0197  0.0604 -0.0363
22985W        W39459  19.543   5.020   2.575 -0.2504  0.1905  0.1403
22986W        W39460  11.295   4.369   0.403 -0.0325  0.4053  0.2855
22987W        W39461   1.360   3.756  13.231  0.1397  0.1972  0.2664
22988W        W39462  17.156  13.900   3.601 -0.0454  0.2461 -0.0593
22989W        W39463  16.147  15.707  10.965 -0.0102 -0.2214  0.2175
22990W        W39464   4.115   7.450   1.164 -0.2006  0.2128 -0.2671
22991W        W39465  11.156  14.506   4.617  0.3399  0.3292 -0.1660
22992W        W39466  15.458   8.443  12.982  0.0729  0.1124 -0.1777
22993W        W39467   3.021   4.411  12.898 -0.1074  0.2932 -0.0036
22994W        W39468   3.768   2.021   1.508  0.3023  0.0089  0.0135
22995W        W39469   2.148  11.797  13.871  0.1912 -0.0713  0.3603
22996W        W39470   2.175   4.964   3.444  0.0886 -0.2107 -0.0157
22997W        W39471   1.277  14.371  14.062 -0.1534  0.1323  0.2820
22998W        W39472   7.729  13.682   0.438  0.2495 -0.0575 -0.0412
22999W        W39473   4.732   5.410   4.412  0.0048  0.2757  0.1875
23000W        W39474   7.825  18.098  12.031  0.0215 -0.2224 -0.0451
23001W        W39475   8.177  18.608  11.854  0.0506 -0.0888  0.0690
23002W        W39476  12.570   4.971  14.182 -0.1418 -0.2432 -0.0876
23003W        W39477  13.840  15.242  14.316 -0.1333 -0.0334  0.3163
23004W        W39478  19.359  13.102  13.311  0.2003  0.0634 -0.0741
23005W        W39479  10.593  14.217   4.988 -0.2268  0.3120  0.1065
23006W        W39480  12.249   0.856   4.456  0.0967 -0.1312  0.1268
23007W        W39481   4.284   6.417   1.455  0.1005  0.1339  0.3221
23008W        W39482  10.685  12.456  10.069  0.1474  0.0445 -0.0191
23009W        W39483   2.111  15.150  14.147 -0.1454  0.3631 -0.2036
23010W        W39484   6.649  12.830  10.593 -0.1131 -0.3564  0.0915
23011W        W39485  13.334  16.893  12.682  0.0074 -0.3704 -0.0956
23012W        W39486  10.880   7.772  10.998  0.0224  0.2661 -0.1433
23013W        W39487   2.772  18.163   2.551 -0.0954  0.2232 -0.1097
23014W        W39488   5.215   8.587   1.449 -0.0330 -0.2922  0.2866
23015W        W39489  10.713  15.859   3.172 -0.0736  0.2694 -0.1245
23016W        W39490   3.136   8.533   3.200 -0.1854 -0.0843 -0.0600
23017W        W39491   7.892   2.123   0.562 -0.0414  0.2429  0.1336
23018W        W39492  12.251   2.257   2.197  0.0705  0.1799  0.2035
23019W        W39493   5.652   2.223  10.359  0.1300  0.1543 -0.1998
23020W        W39494  15.085   2.850   4.783 -0.1432 -0.2071 -0.0653
23021W        W39495  13.723   7.295   4.475  0.3131 -0.0542  0.4293
23022W        W39496  16.526   8.297  13.875  0.0381  0.0759 -0.1721
23023W        W39497  14.313   0.208  12.142  0.0477  0.2023  0.0280
23024W        W39498  17.280  16.033   1.339  0.1447  0.0190  0.1719
23025W        W39499  13.998  17.678   1.583  0.0535  0.2309 -0.2533
23026W        W39500  14.082   2.259  14.335 -0.0833 -0.2175  0.3001
23027W        W39501   6.713  11.496   3.925  0.0005  0.0672 -0.0538
23028W        W39502  11.974   5.357  13.665 -0.0626 -0.0277  0.0807
23029W        W39503  19.007   1.214   0.437 -0.0018 -0.1129 -0.1350
23030W        W39504   0.030   1.218   4.482 -0.1286 -0.1118  0.1244
23031W        W39505  18.023  15.559   0.947  0.0332  0.0168 -0.0595
23032W        W39506   6.074   8.273   0.008 -0.0016  0.1488 -0.0155
23033W        W39507   1.221   6.714  12.344 -0.1579  0.1255  0.1390
23034W        W39508   8.646  11.063  12.095 -0.1448  0.2387 -0.3045
23035W        W39509  13.337  14.103   4.507  0.2650 -0.1194 -0.1890
23036W        W39510   8.524   4.595   2.015 -0.1512  0.1035  0.2896
23037W        W39511   1.890   5.136   2.739 -0.3201  0.0406  0.2202
23038W        W39512   9.866  10.093   1.817  0.0584  0.3500  0.0316
23039W        W39513  14.864  14.098  12.080 -0.1852 -0.1259  0.2516
23040W        W39514   8.946  12.619   4.472 -0.0786 -0.1953  0.2036
23041W        W39515   0.335   9.605   4.152 -0.1020 -0.2142  0.0321
23042W        W39516   6.480   7.662   3.653 -0.0838 -0.0437  0.2111
23043W        W39517   6.024   2.410   2.873 -0.1984 -0.1632 -0.3619
23044W        W39518  11.312  19.285   0.402  0.3315 -0.0802  0.2207
23045W        W39519  17.246   8.151  10.137  0.1822 -0.4116  0.0791
23046W        W39520   1.939  17.258  10.006 -0.1116  0.1080  0.0936
23047W        W39521  18.178   6.943  14.301  0.2235 -0.0815  0.0187
23048W        W39522  18.381  10.130   3.020 -0.2212  0.1218  0.0443
23049W        W39523   6.849  14.592   3.462 -0.2339  0.1118  0.1552
23050W        W39524   7.316   3.937   3.310 -0.0379 -0.3796 -0.1140
23051W        W39525  18.474  16.410   4.497 -0.3027 -0.1480 -0.2458
23052W        W39526  13.154   2.537   2.702  0.2345  0.0218 -0.0266
23053W        W39527  12.504  12.602   4.616  0.1630 -0.1550 -0.0368
23054W        W39528  10.315   6.912   2.319  0.0691  0.2396 -0.1076
23055W        W39529   0.025  11.507  12.638 -0.1942  0.0873 -0.1345
23056W        W39530  16.163  12.060  13.019  0.0505  0.2138 -0.3867
23057W        W39531  12.207  18.267   2.233 -0.2499 -0.0313  0.2401
23058W        W39532   9.589   4.908  14.100  0.0032  0.1767  0.3352
23059W        W39533   6.708   2.934  12.681  0.0629 -0.1648  0.0564
23060W        W39534   9.327  16.787  12.058  0.3693  0.0492  0.0965
23061W        W39535  14.704  12.844  11.506 -0.1765 -0.1163 -0.0634
23062W        W39536   1.129   1.472  12.044 -0.1859 -0.2396 -0.0983
23063W        W39537   8.326   5.618   1.048  0.2180 -0.2601  0.2470
23064W        W39538   4.791  13.916   1.119 -0.0092  0.0550 -0.0934
23065W        W39539  10.115  15.323   1.467  0.1404 -0.1270 -0.0170
23066W        W39540   1.844  16.226   4.887 -0.0207 -0.1828  0.0808
23067W        W39541   1.660   3.035  14.437  0.1281  0.1812  0.2130
23068W        W39542   1.852  17.674  12.595  0.0967  0.0949 -0.0782
23069W        W39543   8.346  16.116  11.312  0.3349 -0.2868 -0.0235
23070W        W39544  17.375  16.174   3.067  0.1389 -0.0941 -0.1055
23071W        W39545  11.035   9.304   1.561  0.0639  0.1427  0.0438
23072W        W39546   5.363   9.413   2.693  0.3050  0.0854  0.1742
23073W        W39547  19.491  15.332  12.093 -0.0675  0.0577  0.1231
23074W        W39548   0.580  11.749   1.641 -0.0576 -0.0576  0.0064
23075W        W39549  11.417   5.192  13.881 -0.0086 -0.3581 -0.2644
23076W        W39550   7.964  15.824  10.533 -0.0775 -0.2551 -0.0332
23077W        W39551  13.650   5.682  12.879  0.2076 -0.1710  0.0237
23078W        W39552   3.389   1.440   0.426  0.3661 -0.1530  0.2048
23079W        W39553   3.335   8.801   2.057  0.0962  0.1733 -0.1436
23080W        W39554   1.147   8.738   2.859  0.0670 -0.1354 -0.1371
23081W        W39555   9.298   7.494  10.294  0.0592  0.0575  0.0353
23082W        W39556  10.724  18.868  11.904 -0.1458  0.3213 -0.3194
23083W        W39557  19.465   8.835   2.157  0.3654 -0.0896  0.1442
23084W        W39558   1.228  11.637   2.694  0.1227 -0.0103 -0.0119
23085W        W39559  10.910   0.403   1.187 -0.1404 -0.2533  0.2581
23086W        W39560   9.646   2.847  10.645  0.1563  0.0048  0.0027
23087W        W39561   8.180  18.692   1.775 -0.1510 -0.1082 -0.0097
23088W        W39562   4.259   2.445   3.407 -0.0383  0.0157 -0.1160
23089W        W39563  14.674   1.618   4.060  0.3474  0.2855  0.2254
23090W        W39564   7.030  15.597   2.089  0.4158 -0.1757  0.3708
23091W        W39565  12.636   6.076   3.541  0.0149 -0.2258  0.1094
23092W        W39566   8.544   1.162   3.865  0.0523  0.1220 -0.1096
23093W        W39567   2.350  14.289  11.101  0.0926  0.1087  0.1160
23094W        W39568   2.964  18.410   3.540  0.1988  0.3380  0.0669
23095W        W39569  16.237  13.543  12.090 -0.0963 -0.2621 -0.0214
23096W        W39570  14.574   1.773   3.580  0.2141 -0.0063 -0.4030
23097W        W39571  15.382   6.901  10.949 -0.2513 -0.0953  0.1683
23098W        W39572   3.515  12.155  11.248  0.4727 -0.2169  0.2559
23099W        W39573   9.509   8.571   0.412 -0.1173  0.0627  0.0100
23100W        W39574  15.166   8.013  10.508 -0.2508 -0.0687 -0.1839
23101W        W39575  12.295   9.937   1.039  0.0018  0.1073  0.0177
23102W        W39576   8.671  15.764  11.058 -0.0082  0.0625  0.0086
23103W        W39577   2.620   9.702   4.438  0.1009 -0.2103  0.1268
23104W        W39578  16.917   5.569   1.206  0.1024  0.0966 -0.1319
23105W        W39579   4.674   7.898   0.106 -0.1151 -0.2803  0.1061
23106W        W39580   9.673  12.553  12.905 -0.1523 -0.0223  0.0320
23107W        W39581   4.701   3.543   3.625  0.1577  0.0272 -0.2892
23108W        W39582   2.442  17.985  11.696 -0.2641 -0.0290 -0.0548
23109W        W39583  17.882  10.934   1.295  0.1136 -0.1309 -0.4176
23110W        W39584  16.645  19.575  13.472 -0.2739  0.0665 -0.3770
23111W        W39585   9.562   1.002  11.306 -0.0709  0.1920 -0.2824
23112W        W39586   3.120  19.078  10.534 -0.1878 -0.1352  0.1596
23113W        W39587  12.640  15.916  10.982 -0.2035 -0.1581  0.2757
23114W        W39588  19.360   3.205  12.458  0.0621  0.1738 -0.3925
23115W        W39589   2.312  13.248   3.584 -0.3145  0.2071 -0.2110
23116W        W39590  10.094   5.497  11.816  0.0746 -0.1054  0.0363
23117W        W39591   7.933   3.573  11.979  0.0891  0.1140  0.1296
23118W        W39592   5.597   4.996  14.019  0.2002  0.0763  0.4770
23119W        W39593   7.397   8.000  10.765  0.2524 -0.0771  0.1145
23120W        W39594   6.100   7.407  10.078  0.1707  0.0642  0.0390
23121W        W39595  15.699  12.880  14.114 -0.1592  0.1975 -0.1124
23122W        W39596  17.462   0.152   5.315 -0.2649 -0.0807 -0.3662
23123W        W39597   4.264  16.100   3.988 -0.0076  0.1862  0.0152
23124W        W39598   4.096   6.595  11.199 -0.0283 -0.3380 -0.0369
23125W        W39599   0.728  14.044  13.564 -0.0479  0.1241  0.1473
23126W        W39600   1.466   1.486  13.624  0.0727  0.1688  0.1225
23127W        W39601  11.214  17.087   2.976  0.0988 -0.2450 -0.2011
23128W        W39602  17.465   1.206   3.660 -0.1782 -0.1432  0.2305
23129W        W39603  19.011   1.382  10.714  0.2313 -0.0872  0.0240
23130W        W39604  19.122   4.004   0.822  0.2308  0.0359 -0.2134
23131W        W39605  17.247   1.838   3.234  0.3401 -0.2101  0.0444
23132W        W39606   3.021   4.742  11.653  0.0695 -0.0639 -0.1053
23133W        W39607   9.461   5.502  13.946  0.0687 -0.0685  0.0663
23134W        W39608  11.728  10.585   4.908  0.0461  0.0746  0.0216
23135W        W39609  10.473   1.094   3.967 -0.2054 -0.0654  0.1229
23136W        W39610  13.322  10.245  12.223 -0.0474 -0.3512 -0.0721
23137W        W39611  18.887  19.358   0.981 -0.1078  0.1827  0.4125
23138W        W39612   8.046   9.106  14.650  0.1064 -0.1828  0.0886
23139W        W39613  14.937   6.108   1.501 -0.0200  0.0271 -0.0688
23140W        W39614   5.885   6.106   3.843  0.0455  0.1430 -0.2100
23141W        W39615  13.295  10.873   3.272 -0.0326 -0.0100  0.0039
23142W        W39616  18.538  12.037  14.110 -0.0868 -0.2734 -0.0129
23143W        W39617   4.925   7.318  14.248  0.5142 -0.0579 -0.1572
23144W        W39618  18.912  13.037  12.199  0.2925  0.5239  0.0491
23145W        W39619  17.600   1.763  12.786 -0.0497  0.2295  0.0883
23146W        W39620   3.951   4.173   4.989  0.6222 -0.0636 -0.1606
23147W        W39621   6.954   5.781   4.136  0.2223 -0.0526 -0.3243
23148W        W39622  10.240  11.394   1.530 -0.2091  0.0932 -0.0003
23149W        W39623   7.457  11.944  13.410 -0.1469 -0.1300  0.2775
23150W        W39624   5.831  16.561  12.217 -0.3635  0.0574 -0.3874
23151W        W39625   3.205  19.032  11.434  0.1259  0.1479  0.2340
23152W        W39626  14.810   7.251   2.114  0.1165 -0.1729 -0.1268
23153W        W39627   9.969  13.776   3.292  0.1618 -0.0668  0.0822
23154W        W39628  14.993   9.185   1.146 -0.0766  0.0475  0.1720
23155W        W39629  15.295  14.763  14.275 -0.0696 -0.1074  0.0403
23156W        W39630   8.569  12.682  11.600  0.1335 -0.0395  0.0986
23157W        W39631  11.746   8.461  12.457 -0.0936 -0.2398  0.1217
23158W        W39632  15.257   7.814   4.169  0.2471 -0.0570 -0.1833
23159W        W39633   8.619   1.464   3.420  0.5480  0.0142  0.0926
23160W        W39634  13.520   3.605  10.501 -0.1669  0.1510 -0.1146
23161W        W39635   3.003  10.440   2.140  0.2808  0.0252  0.0490
23162W        W39636  15.671  11.227  13.239 -0.1284 -0.0920 -0.0246
23163W        W39637   8.966  14.993   3.452 -0.0521  0.2456  0.2791
23164W        W39638  11.999   5.031  11.158 -0.0173 -0.0792  0.0821
23165W        W39639   2.401  14.169  13.273 -0.0629 -0.1997  0.5574
23166W        W39640  16.957  16.738  13.245  0.1853 -0.1132  0.2053
23167W        W39641  14.877  18.052   2.711 -0.0454  0.4579 -0.4540
23168W        W39642  17.539  17.418   2.365 -0.1866  0.0613  0.1468
23169W        W39643  19.047   9.616   1.029  0.1502  0.2231 -0.1130
23170W        W39644   9.217   6.518  10.295  0.2549 -0.2353  0.0141
23171W        W39645   7.840   8.840  10.296 -0.1361 -0.0997  0.2286
23172W        W39646   3.749   0.033   3.140  0.4673 -0.1662  0.1594
23173W        W39647   3.953  14.530  13.965 -0.0202  0.0899  0.1867
23174W        W39648  12.213  15.140   0.914  0.2162  0.1749 -0.1712
23175W        W39649   9.886  16.072   5.792  0.4701  0.4536 -0.0166
23176W        W39650   4.914   3.314  10.549 -0.1402 -0.0311  0.0310
23177W        W39651  14.495   7.246  14.420  0.0054 -0.4558  0.0282
23178W        W39652  15.843  10.956  14.170  0.3193  0.0224 -0.3078
23179W        W39653  14.050  13.783  10.452 -0.1596  0.0089  0.1328
23180W        W39654   9.567  15.827   0.392  0.2037 -0.0832 -0.3099
23181W        W39655  12.999   0.777   3.203  0.0567  0.0176  0.0102
23182W        W39656   3.531   5.786  14.211  0.0191 -0.1445 -0.0078
23183W        W39657  17.494  16.343   3.562  0.1346 -0.4228  0.0804
23184W        W39658  15.411   8.050  10.948  0.2458 -0.0887  0.1441
23185W        W39659   1.557  19.174  10.225 -0.2785  0.0724 -0.0291
23186W        W39660   5.378   6.984   2.101  0.2811 -0.1084 -0.0413
23187W        W39661  17.305   4.834   2.959  0.0003  0.0194  0.1981
23188W        W39662   5.465  18.539  10.692  0.1423 -0.2628 -0.0562
23189W        W39663   5.943   5.398  13.874  0.3277 -0.2126  0.3843
23190W        W39664  12.826  11.434  13.452  0.0252  0.0058 -0.3696
23191W        W39665   9.929   6.354   1.020 -0.0417 -0.0630 -0.2654
23192W        W39666  11.552   8.065  11.609  0.0125 -0.3751 -0.3216
23193W        W39667  10.114  12.385  11.624 -0.4339  0.0844  0.2533
23194W        W39668   0.606   7.273  12.716 -0.3679  0.0621  0.0021
23195W        W39669  18.830   7.621   2.764 -0.2279  0.0675 -0.0588
23196W        W39670   7.753  16.898  12.199  0.2089 -0.1344 -0.0570
23197W        W39671   2.310  16.097  12.159 -0.2380  0.0570 -0.1852
23198W        W39672   3.532  16.556   4.927 -0.1820 -0.0598  0.1751
23199W        W39673   0.923   9.474   2.836 -0.0054 -0.1080  0.1278
23200W        W39674  15.368  14.189  10.382  0.0841 -0.0847 -0.1056
23201W        W39675  14.973  18.818  10.264  0.2150 -0.2446  0.2728
23202W        W39676  15.936  18.991   3.185 -0.0595 -0.0767  0.2093
23203W        W39677  19.571   9.023  12.450 -0.1419  0.0889 -0.0453
23204W        W39678   7.102   9.620   0.383  0.1886  0.2385  0.0073
23205W        W39679   7.133   1.300   3.728  0.0080 -0.2472  0.3139
23206W        W39680   7.268   0.565  10.750 -0.0805  0.0605 -0.1841
23207W        W39681  19.446   7.664   2.843  0.0217 -0.0051 -0.1008
23208W        W39682   3.285   9.444   4.992 -0.1467 -0.2234 -0.1774
23209W        W39683  18.806   5.973   9.279  0.1694  0.1787  0.0235
23210W        W39684   3.707  18.890   0.748 -0.0575 -0.1154 -0.1074
23211W        W39685   7.381   4.244   4.226  0.1384  0.0777  0.3291
23212W        W39686   7.225   1.134  10.896  0.4178  0.1848 -0.0512
23213W        W39687   9.937   2.157  11.915 -0.0171 -0.3598 -0.1130
23214W        W39688   1.851  15.500   4.054 -0.2304 -0.3787  0.0919
23215W        W39689  16.188   3.420   4.115 -0.0577 -0.0152  0.0798
23216W        W39690  11.341   7.964   0.446  0.0431 -0.0691  0.0028
23217W        W39691  17.538  13.410   1.254 -0.0689  0.0257  0.2648
23218W        W39692   7.555  18.392   3.851 -0.1651  0.1138 -0.3288
23219W        W39693   5.309  11.890  11.634  0.1204 -0.0533 -0.2126
23220W        W39694   1.229  17.072  13.780  0.1728  0.0016  0.2962
23221W        W39695  17.703   8.000   0.367 -0.0045 -0.2612 -0.1150
23222W        W39696  16.880   3.311  13.732 -0.3821 -0.1851  0.1541
23223W        W39697   3.048  13.609   4.167  0.0248  0.0657 -0.2835
23224W        W39698   5.533   9.011   2.515 -0.0829 -0.0182  0.0124
23225W        W39699   8.053  15.491   5.860 -0.1124  0.0988 -0.0124
23226W        W39700   8.430   5.675   4.084 -0.0073  0.0444  0.0566
23227W        W39701  12.998  17.725  11.387  0.0874  0.1208 -0.0221
23228W        W39702  18.381  11.229   4.684  0.0007 -0.2758 -0.1726
23229W        W39703   7.321  12.672   2.142 -0.0810 -0.0245 -0.2167
23230W        W39704  13.043  11.875  14.154  0.2374 -0.0116 -0.2094
23231W        W39705   4.761  15.776   5.561 -0.0809  0.0556 -0.1443
23232W        W39706  15.481  11.279   1.650 -0.1398  0.2148 -0.1266
23233W        W39707  16.445   7.135   3.192 -0.3549 -0.1665 -0.1217
23234W        W39708  15.967   7.978  13.354 -0.2077  0.2485 -0.1100
23235W        W39709  19.291   3.954  11.213  0.1565  0.1501 -0.3438
23236W        W39710   9.717   4.913   2.042 -0.2080  0.0671 -0.0368
23237W        W39711  18.800   7.989  10.460  0.2734 -0.3167  0.2879
23238W        W39712  17.722   0.077  13.390  0.0670 -0.0123 -0.0319
23239W        W39713  19.211   0.469  11.163 -0.1980 -0.0940  0.0117
23240W        W39714   0.588   8.229  10.598 -0.1474 -0.2337 -0.0584
23241W        W39715   0.018   9.505  12.445 -0.0546 -0.4473  0.0483
23242W        W39716  12.645   1.133  13.498  0.3497  0.0484  0.2438
23243W        W39717   6.927   3.772   1.802 -0.3881  0.4224 -0.1163
23244W        W39718  18.755  16.392  10.592  0.2123  0.1176 -0.0667
23245W        W39719  10.518   8.585   2.810 -0.0204 -0.2448  0.0799
23246W        W39720   1.334  13.593  12.533  0.2475  0.2713 -0.2932
23247W        W39721  16.805  14.245  11.105 -0.1656 -0.0734 -0.3696
23248W        W39722   9.033  13.245   1.834 -0.0647  0.2815 -0.1551
23249W        W39723   2.621   8.330  10.782 -0.2029  0.0640 -0.0553
23250W        W39724  15.424   3.989  14.389  0.2874 -0.0060  0.0348
23251W        W39725  16.592  11.648   5.077 -0.1393  0.0249 -0.0837
23252W        W39726   6.809   7.839   2.232  0.2260 -0.1038  0.1912
23253W        W39727   1.129   1.014   3.967  0.0927  0.1186  0.2295
23254W        W39728   1.955   4.295   1.556  0.1203 -0.0029 -0.2191
23255W        W39729  16.647   5.885   3.705  0.0867 -0.3330  0.3550
23256W        W39730   2.401  18.262  12.617  0.1297 -0.1360 -0.2764
23257W        W39731   1.146   5.621  14.347  0.0873 -0.0333  0.1934
23258W        W39732   7.255  18.603   1.934  0.2073  0.3889 -0.1468
23259W        W39733   0.627  13.067  11.836 -0.0792  0.4333  0.2028
23260W        W39734   1.612  11.661   1.369  0.0900 -0.0274  0.3353
23261W        W39735   5.707   8.305   4.442  0.0239 -0.0594 -0.2801
23262W        W39736  18.545  13.112   3.321  0.2994  0.0164  0.2294
23263W        W39737   3.965  16.959   1.005 -0.2096 -0.0693  0.3220
23264W        W39738  13.135  19.345   4.196 -0.1871 -0.2794 -0.0214
23265W        W39739  12.753   2.214   2.465 -0.1129  0.2342 -0.1912
23266W        W39740   1.090   9.278   4.836  0.2142 -0.2216  0.0847
23267W        W39741   0.801   7.558   4.803  0.1162 -0.0748 -0.0441
23268W        W39742   9.247  15.835  11.372  0.1437 -0.4190  0.4286
23269W        W39743  17.086  11.596   3.656 -0.2588 -0.1855 -0.1031
23270W        W39744  14.563  17.109  13.418  0.0209 -0.1914  0.1029
23271W        W39745  11.982   7.846   2.091  0.1709 -0.1166 -0.2954
23272W        W39746   3.028   9.977   4.391 -0.1011  0.0228  0.0955
23273W        W39747   3.130   1.033   2.429  0.0975  0.0740  0.2688
23274W        W39748  16.836  18.999  11.505  0.0851  0.2792  0.0553
23275W        W39749   7.474  14.674  12.180 -0.1329 -0.2249 -0.0139
23276W        W39750  13.638  18.819  14.079 -0.1931 -0.2706 -0.1600
23277W        W39751  15.828  13.691  11.083 -0.1041  0.1025 -0.1222
23278W        W39752   7.663   3.790  14.313 -0.1312 -0.0504  0.0355
23279W        W39753   8.891   8.165   3.357  0.1038  0.1496 -0.1125
23280W        W39754  10.777   7.207  11.734 -0.1155 -0.0667 -0.2362
23281W        W39755   7.229   8.101  14.381  0.1939 -0.0056  0.2381
23282W        W39756  17.770   6.314  12.313  0.1109  0.0700  0.3535
23283W        W39757  13.289  11.337   1.448  0.0492  0.0842 -0.0956
23284W        W39758  16.536   5.774   0.403  0.3009  0.0418  0.0902
23285W        W39759  12.246   7.814   2.734  0.2745  0.1418 -0.1309
23286W        W39760   6.684  17.874  14.009 -0.1366  0.0381  0.0527
23287W        W39761   2.719   2.446   2.201  0.0600 -0.3414  0.2019
23288W        W39762  17.928   0.499   0.959  0.0793  0.0446  0.0005
23289W        W39763   3.105  16.762   1.337 -0.1320  0.0260  0.5814
23290W        W39764   3.663  14.422   4.016 -0.0743  0.0893 -0.0870
23291W        W39765  15.958   8.853  10.754 -0.0989 -0.1395 -0.2968
23292W        W39766  10.983  14.783   1.605  0.2346  0.0078 -0.1190
23293W        W39767  18.257   4.205   3.397  0.1902  0.4544 -0.0836
23294W        W39768  10.236   6.560   1.785 -0.1401 -0.1206  0.0631
23295W        W39769   5.488   4.740  11.112  0.0521 -0.0601 -0.0331
23296W        W39770  17.922   1.623  10.367 -0.4039 -0.0553  0.0837
23297W        W39771  16.027  13.629   3.043 -0.2272  0.2970 -0.0281
23298W        W39772  15.011   8.668  10.879  0.0933  0.0835 -0.0877
23299W        W39773   7.888   8.108  11.945  0.0351  0.2108  0.0420
23300W        W39774  14.219  10.724  14.013 -0.0622  0.0732 -0.1602
23301W        W39775   2.301  10.662   1.352 -0.5509  0.0643  0.2765
23302W        W39776  10.226  10.081  11.533  0.1704 -0.0336 -0.0596
23303W        W39777   0.852   9.412  10.341  0.3388  0.0816  0.3035
23304W        W39778  17.460  18.219  13.459 -0.2567  0.1452  0.1018
23305W        W39779  14.800   6.039  11.549 -0.0556  0.1440  0.4440
23306W        W39780  15.137  12.747   4.724  0.2209 -0.0664 -0.2484
23307W        W39781   5.220   9.415  11.346 -0.0590  0.3156 -0.3316
23308W        W39782  18.488  15.998   1.003  0.1083  0.1874  0.0137
23309W        W39783  10.696   7.752  11.441 -0.0708 -0.1562  0.1129
23310W        W39784   4.759  17.379  11.644  0.1363 -0.1419  0.0530
23311W        W39785   6.880  10.292  14.499  0.0491 -0.2046  0.2463
23312W        W39786   0.588  18.857   3.810 -0.0242  0.0567  0.0328
23313W        W39787   9.415   9.290  11.742  0.2739 -0.0606 -0.2996
23314W        W39788  15.824  10.711   4.688  0.3749  0.3051 -0.2282
23315W        W39789   5.991   4.558  10.911 -0.0811  0.0774  0.1220
23316W        W39790  18.305   7.016   0.926  0.0588 -0.5654  0.1499
23317W        W39791   1.293  18.169   1.617 -0.3389 -0.0256  0.0452
23318W        W39792  16.672  19.052  13.041  0.1827  0.1159 -0.0590
23319W        W39793   7.493   6.582  11.834  0.0154 -0.0749 -0.0070
23320W        W39794  15.775   5.212   2.331 -0.1726 -0.0302  0.2074
23321W        W39795  17.789   1.373   1.730  0.1775  0.4720 -0.2056
23322W        W39796   9.243  10.248   3.023 -0.3283  0.1825 -0.3978
23323W        W39797   4.893   7.007   0.944 -0.1339 -0.1845  0.0911
23324W        W39798  15.617   2.849   4.684  0.1605  0.0973 -0.2530
23325W        W39799  15.906   7.838   2.642  0.0764 -0.1824  0.0459
23326W        W39800  11.503   0.350   2.857  0.2389 -0.2516 -0.1837
23327W        W39801   8.992   8.526   3.879  0.0194  0.2106  0.3071
23328W        W39802  16.981   6.146  13.515  0.2050  0.0041  0.4272
23329W        W39803  10.689  18.363   3.387 -0.0116  0.1957  0.2743
23330W        W39804  15.619  13.644   1.109 -0.2079  0.2832 -0.3719
23331W        W39805   0.064   8.138  11.651  0.2524 -0.0256 -0.0099
23332W        W39806   9.330   8.509  10.015 -0.0302  0.2249  0.0117
23333W        W39807  15.686   0.222  12.374  0.1645 -0.0130 -0.1320
23334W        W39808   9.348   6.854  13.423  0.1080 -0.1046 -0.0190
23335W        W39809  16.591  15.900  12.810 -0.0731  0.1442 -0.2722
23336W        W39810   9.653   8.580   2.523 -0.1327  0.1480  0.0480
23337W        W39811   1.651   2.598  11.015 -0.0882  0.2105  0.2063
23338W        W39812  15.405  15.653   2.601 -0.2026  0.3911  0.2244
23339W        W39813   0.553   2.069  13.350 -0.3568  0.2212  0.0135
23340W        W39814  10.662  12.714  11.939  0.2820 -0.0942 -0.1256
23341W        W39815   9.271  17.529  14.638 -0.0443 -0.0023  0.0056
23342W        W39816  18.918  13.979  12.305 -0.0019 -0.1877  0.0766
23343W        W39817   3.002  15.560  11.068  0.1917 -0.0722  0.0375
23344W        W39818   6.889   1.854   1.376  0.4108 -0.0171 -0.1554
23345W        W39819  19.271   1.828   0.910  0.0832 -0.2217 -0.1370
23346W        W39820   2.627   3.809  14.161  0.1452 -0.1073  0.0771
23347W        W39821   8.671   3.459   0.327  0.2524 -0.0560 -0.2004
23348W        W39822   8.202   9.910  10.167  0.1028  0.0533  0.0710
23349W        W39823  18.497  15.500   1.217  0.0938 -0.0279  0.2294
23350W        W39824   6.958   2.362  10.757  0.1957  0.2908  0.3899
23351W        W39825   5.805   1.003  11.637  0.0908 -0.1240  0.1443
23352W        W39826  16.231  16.341   4.893  0.0148  0.0163 -0.3045
23353W        W39827  14.563   6.799   3.809 -0.2307  0.0233 -0.2751
23354W        W39828  16.295  18.056   1.177 -0.0267  0.2199 -0.0666
23355W        W39829  13.961  10.981   1.919  0.2239  0.0276 -0.0484
23356W        W39830   2.250   1.237  12.633  0.2096 -0.0488 -0.1482
23357W        W39831   5.560   3.206  13.852 -0.1134  0.1214 -0.3679
23358W        W39832  10.291  13.759   4.827 -0.0960  0.2077 -0.2066
23359W        W39833  16.422   9.747   0.403  0.0816  0.0990 -0.1672
23360W        W39834  17.025  12.527   2.996  0.0875 -0.1202 -0.0692
23361W        W39835   3.909  18.798  13.937 -0.0931  0.0639  0.1157
23362W        W39836   1.563  14.081  11.851  0.0361 -0.2752 -0.1292
23363W        W39837   7.986   8.419   3.685  0.1800  0.1309  0.2853
23364W        W39838   2.490  13.631   0.524 -0.2249  0.2775  0.0349
23365W        W39839  15.880  16.812   3.050  0.1577 -0.3414 -0.0429
23366W        W39840   8.570   4.667   4.975  0.3851  0.0422  0.1944
23367W        W39841   9.261  14.461   3.088  0.0501  0.4979  0.1465
23368W        W39842  16.222   5.638  13.825  0.3120 -0.0358  0.0773
23369W        W39843  16.413  10.527  10.863 -0.0117  0.1739  0.1184
23370W        W39844   4.393   7.801   4.317 -0.1755  0.1185 -0.5373
23371W        W39845   4.042  17.192   2.733 -0.0288  0.0492 -0.0561
23372W        W39846  12.473  13.226  13.302 -0.1090 -0.1741  0.0233
23373W        W39847  13.479   6.296  13.713  0.3088  0.2562  0.1977
23374W        W39848   2.880   8.641   4.392 -0.3080  0.3087  0.1423
23375W        W39849   2.222  16.025   3.306 -0.3137 -0.4319  0.0098
23376W        W39850   7.513   7.113   4.279  0.1084 -0.0777 -0.2273
23377W        W39851   6.526  11.875   3.589  0.0775  0.0216  0.2697
23378W        W39852  12.870  14.220   0.488  0.2512 -0.0797 -0.1080
23379W        W39853  10.302  18.517   5.433  0.0629 -0.3578  0.1620
23380W        W39854   5.405   5.574  11.216 -0.0997 -0.0232  0.1183
23381W        W39855   3.564   8.214   2.604  0.3237 -0.1486  0.1687
23382W        W39856  10.325  10.510  10.726 -0.0674 -0.2663 -0.1580
23383W        W39857  11.736  19.352   2.448 -0.0835  0.0184  0.1418
23384W        W39858   1.771   4.659  12.328  0.1411  0.3115  0.1545
23385W        W39859  11.835   3.565   0.203  0.0919  0.1544 -0.0845
23386W        W39860  18.027  13.640  11.288  0.2499  0.0891  0.2850
23387W        W39861   5.615  15.089   3.156  0.1609 -0.1464  0.2650
23388W        W39862   3.299  10.151   3.986  0.1545  0.0059 -0.0880
23389W        W39863   4.840   3.973  14.450 -0.0928  0.2519  0.1102
23390W        W39864   4.764   4.822   2.765  0.3915 -0.1930  0.1272
23391W        W39865  13.429  16.368   2.047 -0.1240 -0.0291 -0.0083
23392W        W39866  19.444   0.073   1.295 -0.0463  0.0403 -0.1594
23393W        W39867  16.440  11.728   3.090 -0.1071 -0.0145 -0.0618
23394W        W39868   5.830   2.413  14.586 -0.1067  0.0280 -0.0427
23395W        W39869   9.279   2.090   3.959 -0.2888  0.0854 -0.2070
23396W        W39870  14.925   9.031  13.711 -0.1722  0.0057 -0.0050
23397W        W39871  14.080   3.403  10.561  0.4324  0.0213  0.1285
23398W        W39872  13.376  11.895   1.695  0.0610 -0.0719 -0.3948
23399W        W39873   4.468  16.239   3.568 -0.1172 -0.1976  0.1514
23400W        W39874  12.211  14.650  11.880  0.2044 -0.1346 -0.0619
23401W        W39875   2.008  10.972   3.813 -0.2909  0.1129 -0.2445
23402W        W39876  10.883  11.747  12.391  0.6604  0.1121  0.0049
23403W        W39877  11.621  13.565  13.111 -0.1376 -0.0099 -0.1396
23404W        W39878  18.848  14.262   0.331  0.1404  0.1911  0.0400
23405W        W39879   8.793   0.181   4.866  0.1804 -0.1274  0.2404
23406W        W39880  18.808  11.097   3.170 -0.1394  0.0568 -0.0843
23407W        W39881  11.975   6.185   4.481  0.1873 -0.0982  0.0140
23408W        W39882  15.440  13.714   2.923  0.1449  0.1850 -0.0028
23409W        W39883  15.615   0.328   0.007 -0.1310 -0.2211  0.2493
23410W        W39884   4.302   7.874  10.855  0.1504  0.1613 -0.0503
23411W        W39885  17.962  11.531  11.644  0.0360  0.4563 -0.0712
23412W        W39886   2.413   7.935  14.087  0.1609 -0.4035 -0.2465
23413W        W39887   1.725  17.747  10.069 -0.1027  0.1632 -0.0228
23414W        W39888   2.762   8.921   0.203  0.1503 -0.1845 -0.1930
23415W        W39889  17.536  17.946   3.639  0.1860  0.1097  0.2425
23416W        W39890  14.789  12.113  14.021 -0.0748 -0.0932  0.0495
23417W        W39891  10.210   6.526   4.525  0.3680  0.1120 -0.1787
23418W        W39892   3.386  14.282  13.575 -0.2337 -0.2300 -0.1068
23419W        W39893   9.879   0.403   1.306  0.0125 -0.1712  0.3139
23420W        W39894  16.604   7.284   1.700  0.0488  0.2259  0.1790
23421W        W39895   7.424  15.834   4.750  0.1369  0.1473  0.0638
23422W        W39896   1.537  11.908   1.795 -0.0480  0.0335 -0.0928
23423W        W39897  12.912   2.535   0.074  0.1000  0.3376 -0.0531
23424W        W39898   0.563   2.429   2.891 -0.1035 -0.0754  0.1743
23425W        W39899   6.109   5.895  10.446  0.0641 -0.0847  0.1636
23426W        W39900   9.590   6.676  10.654  0.1387 -0.4269 -0.0230
23427W        W39901  14.009  18.232   3.917 -0.1024 -0.0460  0.1358
23428W        W39902  15.642  12.612   3.971 -0.2159  0.0173 -0.0412
23429W        W39903  18.453   5.850  10.907 -0.0434  0.1425  0.0757
23430W        W39904  12.613  16.111  12.916  0.2300  0.3715 -0.1967
23431W        W39905  16.450  14.293  12.333  0.2753  0.4842 -0.1610
23432W        W39906   0.273   6.367   3.595  0.0785 -0.1787 -0.2160
23433W        W39907   3.477  16.713  13.523  0.1259  0.0307  0.1401
23434W        W39908   4.899  14.915  14.142 -0.1124  0.2772 -0.2311
23435W        W39909  15.293   5.817   0.157  0.1272 -0.1299  0.5096
23436W        W39910  15.842  16.006   4.779  0.0758 -0.1770 -0.3268
23437W        W39911   7.990   9.732   1.102  0.0657  0.1962 -0.1525
23438W        W39912  19.401  16.268   1.904 -0.0002 -0.0704  0.1219
23439W        W39913  14.805  14.106  11.350 -0.0162 -0.0391  0.2418
23440W        W39914   2.235  15.253   0.017  0.3120  0.3158 -0.1996
23441W        W39915   5.639  18.048   9.835 -0.3082  0.0350 -0.0740
23442W        W39916  14.631   4.650   1.597  0.0085  0.2130 -0.2559
23443W        W39917  12.166   9.193  13.060 -0.3608  0.3841  0.0866
23444W        W39918  11.996  19.443   0.936 -0.0934 -0.0120 -0.1403
23445W        W39919   5.154   9.780   3.714  0.3079  0.3694  0.0812
23446W        W39920  16.458  12.006   4.778 -0.0628  0.1876  0.0559
23447W        W39921   2.277   9.680  12.564 -0.0896 -0.1270 -0.0161
23448W        W39922   8.374  17.073  11.491 -0.0252  0.2598 -0.2414
23449W        W39923  15.849  14.225  14.462  0.0293 -0.0963  0.1468
23450W        W39924  15.340   0.125  13.434  0.2574  0.0403 -0.3586
23451W        W39925   4.956   6.117  11.743 -0.0324  0.0642  0.3398
23452W        W39926   2.734  11.550  11.421  0.1915  0.0480  0.0483
23453W        W39927  11.889  11.693  13.167 -0.0591 -0.1202  0.0166
23454W        W39928   9.593   6.067  13.692 -0.0251 -0.1510 -0.2952
23455W        W39929  13.185   1.383   4.160  0.2413  0.0946  0.0294
23456W        W39930  11.581   9.092  14.509  0.0070 -0.1842 -0.0198
23457W        W39931  11.184  18.133  14.558 -0.0029  0.2356 -0.1850
23458W        W39932  18.175   1.665   3.551 -0.2153 -0.0278  0.1055
23459W        W39933  18.458   7.070  12.202  0.4689  0.0060 -0.1829
23460W        W39934   3.539   3.242   1.903 -0.1427 -0.0566 -0.3102
23461W        W39935   2.358   5.263  13.719  0.0543 -0.0778  0.5369
23462W        W39936   3.787  13.891  11.950 -0.1831  0.2058 -0.2150
23463W        W39937   5.473  18.848  13.798  0.3645  0.2441 -0.2322
23464W        W39938  16.087   9.429   0.587  0.2251 -0.0130  0.1792
23465W        W39939  17.550   7.694  14.373  0.3364 -0.2682 -0.1867
23466W        W39940   0.806   7.795  12.289 -0.4010 -0.2257 -0.1124
23467W        W39941  12.665   6.656   2.999 -0.1451  0.3768  0.1452
23468W        W39942   8.517   3.777   1.739  0.2003 -0.1626  0.0784
23469W        W39943  14.061  17.477  12.200  0.3666 -0.2099 -0.2366
23470W        W39944   2.556   0.885   1.711 -0.1688 -0.3093 -0.0111
23471W        W39945  16.343   1.096   0.860 -0.2070 -0.2251 -0.0255
23472W        W39946  12.125   6.784  10.785  0.2097 -0.1695 -0.1818
23473W        W39947   8.393   8.484   0.678 -0.1345  0.3351  0.0290
23474W        W39948  14.166   5.917   3.680 -0.0329  0.0111 -0.0781
23475W        W39949   9.276  10.180   1.907  0.1097 -0.1353  0.0110
23476W        W39950  18.805  16.048   4.784 -0.5317 -0.0427 -0.0980
23477W        W39951  10.607   2.996   2.999  0.2159 -0.2958  0.0800
23478W        W39952   1.843   5.028  11.956  0.0175 -0.2297 -0.1398
23479W        W39953   8.799   0.925   4.740  0.1049 -0.0907 -0.0524
23480W        W39954  15.906  19.570   3.203  0.3692  0.0304  0.1285
23481W        W39955  16.748   9.682  13.009  0.0140  0.0035  0.0516
23482W        W39956   7.089   9.645   0.931 -0.0273  0.3807 -0.2208
23483W        W39957  12.210   2.754   2.176  0.2497  0.0735 -0.1031
23484W        W39958   5.117   1.950  11.648  0.2509 -0.0502  0.0471
23485W        W39959  14.860   3.854  14.274 -0.2224  0.3569 -0.0790
23486W        W39960  14.632  11.509   2.257 -0.6294  0.2685  0.2949
23487W        W39961   0.994   5.939   3.620  0.1116  0.0827 -0.2182
23488W        W39962   3.948   0.619   3.015 -0.2010  0.0613  0.1295
23489W        W39963   3.265  10.644  11.892 -0.0854  0.1301 -0.5172
23490W        W39964   3.560   3.613  12.474  0.0264  0.5422 -0.1165
23491W        W39965   0.793   4.706   4.391 -0.3430  0.1168  0.2396
23492W        W39966   5.177  16.311   3.109 -0.1435  0.0496 -0.2493
23493W        W39967  11.790  15.810   5.263  0.0700 -0.4374  0.0370
23494W        W39968   8.259   1.056   1.385 -0.1558 -0.1213 -0.0966
23495W        W39969   9.943  13.562  13.305  0.1937  0.0219  0.1244
23496W        W39970   9.834  10.520   4.877 -0.0694  0.0360 -0.0764
23497W        W39971   1.920  10.788  10.751  0.1801 -0.1814 -0.1442
23498W        W39972   5.227  10.386  13.581 -0.2486 -0.0543 -0.0338
23499W        W39973  10.842   8.540   3.179  0.0777 -0.3168  0.1691
23500W        W39974   9.755   2.478  11.126 -0.1648  0.1737  0.3283
23501W        W39975   0.024  11.348  10.703  0.2103 -0.0144  0.1157
23502W        W39976   3.073  16.254  13.214 -0.1176  0.2619 -0.1946
23503W        W39977  14.795   5.971  12.052 -0.2176 -0.0782  0.0424
23504W        W39978  15.575   6.154   0.473  0.0358 -0.1563  0.0715
23505W        W39979   5.004  10.632   1.376  0.0777  0.1741 -0.1610
23506W        W39980   3.543   2.949  14.218 -0.0789 -0.1770 -0.4012
23507W        W39981   7.671  12.025   0.164  0.0739  0.0989 -0.0848
23508W        W39982   1.784  17.409  14.138 -0.0260  0.0986 -0.1366
23509W        W39983   7.364   8.205   3.417 -0.2993  0.2591  0.2881
23510W        W39984  15.541  15.088  11.801 -0.0178 -0.2897  0.0315
23511W        W39985   3.118   6.820  12.264  0.0024 -0.2525  0.3425
23512W        W39986   8.448  12.439   0.673 -0.0056  0.0581 -0.3166
23513W        W39987  11.928   7.313   2.130 -0.2459 -0.0002 -0.3306
23514W        W39988  16.494   1.096   3.431  0.3973  0.4448 -0.2359
23515W        W39989   7.127  15.860   3.924  0.2010  0.4557  0.1385
23516W        W39990   4.887  16.074   2.721 -0.2668 -0.1514  0.0278
23517W        W39991   0.956   5.360  13.909 -0.1731 -0.3252  0.3002
23518W        W39992  10.582  19.050  13.486  0.0587 -0.0786  0.0773
23519W        W39993   4.704  16.287   0.686 -0.2240  0.0856  0.1640
23520W        W39994   2.615   3.474  10.141  0.1683 -0.2396 -0.2080
23521W        W39995   2.547  17.973  13.054  0.0727 -0.2242 -0.0695
23522W        W39996   0.887   3.683  12.299 -0.3553 -0.4375  0.0185
23523W        W39997  16.583   9.448   4.164 -0.1598 -0.1268  0.0675
23524W        W39998   8.696   9.210  10.616  0.1028  0.1236 -0.3104
23525W        W39999   4.222  10.835  13.807  0.2116 -0.0523  0.3730
23526W        W40000   3.920  18.815  13.394 -0.0487 -0.1765 -0.0912
23527W        W40001   8.269   3.768  11.078 -0.3671 -0.1789 -0.3837
23528W        W40002   4.100   3.091  11.082 -0.1779 -0.2900 -0.0905
23529W        W40003   2.542   3.084   1.541  0.1318 -0.0303 -0.0265
23530W        W40004  16.393  11.170   0.308 -0.2113 -0.1447  0.0188
23531W        W40005   5.786  19.422   2.057  0.0101  0.3832  0.0085
23532W        W40006   2.883   0.030   4.164 -0.1394  0.1620 -0.0868
23533W        W40007  12.487  17.040   5.058 -0.0905 -0.3829 -0.0631
23534W        W40008  14.351   9.255   1.289 -0.0277  0.2201 -0.1959
23535W        W40009   3.712   2.288  10.512  0.2539  0.0358 -0.1908
23536W        W40010   9.749  13.908   2.154 -0.1544  0.1192  0.4139
23537W        W40011   3.047  12.861  11.312  0.2496 -0.1816  0.1877
23538W        W40012  16.933   1.436   3.248  0.0100 -0.2041  0.3373
23539W        W40013  18.070   4.036   4.039  0.0603  0.1005  0.0748
23540W        W40014  11.675   7.627   1.362  0.0252 -0.0767  0.0276
23541W        W40015   0.024  18.893  11.326 -0.0294  0.2737 -0.2707
23542W        W40016   3.907  16.549  11.680 -0.0638 -0.1130 -0.1768
23543W        W40017  10.954  13.791   5.559 -0.0440  0.3032  0.2250
23544W        W40018  18.579   6.816  13.989  0.0115  0.1284  0.4783
23545W        W40019   7.451  16.116   1.616 -0.3021  0.2011 -0.3524
23546W        W40020   6.364   4.530   0.313  0.1847 -0.1359 -0.1303
23547W        W40021   2.755   3.467  13.811 -0.0180 -0.0953 -0.0466
23548W        W40022  13.471  17.509  14.335 -0.5733 -0.3708  0.2571
23549W        W40023   7.151   8.138   4.562 -0.2663 -0.0614  0.2181
23550W        W40024   8.517  13.685   3.036 -0.2229 -0.0817  0.1858
23551W        W40025  16.692   1.777   1.036 -0.3035 -0.2405 -0.2190
23552W        W40026  16.198   7.127   1.894  0.0207  0.0969  0.0178
23553W        W40027  17.485  17.130   5.838  0.1415  0.1311  0.2691
23554W        W40028   6.394  15.435  11.641  0.2218 -0.4120 -0.0818
23555W        W40029  16.697  14.094   3.709  0.1125  0.0189  0.0906
23556W        W40030  14.299  12.377  10.851 -0.1128  0.2058  0.0268
23557W        W40031  13.209  16.865  10.630  0.1504  0.0136  0.0409
23558W        W40032   6.533   4.301   2.463 -0.1065  0.1809 -0.1569
23559W        W40033   8.095  14.105   4.740  0.0174 -0.0158 -0.1657
23560W        W40034   0.813  18.019   3.573 -0.3481  0.0192  0.1755
23561W        W40035   8.156  17.809  14.397  0.1125  0.0709 -0.1006
23562W        W40036   4.856   0.763   1.341 -0.0561  0.1771  0.2965
23563W        W40037  19.090  12.561   0.967  0.2268 -0.0840  0.0073
23564W        W40038  11.912   2.869   1.733 -0.2308 -0.0458 -0.0642
23565W        W40039  18.991   2.325  10.380  0.1377 -0.0571  0.0590
23566W        W40040  15.347   5.384  14.561  0.0991  0.0420 -0.0526
23567W        W40041   1.345  19.602  10.969 -0.0085  0.3664  0.1219
23568W        W40042   9.956  18.645  12.410  0.0283  0.0885  0.0052
23569W        W40043  11.803  14.951  11.867 -0.0319  0.2751  0.4938
23570W        W40044  12.107   7.097  12.320  0.2100  0.2103 -0.1090
23571W        W40045  18.813   8.374  12.140  0.0482 -0.0597 -0.0173
23572W        W40046  19.285   1.279   2.362 -0.1199 -0.3396  0.0087
23573W        W40047  10.430   1.349  14.318  0.0352 -0.0141 -0.0282
23574W        W40048  17.807  14.211  11.249 -0.0682 -0.0819  0.0756
23575W        W40049  18.186   5.252   2.378  0.1132 -0.0194 -0.0374
23576W        W40050  10.801  16.836  12.666  0.2325  0.2035 -0.2180
23577W        W40051  15.860  17.503   4.447 -0.1310 -0.0844  0.0573
23578W        W40052   4.335  13.046   2.889  0.3204  0.0480 -0.1692
23579W        W40053  18.755   2.715  12.253 -0.3296 -0.1582 -0.0486
23580W        W40054   4.412   2.298   9.076  0.1758 -0.4291  0.2706
23581W        W40055  19.017   7.980  14.128  0.0581  0.0429 -0.0684
23582W        W40056  16.913  10.364  10.731 -0.0049 -0.0327  0.1068
23583W        W40057  19.037  14.912  10.882  0.0107 -0.3183 -0.0716
23584W        W40058  18.737   8.096   9.281  0.1031  0.2877  0.0567
23585W        W40059   5.892  10.016  12.394  0.0285 -0.0121  0.0906
23586W        W40060  16.823  12.008  10.485 -0.2754 -0.1425  0.1878
23587W        W40061  18.830   4.835  14.599 -0.0688  0.0666 -0.0623
23588W        W40062   6.072  11.769  11.647 -0.2056  0.0457  0.1201
23589W        W40063   4.345   8.770  10.314  0.1164 -0.1850  0.0330
23590W        W40064  14.088   3.788  14.246  0.0301 -0.1164 -0.0734
23591W        W40065   1.442  10.581  11.630  0.1809 -0.0642  0.0894
23592W        W40066   7.000  16.366   1.212  0.1361  0.0200  0.0679
23593W        W40067   5.759  12.091  13.485  0.1163  0.0962 -0.2515
23594W        W40068   0.732   7.169  11.358  0.0736  0.0294  0.1267
23595W        W40069  12.330  13.606   3.872 -0.1065 -0.0422  0.2926
23596W        W40070   7.133   1.526   1.081  0.0753  0.0741 -0.1252
23597W        W40071   6.865  17.933   4.056 -0.1726 -0.3710  0.3410
23598W        W40072  16.976  15.063   3.312 -0.1776 -0.2640  0.2476
23599W        W40073  12.805  10.047   0.970 -0.0833  0.0909  0.0147
23600W        W40074   5.696   8.601   0.801  0.0776  0.1108 -0.0279
23601W        W40075   8.584  11.992  14.279  0.0109  0.1436 -0.1273
23602W        W40076  15.917   9.191  11.783  0.0954 -0.2692  0.3626
23603W        W40077   7.929  12.756  14.161  0.1430  0.2337 -0.0970
23604W        W40078  18.617   9.025  14.413 -0.4113  0.0608 -0.2373
23605W        W40079  19.476   2.933   4.802  0.0034  0.0339  0.1407
23606W        W40080   8.325   2.228   3.991 -0.1482  0.5131  0.4478
23607W        W40081  10.056  16.150   0.317  0.1397  0.1651 -0.1672
23608W        W40082  11.070   9.752  10.470 -0.2905  0.1035 -0.0567
23609W        W40083  15.565   4.718  11.803  0.0468  0.1545 -0.1397
23610W        W40084  16.368   7.043  13.404  0.2787 -0.3201  0.0715
23611W        W40085   9.716   0.084  11.664 -0.0174  0.0766 -0.0280
23612W        W40086  16.087   0.139   1.606 -0.3337  0.3513 -0.2505
23613W        W40087  10.415   7.425  12.039 -0.0430 -0.1106  0.0979
23614W        W40088  16.047  17.059   4.312 -0.3221 -0.2007 -0.3394
23615W        W40089   0.025  10.574   4.260  0.1695 -0.0295  0.2255
23616W        W40090   2.861  18.651  11.336  0.1967 -0.0149 -0.3513
23617W        W40091   5.846  16.611   3.906  0.2030  0.0440 -0.0497
23618W        W40092  13.023  12.440   3.424  0.2083 -0.4310  0.0568
23619W        W40093   5.225   5.920   1.666 -0.0811 -0.0995 -0.0738
23620W        W40094   7.697  13.789  13.459  0.3014 -0.0317 -0.2713
23621W        W40095   4.313  18.802   3.229  0.1638 -0.0052  0.1028
23622W        W40096  18.354   1.708   0.600  0.0684 -0.2366 -0.0099
23623W        W40097  10.795  12.671   1.556  0.1455  0.0276  0.0835
23624W        W40098  12.990  10.494   2.677  0.2018 -0.2218  0.0002
23625W        W40099   2.556  14.845   9.103 -0.0071 -0.0274 -0.0866
23626W        W40100  12.311   1.883   0.439 -0.3736  0.1950 -0.1208
23627W        W40101  12.866   0.684   2.636 -0.5358 -0.1566  0.2693
23628W        W40102   5.786  17.677  10.722 -0.1955  0.1412 -0.1284
23629W        W40103  17.233  19.127   2.182 -0.0198 -0.0989  0.0128
23630W        W40104   0.172   9.425   4.770  0.1300  0.3017  0.3436
23631W        W40105   9.094  16.209  12.304 -0.1525 -0.0685  0.1538
23632W        W40106   8.781   4.360  10.446  0.1374  0.0017  0.0611
23633W        W40107  14.443   7.737   9.455 -0.1184  0.0691  0.0312
23634W        W40108  14.098  10.674   2.702  0.1105  0.1965  0.0767
23635W        W40109   6.572  18.991   3.879 -0.2286  0.0550  0.1963
23636W        W40110   2.165  14.725   3.804 -0.2282 -0.1726  0.0321
23637W        W40111   4.954  10.013   4.671  0.2053  0.4824  0.0653
23638W        W40112  18.169   0.739  10.211  0.0818  0.0450  0.1015
23639W        W40113   5.606   8.373  13.818 -0.5073  0.3293  0.1719
23640W        W40114   7.354   3.540  13.225 -0.0926  0.0219  0.1422
23641W        W40115   4.335  15.459  10.443  0.2282  0.4732  0.1052
23642W        W40116  18.150  17.282  10.931 -0.5015 -0.0381  0.1465
23643W        W40117  13.726  10.250   0.484 -0.0350 -0.0124 -0.0006
23644W        W40118   6.318   5.276   3.528  0.0632  0.1177 -0.0087
23645W        W40119   0.073  19.546  12.984 -0.0680  0.0786 -0.1847
23646W        W40120  17.732  11.362   0.590  0.0688 -0.1605 -0.0007
23647W        W40121   4.233   0.094   1.516  0.3090 -0.4525  0.1382
23648W        W40122  11.561   4.739   4.334 -0.0995  0.0576 -0.2345
23649W        W40123  10.286   7.533   9.869 -0.2822 -0.1581  0.0847
23650W        W40124   3.810  13.182   4.382  0.1430  0.2902 -0.0751
23651W        W40125  17.269  19.324  10.392  0.0475 -0.2167 -0.0463
23652W        W40126   0.424  12.180   1.247 -0.1027 -0.1393  0.1310
23653W        W40127  18.906   1.886  12.666 -0.0191  0.3740 -0.0100
23654W        W40128   7.728  11.470  10.635  0.1722  0.3759  0.0755
23655W        W40129  16.047   4.815   3.190 -0.1736  0.1273 -0.0565
23656W        W40130   9.008   9.778  13.016 -0.1330  0.0090 -0.2432
23657W        W40131  13.717  18.181  11.727 -0.1086 -0.2362  0.1028
23658W        W40132   1.005  17.809  13.286 -0.2262 -0.1383  0.0160
23659W        W40133  15.973  15.090   3.233  0.0178  0.1232 -0.1684
23660W        W40134   7.623  10.512  10.540 -0.0769  0.2457  0.1648
23661W        W40135  18.788  16.906  14.661  0.0058 -0.4002 -0.0449
23662W        W40136   8.662  17.806   2.509 -0.2562 -0.2075  0.2208
23663W        W40137   0.211   1.797   0.822  0.0239  0.1340 -0.0687
23664W        W40138   2.135   3.250  12.252  0.0161  0.2241  0.0783
23665W        W40139   7.629  13.246   2.671  0.0642 -0.1583 -0.3743
23666W        W40140   6.379  12.481   1.819 -0.2018 -0.2325 -0.0577
23667W        W40141  11.090   8.335   4.205  0.0216  0.3538 -0.0382
23668W        W40142  11.973   5.638   5.495 -0.0333 -0.1390 -0.0059
23669W        W40143   7.314   0.324  12.076 -0.3627  0.3624  0.0979
23670W        W40144  15.536  19.048  11.838  0.0737 -0.2006 -0.2300
23671W        W40145   9.191  19.614   3.015  0.1399  0.1664  0.3330
23672W        W40146  15.937  18.013  10.216 -0.0736 -0.4773  0.1371
23673W        W40147   3.957  17.224   1.487  0.0844  0.2789  0.2371
23674W        W40148  18.299  10.954  12.075  0.0101  0.0212 -0.1855
23675W        W40149  14.426   7.184   0.731  0.0650  0.3298  0.1555
23676W        W40150  12.562   1.874  12.809 -0.2798  0.2055 -0.0550
23677W        W40151   1.268   2.908  10.992 -0.2143  0.1978  0.0061
23678W        W40152  10.101  14.957   4.884  0.1637 -0.5135 -0.0335
23679W        W40153   1.295  19.546   3.585  0.2835 -0.2174  0.1476
23680W        W40154  11.525  14.375  11.720 -0.0788  0.0964  0.0671
23681W        W40155   3.510   7.548   0.570  0.1429 -0.0660  0.0814
23682W        W40156  18.260   5.747   4.226 -0.1713  0.3555 -0.1011
23683W        W40157  11.191   6.695  14.508 -0.3777 -0.1360 -0.0487
23684W        W40158  16.049  19.128   4.821  0.2318  0.1525  0.4270
23685W        W40159  19.305   2.543  12.119  0.0241  0.1683  0.1633
23686W        W40160  14.113  18.409   3.502 -0.3009 -0.1415 -0.0046
23687W        W40161  10.699   3.529  11.179  0.1923  0.1837  0.0768
23688W        W40162   7.491   7.894  13.978  0.0633 -0.0945 -0.1518
23689W        W40163   1.657  14.894  12.526 -0.1435  0.2087  0.0111
23690W        W40164   3.259   6.232  12.376  0.2816 -0.1533  0.0239
23691W        W40165   9.314   0.428  14.259  0.0112  0.1438 -0.2685
23692W        W40166  17.444   5.453  13.417 -0.3542  0.1300  0.2582
23693W        W40167  14.813   8.111   1.082 -0.1939 -0.0559  0.1594
23694W        W40168   0.037   0.895   0.709 -0.0259 -0.1387  0.1561
23695W        W40169  10.716   1.284  13.046 -0.2714  0.2393  0.0922
23696W        W40170   0.069  11.563  13.417  0.0045 -0.0158  0.0025
23697W        W40171   1.777  18.377   1.538 -0.1335  0.0363 -0.1335
23698W        W40172  11.100   5.993   1.325  0.1368  0.1841 -0.0645
23699W        W40173   0.607   4.700  11.828 -0.0025 -0.1844 -0.2911
23700W        W40174  14.335  11.219   2.738  0.1625 -0.0997  0.0857
23701W        W40175   9.571  13.177  12.976  0.0058 -0.3175 -0.1081
23702W        W40176  14.010  11.890  11.577  0.0691 -0.0616 -0.0231
23703W        W40177   4.305  11.369  12.722 -0.0304 -0.2634  0.0047
23704W        W40178   1.731  18.672  11.283 -0.3193  0.0938  0.2428
23705W        W40179  12.379  16.990  10.707  0.1207 -0.1043 -0.0440
23706W        W40180   5.591  14.878  11.298  0.1026  0.1596 -0.0517
23707W        W40181   4.377   6.697   0.758  0.1398 -0.1966 -0.0571
23708W        W40182   6.606  11.011  11.385 -0.2065  0.1623  0.1455
23709W        W40183   1.449   7.209   0.749  0.0778 -0.2877  0.0855
23710W        W40184   1.872  16.415  12.328  0.1466  0.1701  0.1115
23711W        W40185   9.576   5.008   0.946  0.1656  0.3949  0.1298
23712W        W40186   8.769   1.331   2.797  0.1595 -0.0338 -0.0871
23713W        W40187  19.519  12.931   0.962  0.1263 -0.5360 -0.2844
23714W        W40188   7.945   7.428  13.175 -0.0700  0.0171 -0.1667
23715W        W40189   9.292  10.529  10.588 -0.0707 -0.3666  0.0770
23716W        W40190   0.605   0.284   8.921  0.3073 -0.2251 -0.0822
23717W        W40191   0.613   1.079  14.351 -0.2557 -0.1929 -0.2030
23718W        W40192  10.364   1.059   3.049  0.2537 -0.0470  0.2679
23719W        W40193  18.300   7.220  13.197  0.2107 -0.0913  0.2856
23720W        W40194   6.500  14.438   1.719  0.0416  0.2256  0.3721
23721W        W40195  11.131  11.915   0.624  0.1102 -0.1034  0.0694
23722W        W40196   9.170   2.177   0.047  0.0282  0.0944 -0.1495
23723W        W40197  17.150  14.729  12.710 -0.1880  0.1567  0.3237
23724W        W40198   5.429  13.170  12.417  0.1431 -0.0310 -0.0691
23725W        W40199  14.010  17.230   3.780  0.0155  0.0998  0.2409
23726W        W40200  14.223  18.206   1.725  0.0229  0.1829  0.0080
23727W        W40201   7.739  17.373   0.700 -0.0894  0.3555  0.0733
23728W        W40202   5.766   6.201   1.608  0.1640  0.2630  0.2922
23729W        W40203   8.268  13.945   0.607 -0.0140 -0.1175  0.3330
23730W        W40204   7.911  15.038  12.036 -0.0035 -0.0519 -0.4117
23731W        W40205  15.940  18.208  12.270 -0.0912 -0.1409 -0.0787
23732W        W40206   5.505  13.107  11.100 -0.2418  0.0661 -0.3623
23733W        W40207   2.154  19.343   3.576  0.2506  0.0946 -0.1267
23734W        W40208   3.024  13.366   4.738  0.0744 -0.1698  0.1891
23735W        W40209   9.207   4.200  11.765 -0.2263  0.0667  0.1212
23736W        W40210   3.928   3.586  11.179 -0.0437 -0.3911  0.1869
23737W        W40211  12.325   0.023   3.175 -0.0948 -0.1432 -0.0535
23738W        W40212   3.608   1.520   1.379 -0.0870 -0.0687 -0.1781
23739W        W40213   2.897  17.940   1.297 -0.3221 -0.4739  0.2381
23740W        W40214  11.121   0.767  10.189 -0.0966 -0.1825 -0.1464
23741W        W40215  18.833   3.889  11.016 -0.0602 -0.0528 -0.3923
23742W        W40216  19.213   7.583   5.568  0.0577  0.0236 -0.1670
23743W        W40217   0.296  16.244  11.886  0.3487 -0.1701  0.0678
23744W        W40218   8.234   5.451  10.722  0.1061  0.0042  0.1168
23745W        W40219  16.466   7.317  10.792 -0.0428 -0.1641 -0.1166
23746W        W40220   7.972   3.050   2.532  0.3191 -0.0080 -0.3625
23747W        W40221   6.897  19.559  12.895 -0.3217 -0.2027  0.0880
23748W        W40222   8.161   5.209  12.846  0.1381 -0.1599  0.0600
23749W        W40223   7.493   0.187   3.960  0.0877 -0.0969  0.1474
23750W        W40224  17.880  18.722   3.900  0.0842  0.0174 -0.0488
23751W        W40225  13.501   7.720   0.036 -0.0977 -0.0659 -0.0455
23752W        W40226   9.675   1.588   0.094  0.1644  0.0934 -0.0691
23753W        W40227  15.926   0.678   0.223 -0.2256  0.0492  0.2336
23754W        W40228  10.083   4.018  12.849  0.0653 -0.0367  0.2004
23755W        W40229   3.462   9.438  10.725 -0.1170 -0.4035  0.0187
23756W        W40230   2.963  10.947  12.650  0.0013 -0.1489 -0.1670
23757W        W40231   2.038   2.977   0.977 -0.1985  0.2693 -0.1956
23758W        W40232   6.041   9.280  10.762  0.2185  0.1118 -0.0535
23759W        W40233  16.768   0.723   4.626 -0.1191  0.0769  0.0479
23760W        W40234   4.764  15.090   1.625 -0.1022  0.2833  0.1257
23761W        W40235   4.975  11.557   1.728  0.1127  0.1673 -0.1272
23762W        W40236  11.469   0.126  11.213  0.4565 -0.3646 -0.1737
23763W        W40237   4.392   0.535   2.732 -0.0730 -0.0605 -0.0884
23764W        W40238   8.153   7.623   0.438  0.2599  0.1813  0.1615
23765W        W40239  11.283  16.856   1.485 -0.1589  0.0087  0.0356
23766W        W40240   2.547  13.205   0.215  0.1991 -0.1019  0.4244
23767W        W40241  15.700   7.034  10.514  0.2587  0.1913  0.2600
23768W        W40242   1.536   8.213  14.131  0.4870 -0.0260  0.0375
23769W        W40243   9.346  11.368  12.582  0.0532  0.0726  0.2722
23770W        W40244   2.111  15.992  13.850  0.3043 -0.1539  0.0993
23771W        W40245   5.520   6.762   2.515  0.1593  0.1326 -0.0654
23772W        W40246  10.726  18.417  11.354 -0.0266 -0.3903  0.1291
23773W        W40247   5.690   6.028  12.396 -0.0146 -0.0519 -0.2577
23774W        W40248   1.760  18.581  12.095  0.0595  0.0729 -0.0809
23775W        W40249  12.319  12.187  10.535  0.0746  0.1191  0.3371
23776W        W40250  19.118  15.252  13.893  0.2748  0.0645 -0.0561
23777W        W40251   2.662   9.633  14.050  0.0156 -0.1800  0.3817
23778W        W40252  14.716  17.663   3.123  0.1016 -0.1307 -0.0049
23779W        W40253  10.302  19.569  13.989 -0.3154  0.0190 -0.0065
23780W        W40254  17.510   2.501   5.049  0.1614  0.2240 -0.4355
23781W        W40255   8.122   4.800   3.126  0.0747  0.1423 -0.0257
23782W        W40256   6.732  11.228   4.870  0.0403  0.3091 -0.2182
23783W        W40257   2.057  16.043  10.778  0.3899 -0.2672  0.0087
23784W        W40258  11.091   4.226   3.569  0.0518  0.1205 -0.0647
23785W        W40259  12.093   0.267   0.599 -0.0935  0.3960  0.1695
23786W        W40260  11.757  18.473   0.429  0.0036  0.1180  0.1017
23787W        W40261   5.328   1.910   1.141  0.2243  0.1703 -0.0222
23788W        W40262  13.671  13.797   0.142 -0.1499  0.1631 -0.0485
23789W        W40263   8.210  11.307  12.925 -0.2516  0.0417 -0.1405
23790W        W40264  17.195  12.429   5.047  0.1294 -0.0312  0.4471
23791W        W40265   2.333   7.236   5.042 -0.0031  0.2244  0.1739
23792W        W40266   3.044  14.716   3.474  0.1893 -0.2236 -0.0408
23793W        W40267   6.462   0.063  11.755  0.2229 -0.1929 -0.0774
23794W        W40268   6.860  13.671  14.612 -0.0108 -0.0415  0.4649
23795W        W40269  16.122   0.429   5.088 -0.1806 -0.3016  0.3400
23796W        W40270   0.102   5.580  14.140 -0.3702 -0.2111 -0.2235
23797W        W40271   1.496   9.756   9.185  0.0840  0.0801 -0.1912
23798W        W40272  18.557  14.405   2.338  0.0418  0.0391  0.2197
23799W        W40273   4.754   1.301   0.770 -0.1890  0.3372  0.0958
23800W        W40274  13.249   2.523  11.991 -0.3083 -0.0260  0.0289
23801W        W40275   6.507  15.082  11.955  0.0698  0.3315 -0.1116
23802W        W40276   3.664  10.625  11.479  0.1004 -0.1414  0.1753
23803W        W40277   7.747   5.575  12.500 -0.1791  0.0189  0.4106
23804W        W40278   4.073   7.278   1.642 -0.3230 -0.1342 -0.2446
23805W        W40279  17.425  12.356  11.975  0.1530 -0.2154 -0.1243
23806W        W40280   2.944   4.569  13.836 -0.2102  0.1448 -0.2035
23807W        W40281   3.657  15.048   4.858 -0.0235  0.0373 -0.2401
23808W        W40282   9.743   4.103  10.213  0.1903 -0.0779 -0.2702
23809W        W40283   1.527  14.527  12.185  0.0781 -0.0899  0.2310
23810W        W40284  15.993  17.901   1.592 -0.0278 -0.2204 -0.1029
23811W        W40285   6.889  12.935   5.707  0.0370 -0.0486 -0.0556
23812W        W40286   0.124   9.082  14.624  0.1479 -0.2571 -0.0895
23813W        W40287   5.434   0.897  12.123 -0.1382 -0.0470  0.2140
23814W        W40288   7.742   8.005   3.892 -0.1737  0.0138 -0.3151
23815W        W40289  18.713   2.130  12.227  0.1666  0.0401 -0.0011
23816W        W40290   8.127  18.226  11.246  0.1977  0.0586  0.1526
23817W        W40291  10.327  16.576   1.932 -0.0105 -0.3271  0.0621
23818W        W40292   8.765   0.842  14.229 -0.2926 -0.1904 -0.4630
23819W        W40293  13.118   1.158   9.179  0.2846 -0.0840  0.3898
23820W        W40294  12.744   1.314  13.979  0.4233  0.1455  0.0998
23821W        W40295  13.910   6.895  12.989 -0.0323 -0.0635  0.4963
23822W        W40296  18.043  15.658   2.735  0.0906  0.2133 -0.1263
23823W        W40297   6.076  15.628   1.584 -0.0243  0.0613  0.0235
23824W        W40298  16.036  13.105  12.217 -0.0791  0.1104  0.2806
23825W        W40299  17.114  18.371   0.487 -0.4634 -0.0980 -0.0501
23826W        W40300  16.838  11.696   9.988 -0.4789 -0.2518 -0.1341
23827W        W40301   1.303   9.204  10.107 -0.1449  0.1267 -0.2904
23828W        W40302  13.424  11.218   2.451 -0.3148 -0.2579  0.5562
23829W        W40303  17.844  16.755   0.181  0.0299  0.1654  0.0812
23830W        W40304   0.750   0.542  14.421 -0.1373  0.1681 -0.4456
23831W        W40305   6.904   4.192   3.250  0.0559  0.0998 -0.0251
23832W        W40306   5.487  18.222   5.056  0.3080 -0.0238 -0.0488
23833W        W40307   8.788   4.531   0.423 -0.1595  0.4278  0.1248
23834W        W40308  12.336   9.479   4.468  0.0373  0.0752  0.0599
23835W        W40309  14.990  19.497  13.784 -0.1863 -0.2479 -0.2535
23836W        W40310   5.206   5.284  14.089  0.0401 -0.0048  0.0013
23837W        W40311  14.222   7.592  10.434  0.0074 -0.2007  0.2566
23838W        W40312  10.235  10.245   5.145  0.0117  0.1779  0.1392
23839W        W40313   8.425  10.436  12.684  0.0539 -0.0335  0.1070
23840W        W40314   8.366   5.129   2.787  0.0320 -0.0257  0.0385
23841W        W40315   8.192  10.620   1.152 -0.4423 -0.2637  0.1978
23842W        W40316   8.601  11.621  13.185 -0.0443 -0.1098 -0.0219
23843W        W40317   1.180   8.769  12.749  0.4456  0.0971  0.3427
23844W        W40318   8.543   6.444   1.765 -0.1401 -0.3280 -0.1738
23845W        W40319  15.271   4.303  12.545  0.3877 -0.0192  0.2520
23846W        W40320   5.634   4.079  11.810 -0.0631  0.3251 -0.0919
23847W        W40321   9.213   4.343   1.326 -0.3136 -0.1532 -0.1715
23848W        W40322  11.380   1.040   9.436  0.4750  0.1321 -0.1741
23849W        W40323  17.427   0.301   0.184 -0.0997 -0.1157  0.0593
23850W        W40324  11.533  14.531   0.441 -0.4765 -0.2419 -0.1127
23851W        W40325   3.068   0.163  14.205  0.0241 -0.1373  0.1109
23852W        W40326  15.752   4.587  10.728  0.2177 -0.1727  0.0825
23853W        W40327   9.135   7.989  12.081  0.0106  0.0626 -0.0669
23854W        W40328   2.380   9.499   3.875  0.1076  0.0204  0.0403
23855W        W40329  11.811  15.832   1.495  0.1846  0.0488 -0.3157
23856W        W40330  10.129   2.761  10.643 -0.2305  0.3275 -0.0626
23857W        W40331  16.493   6.303   1.256  0.0919 -0.1494  0.0195
23858W        W40332   1.231   8.810   5.111  0.0374 -0.3004  0.0832
23859W        W40333  19.136  19.443  13.077 -0.1157  0.2981  0.1714
23860W        W40334  15.798  11.124   1.225  0.2751  0.2881  0.0392
23861W        W40335  14.891   6.726  13.194 -0.2864  0.2617  0.0969
23862W        W40336  13.328  15.062   2.748  0.3356 -0.1688 -0.2918
23863W        W40337   7.148   9.237  11.417  0.0054  0.1656  0.2827
23864W        W40338  13.444   7.197   0.505 -0.1900  0.0987 -0.0745
23865W        W40339  11.602   6.863   2.955 -0.0852  0.1674  0.1360
23866W        W40340   1.766  12.662  12.048  0.0633  0.2391 -0.3086
23867W        W40341   5.349  13.869   3.566 -0.0603 -0.0746 -0.0519
23868W        W40342   5.488  18.126   0.845  0.1157 -0.0761  0.3227
23869W        W40343   3.277   0.609   0.109 -0.0651  0.1176  0.1016
23870W        W40344  14.535   6.492  11.285  0.3277  0.0145 -0.4741
23871W        W40345   9.152  13.222  14.602  0.0464  0.3170 -0.1815
23872W        W40346  11.930  12.828  12.393 -0.3560 -0.0079 -0.2018
23873W        W40347  19.152   7.773  10.952  0.1791 -0.1502 -0.0988
23874W        W40348  12.200   9.925  13.629 -0.1971  0.1071 -0.2261
23875W        W40349   5.454  17.769  10.195 -0.0850 -0.1448 -0.5039
23876W        W40350   5.102   3.921   0.282 -0.1296  0.2678  0.2280
23877W        W40351   0.578  14.761   3.835  0.0304 -0.1488  0.1531
23878W        W40352   8.366   9.250   4.980  0.1699  0.0846  0.3519
23879W        W40353   5.796   4.520  11.989 -0.5111 -0.2724  0.1126
23880W        W40354   7.178  14.692   4.680  0.1658 -0.0314  0.1031
23881W        W40355  12.388   9.738   3.043 -0.1714 -0.0208  0.0149
23882W        W40356   1.382  11.161   4.454 -0.0091 -0.0901  0.1357
23883W        W40357  12.859   1.031  13.089  0.3837 -0.3089  0.0323
23884W        W40358   1.975  14.154  13.008 -0.0940  0.0124  0.1319
23885W        W40359   6.998   9.473   1.417 -0.0647 -0.1059  0.0894
23886W        W40360  17.448   1.263   3.092 -0.2911 -0.0895  0.0107
23887W        W40361   3.264   2.358  13.769  0.0049 -0.1631 -0.0943
23888W        W40362   7.285   2.546  10.338 -0.0137 -0.1068 -0.0027
23889W        W40363   9.891  12.217   4.155  0.2855  0.2051  0.2275
23890W        W40364  19.155  13.880  12.715 -0.4386 -0.1247 -0.0152
23891W        W40365   1.248   7.057  14.485  0.2028  0.0726  0.2922
23892W        W40366   4.150  11.569   3.719 -0.2365  0.0407 -0.0000
23893W        W40367  15.852   3.548  11.230 -0.1101  0.1987  0.2208
23894W        W40368   9.402  19.363   1.846 -0.1502 -0.0864 -0.0488
23895W        W40369  11.588   4.357   2.896 -0.0425  0.0319 -0.2551
23896W        W40370  11.552   0.629   5.147  0.1614  0.2476 -0.2444
23897W        W40371   2.460   2.847  12.106  0.1776  0.0325  0.1792
23898W        W40372  16.134   6.407  11.894  0.1377  0.0091  0.4418
23899W        W40373  14.161  13.813   1.548 -0.1355  0.3766  0.3135
23900W        W40374  11.770  13.827   2.494  0.3202 -0.0208  0.4017
23901W        W40375  17.488   8.689  11.363  0.1801 -0.1433  0.5034
23902W        W40376   6.834   9.541  13.276  0.2862 -0.1872 -0.0418
23903W        W40377   2.373  18.647   0.166 -0.1186 -0.3506 -0.1987
23904W        W40378  15.539   0.944  13.104 -0.2181  0.0976 -0.0701
23905W        W40379   7.046   8.917  14.203 -0.0848 -0.1597  0.0467
23906W        W40380   5.575  11.852  14.528  0.1262  0.1677 -0.0998
23907W        W40381   6.134   5.021   1.170 -0.0521  0.0384 -0.1833
23908W        W40382   7.989   8.189   1.527 -0.0039  0.0264 -0.2796
23909W        W40383   1.643   6.275  11.255 -0.1121 -0.1471  0.1218
23910W        W40384   0.919   6.220  14.339  0.1880 -0.0647  0.4518
23911W        W40385   7.582   6.258   1.019  0.1951  0.0433 -0.3859
23912W        W40386   0.523  14.308   3.901  0.4187  0.0757  0.2452
23913W        W40387   8.066   3.166   3.609 -0.5565  0.0606  0.1173
23914W        W40388  11.442   5.323   3.870  0.2372  0.7060 -0.0047
23915W        W40389  14.688  10.786   1.035 -0.2391  0.1255 -0.1232
23916W        W40390  14.603   3.272   1.708  0.0875  0.1549  0.0301
23917W        W40391   2.484   1.448  10.799  0.0004  0.2595  0.4176
23918W        W40392   7.690  17.431   4.693  0.1450 -0.0326  0.0326
23919W        W40393  13.963  13.807   2.538 -0.1537  0.5358 -0.0127
23920W        W40394  10.018   8.555   2.897  0.1951 -0.1706  0.2982
23921W        W40395  12.730  12.557   2.572  0.2791  0.1791 -0.0005
23922W        W40396  18.305  11.298   0.393 -0.1396  0.3130 -0.0856
23923W        W40397   0.296  10.070  12.567 -0.0214 -0.0730 -0.2382
23924W        W40398  14.786   9.689  13.216  0.1903  0.2528  0.3495
23925W        W40399  16.394  11.489  10.413  0.1695  0.1180  0.3204
23926W        W40400   9.275   2.338   9.735  0.0638  0.5959 -0.4203
23927W        W40401   4.407   2.197   2.036  0.1198  0.0547 -0.1287
23928W        W40402   6.313   9.681   4.818  0.4809 -0.1766  0.0757
23929W        W40403  18.424  14.033  13.655  0.3078  0.1484  0.1932
23930W        W40404   0.926   2.103   4.201 -0.1074 -0.2972 -0.2212
23931W        W40405  15.801   0.191  10.820 -0.4195  0.0580 -0.0699
23932W        W40406   2.866  10.341   0.925  0.1407  0.1475  0.4314
23933W        W40407  18.182   3.480   0.260  0.2091 -0.1695 -0.0089
23934W        W40408  18.473  19.134   3.494  0.0976  0.0436 -0.0995
23935W        W40409   1.370   5.482  10.357  0.4116  0.0126 -0.1119
23936W        W40410  18.334   9.678  13.143  0.1073  0.2246  0.2977
23937W        W40411   7.829  13.683   4.694  0.0413  0.1771  0.0644
23938W        W40412  13.301   4.353   3.127 -0.2019  0.1876  0.2655
23939W        W40413  17.952   9.516  11.217 -0.1246  0.0057  0.0574
23940W        W40414  18.566   6.671  10.114  0.3371  0.2364 -0.1077
23941W        W40415  13.048   5.615   0.667 -0.3966 -0.1241  0.0633
23942W        W40416  12.343  12.691  10.319  0.4001 -0.0038 -0.0376
23943W        W40417   0.698  14.355   4.785  0.0356  0.1527 -0.0609
23944W        W40418   3.831   8.821  11.700 -0.1088  0.1144 -0.2892
23945W        W40419  10.697  12.880   0.412 -0.1455  0.1684 -0.1405
23946W        W40420  10.378  14.569  10.741 -0.1818  0.3919 -0.3071
23947W        W40421   3.361  16.967   2.651  0.0610 -0.2374  0.1500
23948W        W40422   2.593   1.233   3.720 -0.1662  0.0447 -0.0127
23949W        W40423   1.852   5.115   4.511  0.0057  0.0616 -0.0881
23950W        W40424  17.168  19.506   1.236 -0.0500  0.0514  0.1196
23951W        W40425   4.182   8.583   0.436  0.0889  0.1354 -0.1440
23952W        W40426   2.012  10.988  11.296 -0.1199 -0.0832  0.1784
23953W        W40427  13.651  13.403   1.417  0.2626 -0.1892 -0.1915
23954W        W40428   6.057   3.772  12.272 -0.0529  0.1033 -0.3517
23955W        W40429   3.242  15.748  13.793 -0.0341 -0.2271 -0.2219
23956W        W40430  18.898  15.256  11.293  0.1466 -0.2492 -0.4678
23957W        W40431  17.024  14.756  14.046  0.0700  0.2143 -0.0931
23958W        W40432   8.561  10.100  12.296  0.2797 -0.0515 -0.2417
23959W        W40433  11.558   3.075  10.140  0.1099 -0.3035  0.4435
23960W        W40434  15.593  18.411  14.656  0.0849  0.2450 -0.1237
23961W        W40435  14.822   2.112  13.609  0.0097 -0.2769 -0.0595
23962W        W40436  17.071   1.187  10.127 -0.2581  0.1351 -0.0533
23963W        W40437   4.033  17.333  13.903 -0.0961  0.0790 -0.1134
23964W        W40438  12.941   4.929  11.419  0.0335 -0.0194  0.1487
23965W        W40439  17.905   9.551   0.785 -0.3197  0.0044 -0.3357
23966W        W40440  12.343   9.202   1.035 -0.1992 -0.0872 -0.2046
23967W        W40441  15.977  12.802   1.535  0.2104 -0.2607 -0.5453
23968W        W40442  19.559   9.489   0.917 -0.1278 -0.0109  0.1747
23969W        W40443  13.065   3.112   3.714  0.0633  0.1530 -0.1003
23970W        W40444   0.110  13.450   0.809 -0.0633 -0.1073 -0.2559
23971W        W40445   4.409   5.825   0.533  0.0368  0.0049  0.4108
23972W        W40446  13.984   2.610   2.171 -0.1162 -0.1048 -0.1495
23973W        W40447  18.124  14.206   1.974 -0.0732  0.0079 -0.1374
23974W        W40448   1.103   0.660  13.006  0.1035 -0.0468 -0.3557
23975W        W40449   2.615  10.802   0.770 -0.0726 -0.0859 -0.1099
23976W        W40450   0.386  10.471   2.479  0.3593  0.2487  0.0837
23977W        W40451   3.016   6.910  11.816 -0.1183 -0.0905  0.0270
23978W        W40452   7.685   8.005  10.303 -0.1017 -0.1413 -0.1789
23979W        W40453   2.028  18.771   2.958 -0.3742  0.2086  0.1065
23980W        W40454  15.524   1.614  14.518  0.0972 -0.0046 -0.0014
23981W        W40455  10.501  19.039  10.548  0.0951  0.0845  0.2222
23982W        W40456   6.308  10.259  12.234  0.0182 -0.0282  0.2429
23983W        W40457   1.159  14.565   3.919  0.0991  0.2882  0.2444
23984W        W40458   2.803  16.433   4.015 -0.1213  0.1168 -0.1996
23985W        W40459   1.436   8.265   4.585 -0.1263  0.4584 -0.1291
23986W        W40460  14.126  13.890  14.347 -0.1758 -0.0857 -0.1146
23987W        W40461   6.489   7.875   1.779  0.0283 -0.4139 -0.0265
23988W        W40462   7.871   4.209   0.483  0.0332 -0.0092 -0.1268
23989W        W40463   2.940  14.259   1.532 -0.1203  0.0568 -0.0694
23990W        W40464   5.641  12.490   3.550  0.0212  0.4485 -0.3132
23991W        W40465  15.602  12.777   3.002  0.0524  0.1043 -0.0575
23992W        W40466  15.222  18.831  12.585  0.0173  0.0632  0.0455
23993W        W40467   9.491  10.651   5.408  0.1757 -0.1750  0.3236
23994W        W40468   2.231  11.096   0.655  0.0505  0.1252  0.1681
23995W        W40469  16.858   1.122  12.803  0.0105 -0.1936  0.0531
23996W        W40470  18.683   4.747  12.860  0.2933  0.0736  0.2247
23997W        W40471  14.840  14.052   5.250  0.2981  0.1239  0.0325
23998W        W40472  15.119  16.317   1.219 -0.3205  0.0232 -0.1376
23999W        W40473  14.549  12.916  12.892  0.1633  0.1457 -0.2019
24000W        W40474  15.946  16.710   3.868 -0.3024  0.1637  0.0953
24001W        W40475   8.530  15.534   2.894  0.1597  0.1264  0.0336
24002W        W40476   1.584  17.181  12.600  0.4002  0.0766 -0.1441
24003W        W40477   7.196  14.409  12.946 -0.3657 -0.0581  0.3844
24004W        W40478   4.446   1.360   8.741 -0.2349  0.2402  0.0728
24005W        W40479  11.695  18.843   5.167  0.0286 -0.1322  0.3597
24006W        W40480   1.263   2.818  14.493  0.1549  0.2242  0.0397
24007W        W40481   3.402   6.054  14.649 -0.0740 -0.0181  0.0144
24008W        W40482   6.975   4.645  14.204 -0.2488 -0.0050 -0.0537
24009W        W40483   6.010   2.066  13.011 -0.0844 -0.1820  0.2509
24010W        W40484  13.187   8.947   2.472 -0.1014 -0.0544 -0.3627
24011W        W40485   4.918   5.115   2.360 -0.1112  0.0011  0.0931
24012W        W40486   7.225   1.087   0.188 -0.3584 -0.1758 -0.1937
24013W        W40487   6.245   8.727   1.303  0.1995  0.1038  0.0169
24014W        W40488   9.973   1.720  11.568 -0.3915  0.0765  0.1402
24015W        W40489  15.311  11.245   2.163  0.3853 -0.3303 -0.0351
24016W        W40490   5.917  14.628  11.010  0.1741 -0.0673  0.1769
24017W        W40491   5.523  10.256   2.507  0.1510  0.1108  0.1743
24018W        W40492   2.038   5.385   3.198  0.0655  0.1497  0.1447
24019W        W40493   2.825  19.243   9.872  0.1829  0.0778 -0.1153
24020W        W40494   4.281   5.419   0.921  0.2477 -0.1232  0.1649
24021W        W40495  10.074  16.506   2.433 -0.0051 -0.0444  0.2562
24022W        W40496  16.869  19.091   0.939 -0.2695  0.1687  0.2243
24023W        W40497   3.928  14.774   0.946  0.4723 -0.4595  0.1417
24024W        W40498  18.477   6.203   4.344 -0.0721  0.2915 -0.2196
24025W        W40499   7.868  16.708   4.282  0.0669  0.3035 -0.1820
24026W        W40500   6.279   5.793   9.637 -0.0974  0.1173  0.1888
24027W        W40501  14.863   7.155   3.637 -0.2209 -0.0264  0.0737
24028W        W40502  15.156   4.910  11.444  0.0812 -0.0554 -0.1966
24029W        W40503  15.289   2.261  13.517  0.2992 -0.3605 -0.1577
24030W        W40504   6.926   9.032  11.812  0.1036  0.3900 -0.0580
24031W        W40505  13.990  19.363   0.240 -0.0887  0.1238  0.0465
24032W        W40506   3.753  17.920   3.480 -0.4397  0.3185 -0.2015
24033W        W40507  17.154   8.339  11.036  0.1338  0.1777  0.2335
24034W        W40508   1.668   1.842  12.819  0.2242  0.0939  0.0035
24035W        W40509   5.487   5.275   3.837 -0.0101 -0.4656  0.0035
24036W        W40510  13.645   1.908  14.353  0.1303  0.0996 -0.0917
24037W        W40511   8.453   3.317   1.619  0.4087  0.0705 -0.1792
24038W        W40512  12.736   4.368   1.224 -0.0099  0.1546  0.1234
24039W        W40513  17.076   2.428   1.178 -0.1186 -0.0293  0.2083
24040W        W40514   4.335   9.469   0.260 -0.1973 -0.1058 -0.2803
24041W        W40515   2.863   2.054   3.963 -0.0637  0.5871  0.1441
24042W        W40516  13.788  12.999   1.903 -0.0162  0.2499 -0.5234
24043W        W40517  12.315  16.053   5.113  0.1145  0.1179  0.0093
24044W        W40518  15.303   2.720  14.402 -0.1553 -0.5274 -0.1696
24045W        W40519   4.169  11.043  13.354 -0.1170  0.2128 -0.0946
24046W        W40520  14.847  10.433   5.125 -0.2992 -0.2528  0.1844
24047W        W40521   1.589  18.700   3.471  0.0737  0.1639  0.2155
24048W        W40522  15.131   7.641   1.179 -0.0342  0.3476 -0.0046
24049W        W40523   4.649   0.849  12.548  0.0514  0.1087 -0.0851
24050W        W40524  14.301   9.480   2.595 -0.0409  0.1501 -0.0979
24051W        W40525  12.987  13.162   9.550 -0.3355  0.0464  0.0968
24052W        W40526   2.013  10.011  13.032  0.0972 -0.0348  0.0965
24053W        W40527  14.609   7.537   2.479 -0.0637  0.1104  0.0384
24054W        W40528   5.374  18.018  12.523  0.1560 -0.1014  0.0255
24055W        W40529   8.215   3.192   3.030  0.2432  0.0649 -0.1209
24056W        W40530  11.061   4.880   1.422  0.1131  0.3539  0.0603
24057W        W40531   2.666  12.908   3.800 -0.4249 -0.0869  0.0766
24058W        W40532  19.010   7.691   1.919 -0.1534  0.1135 -0.2420
24059W        W40533   2.994  10.484   0.344 -0.0894 -0.1024 -0.2128
24060W        W40534  17.378  12.492   2.294 -0.2569  0.4565 -0.0282
24061W        W40535   6.861   4.308  13.806  0.2259  0.2155 -0.3085
24062W        W40536   8.310  12.260  11.447  0.2238 -0.3102  0.1195
24063W        W40537  13.577  19.336  14.351  0.1201  0.1395  0.1375
24064W        W40538   9.554  19.517  10.622  0.0474 -0.1536 -0.2497
24065W        W40539  10.368  14.333   0.414  0.3073 -0.2227  0.0911
24066W        W40540   2.301   4.798   0.727 -0.3286  0.2357 -0.0150
24067W        W40541  16.243  14.148  14.068 -0.1577 -0.0590  0.0781
24068W        W40542   2.705   7.029  11.302  0.2528 -0.3100 -0.3366
24069W        W40543  17.040   9.265   0.577 -0.0101  0.1412  0.1453
24070W        W40544   7.101  17.044  13.833 -0.0709  0.1899  0.4054
24071W        W40545  11.929  15.511   0.688 -0.5782 -0.1982 -0.0082
24072W        W40546  12.040  13.996   4.013 -0.3223 -0.2166 -0.1259
24073W        W40547  13.971   3.746   4.793 -0.3250  0.0331  0.1045
24074W        W40548  18.269  12.612   5.068 -0.1764  0.0343 -0.0021
24075W        W40549   0.524   5.117  13.963 -0.0684 -0.0069 -0.2107
24076W        W40550   3.516   0.590  12.084  0.0125 -0.1723 -0.2231
24077W        W40551   9.263   6.892  14.418  0.1317  0.0888 -0.1746
24078W        W40552  18.389  15.905   3.731  0.0039  0.2448  0.0466
24079W        W40553   5.212   0.984  13.412  0.0309 -0.3340  0.0598
24080W        W40554  15.493  14.103   0.797  0.0837 -0.3030  0.0030
24081W        W40555   9.995  14.343  12.061  0.2476 -0.0302  0.3120
24082W        W40556   2.210  18.109  13.749 -0.0748  0.1912 -0.3397
24083W        W40557  10.598   5.625   1.081  0.2778 -0.0294  0.0616
24084W        W40558  17.886   1.370  13.070 -0.1141 -0.0881  0.3719
24085W        W40559   7.401   5.416   3.303 -0.0646  0.0744  0.2225
24086W        W40560  12.310   2.019   3.499 -0.0359 -0.0266 -0.0184
24087W        W40561  12.921  11.508   0.569 -0.1992 -0.0725  0.0299
24088W        W40562   6.260   4.226  14.137  0.1751 -0.1648 -0.1862
24089W        W40563  14.346  18.073   3.202  0.0224 -0.0518 -0.0772
24090W        W40564   2.914   1.284   4.198  0.2431  0.1163  0.1696
24091W        W40565  17.340  11.532  13.830 -0.1665  0.1324 -0.4245
24092W        W40566  18.202  13.589   3.174 -0.2525 -0.1259 -0.2738
24093W        W40567   9.146   1.684   0.044  0.1490 -0.1738  0.2569
24094W        W40568  14.086   3.398  12.291  0.0206 -0.3104  0.2153
24095W        W40569   7.684   5.803   2.541  0.1805 -0.2395  0.0211
24096W        W40570  13.448  14.899   3.934  0.0619 -0.0445  0.0044
24097W        W40571   0.198   4.814  13.581 -0.0036  0.0698  0.0913
24098W        W40572   7.186   2.023  11.064 -0.2393  0.1050  0.2237
24099W        W40573  17.614   4.275   1.295  0.1209 -0.5646  0.2302
24100W        W40574   5.891   8.195  11.446  0.3372 -0.1347 -0.3991
24101W        W40575  10.891  17.232   3.509 -0.2347  0.1485  0.2138
24102W        W40576  19.505   1.049  11.052  0.1510 -0.0707  0.0130
24103W        W40577   6.926   8.170   4.093 -0.0073  0.2227  0.0835
24104W        W40578  11.040   4.857  11.905 -0.0305 -0.2979 -0.0891
24105W        W40579  18.190  10.157  14.659 -0.3140 -0.2625 -0.3097
24106W        W40580  13.442  17.734  10.430 -0.1305 -0.3196 -0.1423
24107W        W40581  12.350   4.575  10.383 -0.1570 -0.0205  0.0173
24108W        W40582   2.180   0.449   2.826 -0.0576  0.0405  0.4746
24109W        W40583   4.180   7.978   1.138 -0.0025 -0.1895  0.0852
24110W        W40584   9.581  12.944   1.678  0.1638  0.3568  0.2855
24111W        W40585   4.118  16.162  14.113 -0.1882 -0.1680  0.0422
24112W        W40586  10.051  13.296   2.615 -0.0137  0.0477  0.0690
24113W        W40587   9.382  11.097  13.050 -0.1772 -0.2912  0.0931
24114W        W40588   6.497  13.879  10.712 -0.3150  0.1755  0.1497
24115W        W40589  14.653   8.731  13.935  0.0970  0.0368  0.1963
24116W        W40590  14.729  16.535   4.778 -0.0188 -0.0717 -0.1903
24117W        W40591  16.167  18.847  14.119  0.2033  0.2445 -0.2030
24118W        W40592   1.086   3.047   0.692  0.0030  0.1316  0.2153
24119W        W40593   1.895  11.542  12.606  0.3039 -0.0843  0.1447
24120W        W40594  14.692   9.463  13.670  0.0267  0.2085 -0.4109
24121W        W40595   3.213  17.884  10.123 -0.1218  0.0471 -0.1653
24122W        W40596   9.474   7.007   2.353 -0.2661  0.1348 -0.0447
24123W        W40597  17.064  14.286   3.337 -0.0766 -0.2672  0.1276
24124W        W40598   1.642   8.318   1.798  0.0288 -0.2222  0.4637
24125W        W40599   1.074  13.251  10.868 -0.2090 -0.2853  0.2433
24126W        W40600  12.538  17.550   4.279 -0.2937 -0.1399  0.0568
24127W        W40601   6.183  13.078  10.344  0.0282 -0.1312 -0.0417
24128W        W40602  14.490  16.339   1.945  0.3958  0.1503 -0.0755
24129W        W40603  18.610  16.629  11.160  0.2934  0.0972 -0.0255
24130W        W40604  15.391  14.995  12.663  0.2184 -0.0181  0.2645
24131W        W40605   3.319   4.173  13.361 -0.1192  0.0605  0.4686
24132W        W40606   0.418  11.735   9.930  0.1531 -0.1028 -0.3902
24133W        W40607  14.211   9.866  11.008  0.0949  0.0607  0.1858
24134W        W40608  15.495   5.040   5.411 -0.1755  0.3814 -0.2867
24135W        W40609  18.845  14.781   4.855 -0.0340  0.1914 -0.0381
24136W        W40610   9.052  13.222   4.396 -0.0519 -0.2505 -0.3881
24137W        W40611   8.666  15.012  14.251  0.3466  0.0559  0.2835
24138W        W40612  16.222  13.659   3.559  0.1803 -0.1153  0.0506
24139W        W40613   5.050   3.996   9.957 -0.0605  0.1060 -0.0807
24140W        W40614   8.216   9.990  13.783  0.2835 -0.0531 -0.0328
24141W        W40615   5.045  16.087  10.934 -0.0886  0.0485  0.1176
24142W        W40616   0.124   8.616  10.640 -0.1588  0.4809  0.2291
24143W        W40617   4.942   9.683   2.320 -0.4266 -0.1282 -0.0195
24144W        W40618  18.042  18.705  14.335 -0.3214 -0.3169 -0.3477
24145W        W40619  13.465   4.944  13.613 -0.1170  0.0454  0.0792
24146W        W40620  18.484   0.567  11.869 -0.0718  0.0603 -0.1701
24147W        W40621   5.627  15.708  13.608  0.0130 -0.1721 -0.0306
24148W        W40622  11.078   8.574   5.164  0.0833 -0.2735  0.1952
24149W        W40623  15.401   1.096  12.424  0.0947 -0.1479 -0.0659
24150W        W40624  13.991   7.581   3.444 -0.0620 -0.0336  0.1103
24151W        W40625  15.632   3.198  10.725  0.0078 -0.1518 -0.0255
24152W        W40626   9.252   5.724  13.544 -0.0844  0.2092 -0.2280
24153W        W40627  18.336  19.189  12.360 -0.1377  0.1443 -0.2373
24154W        W40628   5.789   3.964  12.854  0.2312 -0.1261  0.2635
24155W        W40629   5.323   4.778  12.155 -0.0555  0.1373 -0.2547
24156W        W40630  16.326  17.065   3.857 -0.0792  0.0082 -0.2495
24157W        W40631   6.669   7.483  10.774 -0.0634  0.0371 -0.2303
24158W        W40632  16.972   6.720   5.028 -0.0036 -0.0472  0.4551
24159W        W40633  11.889   2.129  14.540 -0.2448 -0.2239  0.0727
24160W        W40634  10.635   8.576   2.211 -0.0800  0.1811  0.0471
24161W        W40635   1.240  15.647  10.615  0.2666 -0.1419 -0.2069
24162W        W40636  11.334   0.358  10.472 -0.1570  0.1797 -0.2437
24163W        W40637  19.201   6.333   2.395  0.1447 -0.1954  0.2586
24164W        W40638  12.140  13.441   1.215 -0.0512  0.0104  0.1487
24165W        W40639  12.922   5.859  10.461 -0.0572  0.0014 -0.0578
24166W        W40640  14.325   3.775   0.871  0.0343 -0.0545  0.1638
24167W        W40641  10.106  15.029   2.964 -0.1295 -0.3792 -0.0555
24168W        W40642   8.034  13.154   3.643 -0.2879 -0.5473 -0.1441
24169W        W40643   6.162   9.437  11.564 -0.0425  0.0199  0.0162
24170W        W40644   1.614   0.622  10.788  0.1817  0.2692 -0.0266
24171W        W40645  13.813   2.181  10.764 -0.1647 -0.1467 -0.0027
24172W        W40646   8.689   0.713  10.871 -0.0987  0.1303 -0.1838
24173W        W40647   7.400   9.709   9.083  0.0317  0.2449 -0.2322
24174W        W40648   8.585  13.015   2.265  0.0607 -0.0567 -0.0303
24175W        W40649   0.228  10.211   1.507  0.2023  0.1322  0.0012
24176W        W40650   9.087  15.292   0.880  0.2058  0.2314  0.3249
24177W        W40651   9.235  18.112   5.384  0.2210  0.1460  0.0086
24178W        W40652   9.054   3.468  13.280 -0.2308  0.0586  0.1956
24179W        W40653   4.171   0.424  10.049 -0.0521  0.2225  0.2176
24180W        W40654  15.312  13.816  12.027  0.2089  0.4305 -0.0034
24181W        W40655   1.202   0.183  12.255 -0.0911  0.1735  0.0142
24182W        W40656  17.996  15.034  12.872 -0.1630  0.0326 -0.1547
24183W        W40657   4.476   2.807  14.485  0.1017 -0.0969  0.0272
24184W        W40658  14.188   5.180  13.953 -0.0512 -0.0586 -0.1161
24185W        W40659   7.265   8.162  11.818 -0.0551 -0.0642  0.2590
24186W        W40660  11.617  13.945   1.375 -0.2168  0.3563 -0.1620
24187W        W40661  18.334   3.843  11.309 -0.0790 -0.1531  0.1049
24188W        W40662  19.587  11.589   4.421 -0.3892 -0.3937 -0.0054
24189W        W40663   5.114   7.254  10.963 -0.0101 -0.1006  0.2120
24190W        W40664   2.476  18.190   0.374 -0.2191 -0.0088  0.3612
24191W        W40665   0.538  10.430  11.662 -0.0892  0.1368 -0.3143
24192W        W40666  11.958   9.559   1.196 -0.0347  0.1297 -0.0592
24193W        W40667  11.544  17.273   1.589 -0.0793  0.0243  0.0045
24194W        W40668  17.759  19.576   3.411 -0.0914 -0.0187  0.3147
24195W        W40669  12.909   8.841   0.401  0.0594  0.0903  0.1637
24196W        W40670   3.362   3.894   0.117 -0.1411 -0.1697 -0.0975
24197W        W40671   7.215  17.556  10.860  0.1098  0.1870  0.0179
24198W        W40672  16.210   4.337   5.031 -0.2032 -0.0116 -0.0865
24199W        W40673  10.320   9.007   2.596 -0.0987 -0.2816  0.2048
24200W        W40674   7.377   3.073  10.414  0.3442  0.0128 -0.0562
24201W        W40675  16.097   2.289   0.469  0.0424 -0.1565 -0.0522
24202W        W40676   3.881  12.217  10.953 -0.1777  0.2446  0.0834
24203W        W40677   1.959  12.783   1.369  0.2157 -0.0745 -0.0405
24204W        W40678  15.287  13.092  13.902  0.0886  0.0667  0.0136
24205W        W40679  18.848   2.330   0.953  0.0222 -0.1046 -0.2284
24206W        W40680   9.023  16.324  10.345 -0.1103  0.0460 -0.2111
24207W        W40681  13.391  12.472  13.635  0.0890 -0.0851 -0.0481
24208W        W40682   8.740  15.449   5.087 -0.1288  0.2562 -0.1739
24209W        W40683   4.933  16.484   4.930 -0.0024 -0.1019  0.0141
24210W        W40684   9.724   5.701  11.553 -0.0612 -0.0800  0.5132
24211W        W40685  13.818   2.232   3.088  0.3611  0.1256  0.2551
24212W        W40686  11.260   9.385   4.515  0.1215 -0.0646 -0.2876
24213W        W40687  18.918  12.802   3.189  0.0978  0.3363 -0.1120
24214W        W40688  17.789  13.682   4.428  0.1134 -0.0686 -0.1231
24215W        W40689  12.534  11.611  11.408  0.3947  0.1769  0.0323
24216W        W40690   8.915  16.299  13.068  0.2201 -0.2445  0.0852
24217W        W40691   9.017   0.543   2.397  0.0493  0.1843  0.1213
24218W        W40692   2.042   5.738   1.386  0.0100  0.2515  0.1604
24219W        W40693   8.326   9.752  11.369  0.0841  0.1355  0.5193
24220W        W40694  12.881  12.727   4.283 -0.4628 -0.1302 -0.2388
24221W        W40695   6.195  13.154  12.894 -0.2886 -0.2284 -0.2473
24222W        W40696   3.040  11.926  11.169  0.2601  0.1015 -0.1039
24223W        W40697   6.388   4.653  11.756  0.1963  0.3029  0.2160
24224W        W40698  18.176   9.866   4.065 -0.1324 -0.1624 -0.1437
24225W        W40699  18.438   7.003   4.704 -0.2920 -0.2612  0.1051
24226W        W40700  13.953  11.405   2.246 -0.0139 -0.2951 -0.3523
24227W        W40701  17.184  17.774   4.623 -0.2315 -0.0950 -0.1224
24228W        W40702   9.181   9.661   1.698 -0.2405  0.0666 -0.0889
24229W        W40703   6.649  13.904  11.170  0.1029 -0.2613 -0.4894
24230W        W40704  11.140   9.150  10.329  0.3358  0.0739  0.0005
24231W        W40705   5.083  19.110  10.806  0.2360 -0.2163 -0.1680
24232W        W40706   5.134   3.317   3.659 -0.1274 -0.1827  0.0321
24233W        W40707   8.183  13.608  12.587 -0.0980 -0.1386  0.1079
24234W        W40708   1.519   6.509   4.119 -0.0341 -0.0324  0.1088
24235W        W40709   4.645  19.211   2.135  0.0699 -0.2132  0.0336
24236W        W40710  19.380   3.047   9.940  0.0539  0.0316 -0.2719
24237W        W40711   7.466  11.813   2.921 -0.0394 -0.1437 -0.0830
24238W        W40712   0.374  12.739  14.143 -0.1651 -0.0973 -0.0721
24239W        W40713   1.252  12.943   5.143  0.3922  0.1764 -0.4107
24240W        W40714  15.323  10.797  12.787 -0.2935  0.0403  0.3398
24241W        W40715  10.918   1.214   4.398 -0.0365  0.0097  0.1079
24242W        W40716   8.528  13.169   0.211  0.3762 -0.1496  0.0592
24243W        W40717   9.064   8.488   0.693 -0.0030 -0.2243 -0.0841
24244W        W40718   4.051   4.497   0.726  0.2436  0.1908  0.3676
24245W        W40719   9.884   4.038   1.570 -0.1808 -0.3014 -0.1060
24246W        W40720  14.759   5.145   1.538  0.0559 -0.0866  0.0145
24247W        W40721  18.810  16.170  11.183 -0.4078  0.1614  0.2246
24248W        W40722   0.461  15.331   9.116 -0.4461  0.3311  0.2293
24249W        W40723   4.824  12.226   3.240  0.4549 -0.2242 -0.1817
24250W        W40724   4.061   7.079   3.556 -0.2483  0.1521 -0.0406
24251W        W40725   5.280   2.967   2.396  0.0424  0.0732  0.0737
24252W        W40726   0.302  17.624  11.909 -0.2257 -0.2263  0.0526
24253W        W40727  19.361   2.553   9.993 -0.3685  0.2035 -0.0437
24254W        W40728   4.910  14.230   4.114  0.0571  0.0502 -0.0277
24255W        W40729   4.478   7.041  14.213 -0.0438  0.2310  0.1290
24256W        W40730  17.432  13.813  12.647  0.0318  0.2074 -0.0391
24257W        W40731  18.014  15.602  11.123 -0.1434  0.1403  0.0471
24258W        W40732  14.658   2.171   0.043 -0.0161  0.1039 -0.1902
24259W        W40733  14.751   2.728   4.261 -0.1396 -0.1160  0.0871
24260W        W40734   2.510   1.411   1.462 -0.1106 -0.5645 -0.0189
24261W        W40735   2.446  19.247  12.599 -0.0820 -0.3954  0.2796
24262W        W40736  18.516   9.908  10.978  0.0199  0.1097 -0.1444
24263W        W40737  12.327  19.393  10.760  0.0089 -0.0877  0.0220
24264W        W40738   9.293   3.354   1.384 -0.1460  0.4282  0.1361
24265W        W40739  10.148   0.984   2.233 -0.1469  0.1463 -0.0403
24266W        W40740  12.524  13.160   0.631 -0.1746  0.0007 -0.2953
24267W        W40741   8.726  13.179   1.008 -0.1140 -0.0132 -0.0814
24268W        W40742   2.679   4.874   2.234  0.0436  0.1650  0.0970
24269W        W40743  12.465  12.916  10.738  0.0847 -0.0487 -0.1324
24270W        W40744   4.953  10.441   3.364  0.0428  0.5576  0.3323
24271W        W40745  13.477  13.542   3.193  0.0884  0.0963 -0.2184
24272W        W40746  14.620   0.967   0.655 -0.0526 -0.1981  0.2324
24273W        W40747  19.346   6.326   0.489  0.0358 -0.1307  0.2000
24274W        W40748   5.278  14.350  13.601  0.5805 -0.0290 -0.0803
24275W        W40749  17.352   4.536   9.662  0.1719  0.0319 -0.0278
24276W        W40750   0.868   3.202   5.317  0.2327  0.1152 -0.2104
24277W        W40751  14.391   3.705   0.388 -0.0777 -0.0442 -0.1279
24278W        W40752   0.984   8.388   3.241 -0.1498  0.1757  0.0317
24279W        W40753  15.433  16.276  12.821  0.0665  0.2374 -0.2816
24280W        W40754   1.865   6.287  12.384  0.0982  0.0536  0.1223
24281W        W40755   2.712  11.437  10.913  0.1194  0.3155  0.1323
24282W        W40756  12.356  13.618  13.622 -0.0033  0.0464  0.0062
24283W        W40757  16.252  17.410   0.454 -0.0774  0.0879  0.0985
24284W        W40758  10.594   2.990   4.242 -0.1530 -0.0020 -0.0321
24285W        W40759  17.391   6.953  12.185 -0.1089 -0.0890  0.0153
24286W        W40760   3.924  14.661   4.568  0.0246 -0.0245  0.1141
24287W        W40761  13.793  18.890  11.155 -0.0835 -0.0817 -0.1663
24288W        W40762   5.407  18.458  14.579  0.0467 -0.0770 -0.0694
24289W        W40763   9.775   4.110   2.735 -0.2872  0.2602 -0.2065
24290W        W40764  16.580  14.420   3.244  0.1554 -0.0442 -0.2220
24291W        W40765  12.655  16.823  12.594  0.1444  0.1559 -0.0184
24292W        W40766  14.616  18.708   1.641 -0.0796 -0.1512 -0.1167
24293W        W40767  14.624   8.224   9.390 -0.0664 -0.2250 -0.0982
24294W        W40768   8.908  12.679   0.524 -0.0230  0.0127 -0.1928
24295W        W40769  19.119  18.524  14.034 -0.0889 -0.0037  0.1454
24296W        W40770  11.244  16.042   1.028  0.4250  0.0629 -0.0337
24297W        W40771  10.223   1.518   3.981 -0.2095  0.1359 -0.2205
24298W        W40772  12.941  11.865   0.209 -0.1620  0.1352  0.1988
24299W        W40773   1.891  11.349   0.850 -0.2374 -0.0051 -0.0479
24300W        W40774  18.299   5.681   1.626  0.2799  0.1057  0.1210
24301W        W40775  11.505  10.294   0.542  0.0914  0.3742  0.0497
24302W        W40776   2.843  11.323   1.868 -0.0369  0.0138 -0.1838
24303W        W40777  12.899   6.692  12.070  0.0768  0.1153 -0.1080
24304W        W40778   9.278   5.739   1.913  0.1176 -0.1531  0.0200
24305W        W40779   2.060   5.864  12.545  0.4394 -0.1640  0.1675
24306W        W40780   1.753   8.531  13.726 -0.2016  0.2351  0.0986
24307W        W40781  13.795   2.861  11.329  0.0664  0.0127  0.1820
24308W        W40782  18.819  17.404   3.557 -0.1363 -0.0552 -0.3418
24309W        W40783  18.431   8.953   2.277 -0.0287 -0.0465  0.0666
24310W        W40784   2.687  13.319   2.060 -0.3355 -0.2753 -0.2991
24311W        W40785   9.949   7.657   1.280 -0.4402  0.0251 -0.1008
24312W        W40786  10.303  10.679   1.074 -0.0759 -0.1114  0.2513
24313W        W40787  10.374  11.109   0.584 -0.0814  0.1107  0.2628
24314W        W40788  11.644   7.554   0.109 -0.0057 -0.0787  0.0769
24315W        W40789   9.767   3.441  12.896  0.3648  0.1256 -0.2649
24316W        W40790   5.054  11.442   3.660  0.0240 -0.0219 -0.0445
24317W        W40791  16.330   1.624  12.048  0.1189  0.3849 -0.1010
24318W        W40792  14.162  12.894   3.450  0.0171 -0.0280 -0.2447
24319W        W40793   3.535   0.645   3.456 -0.0646 -0.0650 -0.2898
24320W        W40794  13.178  15.837  11.619 -0.2839 -0.0467  0.0098
24321W        W40795   3.814  11.423  10.092  0.2240  0.0793 -0.0039
24322W        W40796  15.049   2.985  10.763 -0.2569  0.3601 -0.2244
24323W        W40797  15.524  10.914  12.329 -0.1242 -0.3953  0.0155
24324W        W40798   9.580  15.758   2.002  0.2553 -0.1132  0.0115
24325W        W40799  12.498  10.373  13.928 -0.1639 -0.1097  0.4697
24326W        W40800  18.651   9.888   1.139  0.1802 -0.1563  0.0159
24327W        W40801   2.527   6.926   1.395 -0.2254  0.2397  0.2753
24328W        W40802  11.885  17.342  13.763  0.2249  0.0696  0.5435
24329W        W40803  10.655  17.232  13.016  0.1654 -0.0222  0.3405
24330W        W40804   7.889   5.629  14.172  0.0271 -0.0471  0.1180
24331W        W40805   1.418  14.186  11.368  0.1814 -0.3296 -0.0165
24332W        W40806   9.185   2.519  11.463  0.0992 -0.0789 -0.0317
24333W        W40807   8.696  17.120   3.319  0.2076 -0.2135  0.1284
24334W        W40808  10.352   7.782  12.887  0.0730 -0.0977 -0.0743
24335W        W40809   9.215  10.650  12.685 -0.3187  0.0026  0.4096
24336W        W40810   9.401   7.655   1.384  0.1085  0.1809  0.3892
24337W        W40811   0.620  16.066   2.689  0.0150 -0.0842  0.0518
24338W        W40812  12.699   0.653   1.650 -0.0692 -0.2655  0.1705
24339W        W40813  12.197  19.420  12.402 -0.4839 -0.0256  0.0526
24340W        W40814   4.391  12.045   2.863  0.3600  0.0172 -0.0668
24341W        W40815   4.922   0.773  10.682 -0.0062 -0.3639  0.0767
24342W        W40816  15.698  15.360   1.518  0.0812 -0.1618 -0.1730
24343W        W40817   8.816  13.430  10.910  0.2419  0.0704  0.0307
24344W        W40818  11.767   3.764   2.050 -0.0061  0.1240 -0.0055
24345W        W40819   8.531  13.418  13.923  0.0563 -0.1579  0.0908
24346W        W40820  14.315   6.921   2.862 -0.3412  0.1786 -0.2964
24347W        W40821  10.865  14.384   0.398 -0.1161  0.1340 -0.0544
24348W        W40822   3.665  11.115  14.325 -0.3082 -0.4441 -0.0182
24349W        W40823   1.093  18.607   0.375  0.0809 -0.0007  0.2351
24350W        W40824   0.996  16.819  12.850 -0.3528  0.3513 -0.0094
24351W        W40825  13.161   6.628  10.222 -0.1388 -0.0214 -0.1115
24352W        W40826  16.543   6.286   0.576 -0.3449 -0.1768  0.4518
24353W        W40827   2.446  12.885   0.593  0.0320  0.1405  0.2757
24354W        W40828  18.548   0.995  13.189 -0.0197 -0.2183  0.1341
24355W        W40829  10.202   9.668  11.296 -0.1503 -0.2092  0.1685
24356W        W40830  19.552   2.383  13.299 -0.0244  0.0342 -0.5699
24357W        W40831  15.195   0.296   0.544 -0.1005  0.1814 -0.0053
24358W        W40832  15.267  17.159  11.429  0.1246 -0.1602  0.0069
24359W        W40833   5.011  11.802  13.810 -0.1307  0.1801 -0.1457
24360W        W40834  19.365  18.932   1.797  0.2324  0.0045 -0.0514
24361W        W40835   2.743  10.435   2.570  0.0513 -0.0215  0.1050
24362W        W40836  13.674   1.834   1.171 -0.0769 -0.1451  0.2493
24363W        W40837  18.820   7.715  12.941 -0.1923 -0.2442  0.2780
24364W        W40838   8.343  16.762  12.531 -0.0556 -0.0618 -0.2478
24365W        W40839   9.872  18.856   4.051  0.1758  0.0182  0.0803
24366W        W40840   4.146  14.378  13.167 -0.0960 -0.0659 -0.3495
24367W        W40841   1.766  11.369   2.539  0.0242  0.0841 -0.2372
24368W        W40842   8.374   0.419  10.543  0.5948  0.1127  0.0863
24369W        W40843   3.813   0.043  10.812 -0.2727  0.0603 -0.1661
24370W        W40844   0.018   2.677  11.681 -0.0547  0.0555  0.0330
24371W        W40845  13.793  13.492  14.370 -0.1998  0.1054  0.0686
24372W        W40846   0.990  17.121   4.573  0.2723 -0.1427  0.1824
24373W        W40847  15.083  12.632  11.207  0.2666 -0.2984  0.2284
24374W        W40848  13.107   7.178   1.642  0.0281 -0.0466  0.1246
24375W        W40849   2.176  12.515   3.931  0.2851  0.2508 -0.0033
24376W        W40850   3.189  17.713   0.847  0.1571 -0.0580 -0.0331
24377W        W40851   8.510   6.419  10.785  0.0938  0.0250  0.1558
24378W        W40852   1.248   9.939  13.443 -0.1724 -0.2974 -0.0893
24379W        W40853   1.036  19.394  11.918 -0.0240 -0.2221 -0.1777
24380W        W40854  19.179   5.167   3.924  0.0800 -0.2175  0.4079
24381W        W40855   9.537  10.953   4.989  0.0823  0.1821 -0.3586
24382W        W40856   7.095   6.725   1.726 -0.0584  0.1770  0.1730
24383W        W40857  17.605  18.244   2.054  0.0207  0.4046 -0.2702
24384W        W40858   6.681  12.606  14.230 -0.2602  0.3800  0.3537
24385W        W40859   1.901   4.471  13.625  0.3210 -0.3108 -0.0090
24386W        W40860   8.958   4.948   2.722  0.1150 -0.1236 -0.2450
24387W        W40861   7.043   8.468  12.444 -0.0352  0.2164 -0.0493
24388W        W40862   1.165  14.805  11.812  0.2198 -0.0689  0.0452
24389W        W40863  12.575  17.714   2.827 -0.0568 -0.0068  0.1326
24390W        W40864   2.510  16.989  12.088 -0.0433  0.3040  0.2833
24391W        W40865  16.856   0.472  11.547  0.0769 -0.4142 -0.1569
24392W        W40866   4.748   8.670  12.280  0.0899  0.0537 -0.0292
24393W        W40867  15.283  12.012   2.934  0.1107 -0.1387  0.0637
24394W        W40868  12.520   8.121   3.940 -0.1077 -0.1205 -0.0912
24395W        W40869  18.409   2.415   2.510  0.2189  0.0125  0.0626
24396W        W40870  15.862   8.402  10.927  0.1882 -0.1382  0.2165
24397W        W40871  18.034  14.652   2.776 -0.2490 -0.1887 -0.0721
24398W        W40872  18.072  19.545   4.243 -0.4232  0.1682  0.1664
24399W        W40873  15.618  10.079  11.904 -0.1467  0.2618 -0.1104
24400W        W40874   4.237   6.966   0.377  0.2409  0.0570  0.0698
24401W        W40875  18.962   3.846  12.685 -0.1097  0.2969 -0.0316
24402W        W40876  17.905   5.269   1.942  0.4749  0.1187  0.3186
24403W        W40877  17.077  13.929   1.123 -0.1930  0.1183 -0.0664
24404W        W40878   4.835  19.103  14.159 -0.2551  0.1653  0.2150
24405W        W40879   6.760  18.345  13.330 -0.2677  0.4986 -0.0738
24406W        W40880  16.937  12.313   2.005  0.2201 -0.2229  0.1906
24407W        W40881  17.425  17.111  10.490  0.3269 -0.2946  0.0902
24408W        W40882   5.410  17.504  14.656  0.1282 -0.2092 -0.0300
24409W        W40883   2.185   9.352  10.529  0.2858  0.1140  0.1278
24410W        W40884  19.175  17.025  11.739  0.1638  0.4436  0.0200
24411W        W40885  10.532   0.272  13.663 -0.0192 -0.0169  0.0121
24412W        W40886   1.991  18.956  10.914 -0.1728  0.0555 -0.0044
24413W        W40887  11.057   4.269  10.879 -0.1662 -0.0629  0.1485
24414W        W40888   4.222  13.665  12.446 -0.0621 -0.0507  0.2756
24415W        W40889   6.526  12.655   5.482 -0.2552 -0.0563  0.0071
24416W        W40890   8.169  11.000   9.868  0.3140 -0.1232 -0.0257
24417W        W40891  17.720  10.452   4.484  0.0504 -0.0359  0.0515
24418W        W40892  14.780   2.608  11.551  0.0599  0.0681  0.0338
24419W        W40893  11.512   5.321  13.035 -0.0363 -0.0221 -0.3849
24420W        W40894  19.346   5.542  11.701  0.0274  0.0270 -0.0170
24421W        W40895  16.755   6.698  14.467 -0.2267  0.0729  0.2106
24422W        W40896   9.366  17.029   0.370  0.1657 -0.2270  0.1198
24423W        W40897   7.942   7.276  10.324 -0.4523  0.1151  0.0276
24424W        W40898  13.051  16.550   3.573  0.0337 -0.0249 -0.1784
24425W        W40899  11.020   8.610   4.585 -0.1975  0.2796  0.0305
24426W        W40900   8.146  13.246   4.531 -0.0750  0.1231  0.1279
24427W        W40901  15.789   9.169   4.429  0.0828 -0.0154  0.0569
24428W        W40902  13.096   8.552   1.538  0.0485 -0.2595  0.1161
24429W        W40903   7.212   2.103   1.035  0.1616  0.0447  0.0187
24430W        W40904  15.449   1.985  10.398  0.0760 -0.2777  0.1630
24431W        W40905  12.013   3.328  10.285 -0.1958 -0.0967  0.3407
24432W        W40906  12.378  11.318   5.063 -0.3488 -0.2860  0.2549
24433W        W40907  14.659  19.181  10.106  0.0463 -0.0115 -0.1424
24434W        W40908  10.067  17.401   1.165  0.1126 -0.1436  0.2583
24435W        W40909   7.518  18.011  11.466 -0.0046  0.0889  0.0265
24436W        W40910  13.579   6.003  11.544 -0.0468 -0.0271 -0.4452
24437W        W40911   3.854  12.741  11.930 -0.1977 -0.4216  0.4165
24438W        W40912  10.037   0.719   4.042  0.0518 -0.0441 -0.1137
24439W        W40913   3.772  13.244   2.369  0.1889  0.1352 -0.1078
24440W        W40914  15.093  13.482  12.421 -0.3808  0.0996 -0.2876
24441W        W40915   0.846   8.841   1.649 -0.0906  0.0972 -0.3961
24442W        W40916   8.516   2.264  11.418 -0.1276 -0.1684 -0.0262
24443W        W40917   4.929  10.527   0.245  0.0566  0.0695  0.0628
24444W        W40918  14.702  15.308   1.462 -0.2541  0.1185  0.1294
24445W        W40919   3.468  10.932  10.387 -0.3253 -0.0193 -0.0224
24446W        W40920   5.820   5.250   4.858  0.0396  0.1074 -0.0185
24447W        W40921   5.083   9.445   3.198  0.0450 -0.1290 -0.2153
24448W        W40922   1.409  18.738   1.627  0.2619  0.0496 -0.1669
24449W        W40923  12.732   8.463   4.234 -0.0897 -0.0040  0.3124
24450W        W40924   1.466  10.932  10.721  0.2080 -0.1179  0.4143
24451W        W40925  16.642  16.557   5.103 -0.2906 -0.0099 -0.2705
24452W        W40926   2.249   0.526  10.807 -0.0790 -0.0876  0.0155
24453W        W40927  14.045  17.995  13.075  0.0140  0.1389 -0.1734
24454W        W40928  14.092   6.684   0.856 -0.0090  0.1699 -0.0155
24455W        W40929   0.043  13.741  11.208 -0.3499 -0.0681 -0.2673
24456W        W40930   7.911  12.139   1.972  0.1449  0.0274 -0.0719
24457W        W40931   3.078   7.569  12.672 -0.1829  0.0594  0.2190
24458W        W40932   6.768   5.520   0.134 -0.5392 -0.1695 -0.1368
24459W        W40933   1.911  11.966   0.006 -0.0909  0.0096  0.1634
24460W        W40934  14.391   6.046   2.882 -0.3579  0.1226 -0.2659
24461W        W40935   2.512  11.624  12.367  0.4946 -0.2475  0.0722
24462W        W40936   4.829   2.861   1.297 -0.1988  0.0680 -0.3262
24463W        W40937  11.800   5.468   9.698 -0.1294 -0.0502 -0.2338
24464W        W40938   8.739  11.941   1.260  0.2849 -0.1249 -0.1880
24465W        W40939  17.353   9.471  14.080  0.0947 -0.4475 -0.0622
24466W        W40940  11.772   8.724  11.038  0.4162 -0.1032  0.1112
24467W        W40941  14.525   5.533   0.408  0.2424  0.2472  0.3815
24468W        W40942  16.585   3.978  10.048 -0.1434  0.0087  0.0773
24469W        W40943  13.483   0.272   2.039 -0.3453  0.1160 -0.0902
24470W        W40944  16.714  12.182   1.645  0.0263 -0.1113  0.3461
24471W        W40945  14.917  17.922   4.219 -0.0492  0.2697 -0.0623
24472W        W40946  14.854  15.004   1.068  0.2323  0.0114 -0.5187
24473W        W40947  18.079  14.464   3.227 -0.3065  0.3292  0.3194
24474W        W40948   0.760   6.697  10.248  0.1056 -0.0457 -0.0657
24475W        W40949  14.075   4.108  11.719 -0.2466  0.1674  0.0218
24476W        W40950   8.617   3.046  10.545 -0.1028 -0.1798  0.0104
24477W        W40951   9.476  17.714   1.312  0.2095 -0.0564 -0.0217
24478W        W40952   2.539   0.677   3.620  0.1861 -0.0243 -0.0234
24479W        W40953  18.341   7.771  13.236  0.1465  0.2808  0.3272
24480W        W40954   5.106   2.316  10.054  0.0649 -0.1833  0.0190
24481W        W40955   3.281  10.391  13.710  0.0121 -0.1456  0.2688
24482W        W40956   8.266   2.432  10.134 -0.3277  0.0271  0.2706
24483W        W40957   0.212   3.655   2.475 -0.2098 -0.0128  0.1793
24484W        W40958  16.205  15.885  14.129  0.1744  0.1937  0.0196
24485W        W40959  15.731   7.823   0.402 -0.1893  0.0670 -0.0262
24486W        W40960  12.764   8.812   2.852 -0.0925  0.0443 -0.0305
24487W        W40961  14.484  16.358  13.078 -0.1358  0.3532  0.1451
24488W        W40962  16.203   3.440  10.676  0.0937 -0.3173 -0.0244
24489W        W40963  11.504   3.125   3.392  0.1180 -0.0520 -0.0961
24490W        W40964  16.233   2.800   3.042 -0.1610  0.0379  0.1301
24491W        W40965   7.394  15.019  13.942  0.1277  0.1378  0.0923
24492W        W40966   9.474   5.299  10.763  0.0858 -0.0032 -0.1483
24493W        W40967  14.970  12.369  12.365 -0.0832 -0.3162 -0.0259
24494W        W40968  16.645   0.674  12.738  0.0900 -0.2734  0.0240
24495W        W40969  15.752  15.628   0.598 -0.0200  0.1148  0.0902
24496W        W40970   2.552   0.321   0.482  0.3647 -0.0807  0.1298
24497W        W40971   5.036  12.049  11.062 -0.1296  0.0605  0.1059
24498W        W40972  17.942   8.747  10.638  0.1474  0.2979  0.1075
24499W        W40973  12.776   5.692   0.107 -0.6969  0.2685  0.1210
24500W        W40974   6.560   9.645   2.995 -0.1361 -0.0102  0.2344
24501W        W40975  18.355   3.159   4.097 -0.0486  0.1465 -0.0664
24502W        W40976  12.020  14.877   1.875 -0.3867 -0.1097 -0.3216
24503W        W40977  15.498  13.327  13.236  0.1503  0.0099 -0.2935
24504W        W40978   7.099  14.863  11.427 -0.2920 -0.0068 -0.1870
24505W        W40979   5.107  15.553  12.089 -0.1191 -0.0575 -0.2300
24506W        W40980  11.155   8.416  11.567  0.0037  0.2909 -0.2618
24507W        W40981  16.779   8.779  13.263  0.3549 -0.1935 -0.0470
24508W        W40982  12.216  10.854  13.839 -0.1765 -0.0838 -0.3537
24509W        W40983  11.136   5.020  12.856 -0.0904 -0.3105  0.0351
24510W        W40984   0.654  11.070  14.227 -0.3399 -0.1433  0.1699
24511W        W40985   3.306  10.183   5.528 -0.1301 -0.1080  0.2798
24512W        W40986   1.506   7.450   3.969 -0.0785 -0.0760 -0.0879
24513W        W40987   3.035   5.385   0.421  0.0923  0.1699  0.0199
24514W        W40988  17.903  18.275   0.505  0.1595 -0.0735 -0.0524
24515W        W40989  16.035  10.219   4.423 -0.2785  0.1448 -0.1727
24516W        W40990  14.601   2.573   9.343 -0.0317 -0.2917 -0.0399
24517W        W40991   6.840   9.664  10.207 -0.2083 -0.0594 -0.2451
24518W        W40992   7.396  12.313   1.292  0.1344 -0.0291 -0.1443
24519W        W40993   5.882   3.506   1.096 -0.4021 -0.0844 -0.3505
24520W        W40994  16.796   5.704  10.874  0.1111 -0.1229 -0.0092
24521W        W40995  13.853   1.432   5.413  0.0191  0.1125  0.0617
24522W        W40996  12.049  18.073   0.752  0.0962  0.0634 -0.2132
24523W        W40997  11.232   1.245  13.094 -0.1800 -0.1963 -0.2283
24524W        W40998   3.043  11.143  14.467 -0.2336 -0.0413  0.0274
24525W        W40999  17.604  11.869  14.152  0.2776  0.1643 -0.2062
24526W        W41000  12.733  13.404   0.221 -0.1855  0.0332 -0.1139
24527W        W41001  14.432  19.511  10.647 -0.3487  0.1049 -0.0240
24528W        W41002  12.378   8.093   3.434 -0.1651 -0.0682  0.2172
24529W        W41003   9.177  16.753   2.301 -0.1252  0.0385 -0.1879
24530W        W41004   7.030   3.361   3.992 -0.1529 -0.2335 -0.0825
24531W        W41005   9.353  16.236  13.945 -0.0260 -0.1178 -0.1627
24532W        W41006  14.302   0.959  10.848  0.1647  0.0096 -0.0168
24533W        W41007   6.309   7.972  12.162 -0.0862 -0.2108  0.1036
24534W        W41008   2.230   2.252   3.651 -0.0651  0.1190 -0.1672
24535W        W41009  11.716   1.751   4.333 -0.0759 -0.0414  0.3108
24536W        W41010  19.357   0.805   9.582  0.0790 -0.1189 -0.3141
24537W        W41011   3.798  10.947  10.994  0.0684 -0.0733  0.0755
24538W        W41012  15.684   8.734  12.034  0.3166 -0.1619 -0.1192
24539W        W41013   1.998  11.126   5.032 -0.1591  0.2954 -0.2044
24540W        W41014  14.986   3.326   3.280  0.1881 -0.0454 -0.0310
24541W        W41015   2.534  11.929  11.077  0.1365 -0.3445 -0.0344
24542W        W41016   2.389   7.391  12.392  0.2074  0.0352  0.0249
24543W        W41017   6.528  15.865   1.855 -0.0970  0.1753 -0.2379
24544W        W41018   1.346   3.248   0.133 -0.3135  0.2523  0.2233
24545W        W41019  18.051  18.227  14.270 -0.2989 -0.1251 -0.1230
24546W        W41020   2.278  11.271   2.173 -0.1972 -0.3217 -0.0594
24547W        W41021   9.309   6.842   3.340 -0.0931 -0.3375  0.1740
24548W        W41022  18.060   5.088   3.410  0.0862 -0.0470 -0.0310
24549W        W41023  12.258   8.540   4.079 -0.3329  0.0164 -0.0976
24550W        W41024   0.251   5.637   0.768 -0.2576 -0.3791 -0.2418
24551W        W41025  16.904   2.870   2.926 -0.2400 -0.0208  0.1059
24552W        W41026  14.259  17.747   3.665 -0.2842  0.3156  0.0302
24553W        W41027   6.059   8.999   1.699  0.1781 -0.0947 -0.2514
24554W        W41028   5.366   9.355  10.122 -0.1380 -0.1480  0.2459
24555W        W41029   2.833  10.028  10.336  0.3446 -0.1940 -0.3451
24556W        W41030   0.537  18.294   4.609 -0.0134  0.0463 -0.1555
24557W        W41031  18.436   8.707  11.408  0.3583 -0.1596  0.5310
24558W        W41032  10.944   8.081   3.380  0.0370  0.2842  0.2167
24559W        W41033  18.877  13.004  14.203 -0.2514 -0.0374 -0.0018
24560W        W41034   3.922   9.522   2.505 -0.2698 -0.0538 -0.2950
24561W        W41035  13.016   8.232   2.425 -0.1385  0.0631  0.0213
24562W        W41036  16.938   4.606  13.089  0.1696 -0.3523  0.0158
24563W        W41037   3.149  13.098   1.234  0.0791 -0.0119  0.6430
24564W        W41038   2.149  13.096   4.640 -0.2489  0.2214 -0.1020
24565W        W41039  17.958   4.623   0.446  0.0231  0.1063 -0.1134
24566W        W41040   7.451  12.346   5.172 -0.2251  0.0224  0.0231
24567W        W41041  18.890   6.858  10.915  0.0782 -0.0474 -0.0859
24568W        W41042  18.914   7.237  14.299 -0.1044  0.0717  0.1907
24569W        W41043   9.675   9.291  13.114  0.2433 -0.2726  0.0003
24570W        W41044  18.189  17.823   4.246 -0.0767  0.3087  0.1737
24571W        W41045   9.661  10.108  10.669  0.2633  0.2032 -0.0432
24572W        W41046  13.230  18.662   0.984  0.1263 -0.1667 -0.3130
24573W        W41047   6.735   4.919   3.922 -0.2168 -0.0721  0.1636
24574W        W41048  19.539  13.053  10.102 -0.0381 -0.2179 -0.1344
24575W        W41049   2.865  12.085  12.570  0.3064  0.1617  0.1719
24576W        W41050   5.796  10.195  10.559  0.0323 -0.2770 -0.5036
24577W        W41051   0.592  16.984   4.321  0.2052 -0.4019  0.2143
24578W        W41052   9.278   9.741   3.115  0.0653 -0.0133  0.0922
24579W        W41053   1.754  11.814   0.949 -0.2015 -0.1512  0.0358
24580W        W41054  17.512   6.166  11.528  0.1342  0.0870 -0.1474
24581W        W41055   3.485   4.162   3.412 -0.0084  0.1177 -0.2971
24582W        W41056  11.388   5.853  13.041 -0.2121 -0.0891  0.1500
24583W        W41057   6.229   2.916   0.236  0.2189  0.4327  0.0290
24584W        W41058  10.689  10.243  12.771  0.1318 -0.1551 -0.0428
24585W        W41059   9.039  16.382   2.753  0.2825 -0.0569 -0.1787
24586W        W41060   5.630  18.293   1.402  0.0464  0.1596 -0.2654
24587W        W41061   7.195   1.035   5.594 -0.0194  0.1418  0.2623
24588W        W41062  13.060  16.058   2.188 -0.1218 -0.0995  0.0945
24589W        W41063  15.574  11.658  13.639 -0.0442  0.0979 -0.0086
24590W        W41064  14.383   7.721   3.980 -0.2131  0.0943 -0.1217
24591W        W41065   1.164  10.981  11.128 -0.3206 -0.0581  0.2227
24592W        W41066  18.437  11.574   9.965  0.4994  0.1612 -0.2403
24593W        W41067  18.760   6.204   1.112  0.1820 -0.0691 -0.1251
24594W        W41068   7.688   3.149  10.796 -0.0033  0.0929 -0.1986
24595W        W41069   5.655  10.909  12.768 -0.3288 -0.0366  0.4537
24596W        W41070  17.881  12.077  12.411 -0.2136  0.3027  0.4274
24597W        W41071  12.775  11.373   1.504  0.1823 -0.0307 -0.3491
24598W        W41072   2.803  17.564   3.711  0.0097 -0.1906  0.1272
24599W        W41073  19.328   3.555   2.595  0.0559  0.1533 -0.1872
24600W        W41074  17.850  12.842   5.223 -0.1815  0.1425 -0.1647
24601W        W41075  13.569  15.328   1.804 -0.0983 -0.1274  0.3172
24602W        W41076   2.580   8.260   4.500 -0.0788 -0.3839 -0.0924
24603W        W41077   0.146  11.086   1.570 -0.2032  0.0036  0.1538
24604W        W41078  15.373  15.261  13.101  0.2488  0.3348  0.1742
24605W        W41079  10.765  17.741   1.615 -0.2287 -0.1223 -0.2894
24606W        W41080   0.881   7.571   3.116 -0.2343  0.1538 -0.1494
24607W        W41081   6.792  14.606  14.494  0.2375  0.5272 -0.2516
24608W        W41082  15.315  11.798  10.719  0.0474 -0.3832  0.3698
24609W        W41083   7.743   6.030  12.697  0.2546  0.3156  0.0053
24610W        W41084   1.635  14.047  12.553  0.1729  0.0643  0.1641
24611W        W41085  18.000   2.542   1.220  0.0457 -0.1561 -0.0310
24612W        W41086   8.909   2.902   4.092 -0.0616  0.1215  0.1422
24613W        W41087   1.089  10.161   4.353  0.0069  0.1741  0.0176
24614W        W41088   3.374  16.869   4.307  0.0940 -0.0436 -0.0783
24615W        W41089  14.071   3.193   1.030 -0.1441 -0.1499 -0.2382
24616W        W41090  14.705   9.175   2.570 -0.0184  0.1582  0.0319
24617W        W41091  13.057   5.412   4.866  0.1553 -0.1591 -0.1444
24618W        W41092   6.176  10.595  13.540  0.0803 -0.2444  0.0379
24619W        W41093   7.693   8.272   2.410  0.0527  0.1701 -0.1097
24620W        W41094  11.898  11.994  10.780 -0.2789 -0.0749  0.1125
24621W        W41095   1.028  14.660  12.293 -0.1452 -0.0245 -0.1674
24622W        W41096  17.532   9.509  10.372 -0.0052  0.0599  0.0062
24623W        W41097   1.668   3.743   4.504 -0.0542 -0.2562  0.4239
24624W        W41098  14.300  15.543  11.276  0.1301  0.4171 -0.1616
24625W        W41099  15.446  19.502   0.693 -0.1040  0.0191 -0.0870
24626W        W41100   3.879   9.304   3.373 -0.0211  0.1463 -0.0454
24627W        W41101   0.055   1.047  14.320  0.0495  0.0327  0.1687
24628W        W41102   7.886  12.578  14.601  0.1503 -0.2055  0.2510
24629W        W41103   2.804   7.638   1.990 -0.2257  0.1481  0.5245
24630W        W41104   0.273  16.384   9.649 -0.0024  0.0510  0.3295
24631W        W41105   6.548  15.304   4.785  0.0970  0.0437  0.0166
24632W        W41106  11.551   3.972   2.549 -0.2395 -0.1508 -0.0223
24633W        W41107  10.187   8.659   1.788  0.0754  0.0665  0.2646
24634W        W41108  14.288   5.147   4.868  0.2680 -0.1423  0.0340
24635W        W41109   5.380   5.987  13.762 -0.3313  0.0118 -0.1420
24636W        W41110   3.075  12.155  12.090 -0.0010 -0.2281  0.0155
24637W        W41111  17.837  12.077   4.069  0.2856 -0.1666 -0.1697
24638W        W41112   5.405  15.590   5.014 -0.2013 -0.1406 -0.1773
24639W        W41113  11.256  12.377   4.315  0.0982 -0.1552 -0.0161
24640W        W41114   5.861   4.612  11.458  0.2492  0.0932 -0.2391
24641W        W41115  18.870  18.780   9.892  0.0994 -0.1576  0.0148
24642W        W41116  11.713   9.942   0.857 -0.0703  0.0720  0.1192
24643W        W41117  13.714  17.133  12.511 -0.0980  0.2833 -0.1012
24644W        W41118   4.827   7.780   3.004 -0.0711 -0.0296  0.0549
24645W        W41119  12.706  19.353   3.938  0.0789  0.0705  0.1253
24646W        W41120   7.841  13.181   1.036 -0.1786  0.0577 -0.3834
24647W        W41121   7.503   1.295  12.257 -0.3898  0.0855  0.0626
24648W        W41122   0.663  17.274   1.526 -0.0608  0.0467 -0.0462
24649W        W41123  16.568  12.975  13.590 -0.1294  0.1708  0.2516
24650W        W41124   2.084   4.238  14.462 -0.1669  0.1132 -0.0135
24651W        W41125   7.891  12.771   4.328 -0.3159 -0.5096 -0.0147
24652W        W41126   6.156  16.391  11.834 -0.1905 -0.0197  0.0411
24653W        W41127   2.473   5.055   9.899  0.1199 -0.1412 -0.0831
24654W        W41128  10.369  16.495  10.846 -0.0874  0.0045  0.4272
24655W        W41129  11.504  12.041   4.789  0.0617  0.0866 -0.2043
24656W        W41130   7.079   4.834   3.010 -0.1514 -0.2776 -0.0232
24657W        W41131   4.706   5.280  11.859  0.0989  0.2458  0.1138
24658W        W41132  14.689   2.351   3.591  0.1673 -0.1302  0.2627
24659W        W41133  14.073  11.473  11.990  0.1539  0.0595 -0.1410
24660W        W41134  10.635  14.977   4.340 -0.2492 -0.0390 -0.1979
24661W        W41135  10.218  18.319  11.262  0.1566 -0.0114  0.0089
24662W        W41136  10.173  11.836   0.818  0.0564  0.2092  0.2128
24663W        W41137   0.712   4.113   9.942  0.1425  0.1451  0.3140
24664W        W41138   5.890   6.800   2.822  0.3967  0.1317 -0.0521
24665W        W41139   5.687   2.287  12.055  0.4834  0.2936  0.3130
24666W        W41140   1.395  15.802   5.675  0.2830 -0.3595  0.3412
24667W        W41141   0.188   5.844   5.385  0.0067  0.1303  0.0761
24668W        W41142   3.651   8.410  10.792  0.1895 -0.2327  0.1944
24669W        W41143   3.804   7.967  11.001  0.0301 -0.0726 -0.3813
24670W        W41144   8.803  18.076   3.911  0.1309  0.3367  0.1204
24671W        W41145   3.875  17.495   3.212 -0.5510  0.1471  0.0987
24672W        W41146  16.604  19.131   4.468 -0.1234  0.1738 -0.2020
24673W        W41147   8.680   3.249   5.281  0.3261  0.0765  0.0012
24674W        W41148  10.179   4.429   1.543 -0.2205  0.2115 -0.3185
24675W        W41149  16.831  15.386  13.386 -0.1948 -0.2767  0.1872
24676W        W41150  11.966   4.048   1.312  0.0254  0.0053  0.5533
24677W        W41151  17.501  10.672   5.710  0.2387  0.0364  0.0138
24678W        W41152   6.192   6.216  13.678  0.0622  0.2555  0.2858
24679W        W41153   6.174  12.286  13.300 -0.3152 -0.1574  0.1420
24680W        W41154  16.132  19.023  13.651  0.0457 -0.0507 -0.0360
24681W        W41155  15.055   5.454   4.024 -0.0383  0.2509 -0.2984
24682W        W41156  11.976  19.572  14.630 -0.3739  0.0166  0.2972
24683W        W41157  15.615  11.982   5.133 -0.2296  0.0764  0.0552
24684W        W41158  11.094  17.598   3.208  0.1388 -0.0550  0.1152
24685W        W41159  17.089   2.362   2.051 -0.1411 -0.3441  0.0361
24686W        W41160  19.351  16.223  11.842  0.0330 -0.1260  0.3979
24687W        W41161  14.022   0.907   1.173  0.1066 -0.2991 -0.1768
24688W        W41162  11.047  15.311   1.901 -0.2505  0.0682 -0.1069
24689W        W41163  15.141   4.863   0.531 -0.5054 -0.2706 -0.2052
24690W        W41164   1.724   4.758   4.190 -0.0615  0.1771  0.0041
24691W        W41165  19.499   2.620   0.267 -0.0361  0.1547  0.2788
24692W        W41166   9.025  19.117   1.441 -0.2477 -0.1449 -0.2250
24693W        W41167  14.074  15.702   4.446 -0.0766 -0.0352 -0.0433
24694W        W41168  17.681   3.458   4.050  0.2402 -0.1505  0.1425
24695W        W41169   9.240  19.584   1.355 -0.1846 -0.2191 -0.1658
24696W        W41170   5.127  17.749  10.936 -0.1732 -0.0780 -0.1645
24697W        W41171  13.428  13.096  11.382 -0.2119 -0.3018 -0.1558
24698W        W41172   5.719  13.262   2.218  0.0720 -0.3413 -0.1020
24699W        W41173   0.508  19.168   4.320  0.0324  0.2500  0.1240
24700W        W41174  17.702   6.581  10.743 -0.0652  0.0429 -0.0647
24701W        W41175  19.200   3.594   3.702 -0.2816  0.2721 -0.2525
24702W        W41176   0.820   0.717  13.376  0.0738 -0.3050  0.1553
24703W        W41177   2.261   6.235   3.729  0.2707  0.0952 -0.1148
24704W        W41178  15.712   8.705  13.790  0.3284 -0.2003  0.1217
24705W        W41179  14.286  11.757  14.123 -0.2533 -0.1529  0.1549
24706W        W41180   6.584   0.980  13.463  0.1050 -0.3978 -0.1238
24707W        W41181  11.497   9.674  11.426  0.0739  0.2698  0.0937
24708W        W41182  12.295  16.425  10.724  0.1211 -0.0780 -0.0971
24709W        W41183   8.037  12.184  14.137  0.0796  0.1904  0.0575
24710W        W41184   5.575   7.725   1.232 -0.2804  0.0578  0.0910
24711W        W41185  16.612  13.504  13.524 -0.1604  0.1052 -0.2231
24712W        W41186   5.342  18.939  11.695  0.1002 -0.1001  0.0984
24713W        W41187   2.498  17.780   8.997  0.1440 -0.2210 -0.2262
24714W        W41188   9.022  10.793   2.096  0.0724 -0.0778 -0.3061
24715W        W41189  10.458   6.761  10.060  0.2324 -0.1931  0.0885
24716W        W41190   8.818  12.295   0.906  0.0356  0.1649 -0.1244
24717W        W41191   6.948  19.198  11.083  0.4685  0.1231 -0.1174
24718W        W41192   4.660  19.021  11.206  0.0918 -0.1360 -0.0335
24719W        W41193   4.501  12.291   1.759  0.1537  0.0385  0.1229
24720W        W41194  17.170   7.062  11.186 -0.0262  0.1703  0.2101
24721W        W41195   3.420  12.903   3.438 -0.1636  0.1856  0.0430
24722W        W41196  11.442   0.404  12.129  0.1597  0.2670  0.2279
24723W        W41197  17.902  15.990  11.971 -0.2561  0.0519 -0.1033
24724W        W41198   8.354   9.363   1.212  0.3196 -0.3524  0.0282
24725W        W41199  17.835  16.155  10.648 -0.0855  0.2908 -0.0104
24726W        W41200  19.174   3.158   9.496  0.0685  0.1328 -0.0096
24727W        W41201   1.887   3.573   2.226 -0.0377  0.1229 -0.4307
24728W        W41202   6.424  12.052   1.273  0.0453  0.0816  0.1874
24729W        W41203   1.822   2.495  11.488  0.0879 -0.1749  0.0383
24730W        W41204   5.786   0.651  11.096  0.0237  0.1389 -0.3186
24731W        W41205  15.484  17.608   1.372  0.3988  0.0049 -0.1854
24732W        W41206   6.802   2.180  14.631  0.1464 -0.1173 -0.2610
24733W        W41207  15.553   7.320  10.161  0.1065 -0.1563 -0.1489
24734W        W41208   8.895   5.589   4.033 -0.3604  0.1311 -0.1737
24735W        W41209   5.411  13.571  10.961  0.0823 -0.1563 -0.2950
24736W        W41210   9.773   1.305   2.035  0.0190  0.3363 -0.0565
24737W        W41211   6.824   6.949  13.974  0.3822  0.1467 -0.1744
24738W        W41212   9.949  13.277  14.015 -0.2110 -0.1480  0.2217
24739W        W41213   3.538   5.794   3.730 -0.2275  0.3061  0.4162
24740W        W41214   6.437  14.976   4.269  0.2343  0.1220  0.1563
24741W        W41215  17.713  12.407   2.681  0.4118  0.0224 -0.1659
24742W        W41216  13.940   0.609  10.826 -0.1416  0.3448 -0.2901
24743W        W41217  17.571  13.545   0.750  0.0530 -0.1134  0.2515
24744W        W41218   3.124   7.237   2.901  0.4149 -0.1127  0.2412
24745W        W41219  13.060   3.197  13.103  0.0526 -0.2495  0.2394
24746W        W41220  16.366   3.553  12.133  0.0485  0.0745 -0.2500
24747W        W41221   1.242   2.638  13.550  0.4046  0.0986 -0.0740
24748W        W41222   7.779   6.129   0.576 -0.3910  0.3229  0.2021
24749W        W41223   9.158   8.713   4.702  0.1715  0.0520  0.3031
24750W        W41224  10.839   4.056   4.729  0.1579  0.0626  0.0138
24751W        W41225   7.722  10.849   1.264 -0.2170 -0.1157 -0.2763
24752W        W41226   0.936  10.305  12.379  0.2647  0.0035  0.3800
24753W        W41227   3.666   1.801   8.895  0.2892 -0.3553 -0.0455
24754W        W41228   5.797   8.440  11.002 -0.1452  0.1045  0.0976
24755W        W41229  14.192  17.349   9.470  0.1315 -0.2219 -0.1974
24756W        W41230  11.756   8.873   2.106  0.1551 -0.2557 -0.1513
24757W        W41231  14.123   2.925  12.103  0.0083  0.0488 -0.0143
24758W        W41232   7.813   0.892  14.443 -0.0825  0.1832 -0.2467
24759W        W41233   2.951   1.945  12.983  0.4388 -0.0095 -0.1412
24760W        W41234   9.151  15.325  11.413  0.0229  0.1408 -0.2251
24761W        W41235  12.269   9.363   3.482  0.0210  0.3104 -0.2008
24762W        W41236   2.595  16.840   3.012  0.1644  0.2252  0.1587
24763W        W41237   3.804  14.867  12.427  0.5038  0.4832  0.0969
24764W        W41238  19.070  15.493   3.089 -0.0164 -0.0884  0.1629
24765W        W41239   4.381   1.354  13.029 -0.2358 -0.0385  0.4461
24766W        W41240   4.413  19.569  12.094  0.2242  0.2776 -0.1782
24767W        W41241   6.137   9.840   9.719  0.0422  0.1886 -0.1288
24768W        W41242  16.820   6.035  12.313  0.1426 -0.1913  0.2443
24769W        W41243  13.876   9.487  14.481 -0.3373 -0.2811 -0.0707
24770W        W41244   8.534  12.147  10.819 -0.3323  0.1202 -0.1083
24771W        W41245   8.598  10.665  13.402  0.2304  0.0556 -0.2629
24772W        W41246  15.437  10.393   2.647 -0.4119 -0.0928 -0.2229
24773W        W41247   9.860  18.660   1.018  0.0347  0.0311  0.2393
24774W        W41248   5.093   1.244  13.000  0.1026  0.0688 -0.1088
24775W        W41249  17.853   7.377  13.491  0.2159 -0.0805  0.0659
24776W        W41250  13.185  19.077  14.132  0.0953  0.1416 -0.0294
24777W        W41251  13.625  18.496  10.864  0.3703 -0.2072 -0.2160
24778W        W41252   8.712  16.693   5.645 -0.0646 -0.0713  0.2923
24779W        W41253   0.552  19.587  12.944  0.0868  0.4465  0.0304
24780W        W41254  11.721  14.050  13.958 -0.0414  0.0449 -0.0760
24781W        W41255   6.013  18.926   2.229  0.1436 -0.2821  0.2781
24782W        W41256  14.670   8.998  11.447  0.2262  0.2027 -0.2275
24783W        W41257  17.558   2.536  13.802  0.1667 -0.0063 -0.1617
24784W        W41258   1.999   3.748  13.803  0.0897  0.0392 -0.1173
24785W        W41259  11.555   9.973  13.865  0.1414 -0.2641 -0.0753
24786W        W41260   8.006   8.006  10.761 -0.0160  0.2660  0.0958
24787W        W41261   5.232   1.514   1.924 -0.0099  0.3299 -0.1271
24788W        W41262  17.535   0.614  12.305 -0.2262  0.4813  0.0926
24789W        W41263  18.269  17.585   1.757 -0.3173 -0.0204  0.3512
24790W        W41264   7.422   5.077  11.933  0.2253 -0.1133 -0.0218
24791W        W41265  19.469   6.552  13.308 -0.3661 -0.1349 -0.0026
24792W        W41266   9.011  14.537  13.295  0.4093  0.2954 -0.3479
24793W        W41267  14.044  14.732  12.437  0.1381 -0.0140 -0.1017
24794W        W41268   1.429  17.598   3.642  0.1726  0.1460  0.1423
24795W        W41269  11.204  12.151  12.549 -0.0028 -0.0049 -0.0981
24796W        W41270   1.566  17.848   0.689 -0.1030 -0.2469  0.1067
24797W        W41271  11.346   8.361   3.110  0.0359  0.1246  0.0642
24798W        W41272  17.383  16.807  13.776 -0.0267 -0.4276 -0.1467
24799W        W41273  17.930   4.183   4.499  0.1356 -0.0549  0.0793
24800W        W41274   6.065  18.413   1.160 -0.1102 -0.0367 -0.1909
24801W        W41275   5.169  17.760   1.049 -0.1333  0.0282 -0.0356
24802W        W41276   3.551   4.849   2.222 -0.1146  0.1636  0.0516
24803W        W41277   4.738   9.167   0.457  0.0039 -0.3422 -0.0096
24804W        W41278  13.398   9.595   5.096  0.4803  0.0304 -0.0244
24805W        W41279  18.513   8.394   2.326 -0.1593 -0.1014  0.2208
24806W        W41280   3.051   9.171  12.594  0.1206 -0.1258 -0.1252
24807W        W41281   0.056   5.223   9.575 -0.2561  0.2050  0.0501
24808W        W41282   7.704   2.000   4.030 -0.1217  0.3093  0.0507
24809W        W41283   3.046   7.365  11.635 -0.0120 -0.2827 -0.3258
24810W        W41284  12.128   8.018   5.192 -0.1431 -0.0257  0.1347
24811W        W41285  16.520  17.704  14.401  0.1530  0.1483 -0.0836
24812W        W41286   6.875  19.241  12.262 -0.0307 -0.0824 -0.0532
24813W        W41287   0.689  13.411  14.217  0.3308 -0.0948  0.0405
24814W        W41288  14.426   0.977  13.077  0.2033 -0.0068  0.0089
24815W        W41289  16.151  16.267   3.828  0.3214  0.1365 -0.0350
24816W        W41290   0.811   3.667   3.418 -0.2511  0.2366 -0.0793
24817W        W41291  10.000   0.624   3.155  0.0535  0.1007  0.0451
24818W        W41292  14.718  10.313   0.734  0.1253 -0.0030  0.0775
24819W        W41293   3.732  19.127   4.193  0.1393  0.1452 -0.2724
24820W        W41294  18.155   6.196  10.672  0.2492 -0.1865  0.2344
24821W        W41295   9.450   1.143   1.718 -0.3837 -0.0371 -0.3345
24822W        W41296  12.277  14.066  14.142  0.2036  0.0898  0.1120
24823W        W41297  13.081   5.625   2.360  0.3900  0.1122 -0.0689
24824W        W41298  17.008  10.183  11.803  0.0133 -0.1336  0.0890
24825W        W41299  16.734  19.143   0.475 -0.0230 -0.3265  0.1780
24826W        W41300   3.042   8.220  12.235 -0.2405  0.0744 -0.0640
24827W        W41301   0.444  18.589  12.877 -0.1443  0.2287 -0.1326
24828W        W41302  18.683  18.958   0.747 -0.0928 -0.2729 -0.4008
24829W        W41303   4.205  11.400   2.418  0.2415  0.2642 -0.0192
24830W        W41304   7.195  17.225   3.450 -0.2038 -0.0337  0.0286
24831W        W41305   2.526   9.429   5.510 -0.0609  0.2076 -0.1655
24832W        W41306   0.347  12.151   4.029  0.3464 -0.2525  0.0676
24833W        W41307  11.386  17.244  10.898  0.2653 -0.1117 -0.3502
24834W        W41308  16.139  13.730   4.653 -0.3255  0.0600  0.2801
24835W        W41309   1.210   4.803   1.505 -0.0817  0.1850  0.1377
24836W        W41310   2.903  15.568  11.621  0.2769 -0.1693  0.1548
24837W        W41311  13.154   8.752   3.966 -0.0168  0.2173 -0.0397
24838W        W41312  14.469   8.851  10.955 -0.3679  0.1868 -0.1815
24839W        W41313  12.055   7.592  13.290 -0.2306 -0.2412  0.3287
24840W        W41314   5.514   6.605  13.464  0.2262 -0.1417 -0.0877
24841W        W41315   7.011  13.442  11.315 -0.0068  0.1169  0.0154
24842W        W41316   2.666  17.145   0.929 -0.1308 -0.2424 -0.0487
24843W        W41317   1.330  13.332   3.333  0.0392  0.0362  0.1249
24844W        W41318  11.463   5.464  10.403  0.1210  0.0867  0.2431
24845W        W41319  17.455   7.332   3.654 -0.1350  0.1724  0.0597
24846W        W41320   0.251   3.428   1.365  0.0610  0.2835 -0.2091
24847W        W41321  10.202   1.508   2.223 -0.1898  0.0124 -0.0407
24848W        W41322   3.985   1.196  13.274  0.0540 -0.2211 -0.2291
24849W        W41323   6.701  15.927   0.846 -0.2409 -0.0820 -0.3988
24850W        W41324  19.332  10.285   0.754 -0.3178  0.3991 -0.3632
24851W        W41325   2.853   7.761  11.387 -0.0982 -0.1233 -0.0582
24852W        W41326   9.245   6.585  13.844  0.0726 -0.3160  0.3262
24853W        W41327   7.741  18.857   2.108 -0.0062 -0.0728 -0.2073
24854W        W41328  19.254  12.869   4.972  0.1267 -0.0235  0.2725
24855W        W41329   7.844  15.410   4.523 -0.2760  0.2049 -0.1224
24856W        W41330  12.657   6.630  10.119  0.2043  0.0119  0.1558
24857W        W41331  12.722   2.255   3.650  0.0342  0.2451 -0.1019
24858W        W41332   8.363  17.823   4.370  0.0879  0.0924 -0.0072
24859W        W41333   8.534   9.398  11.662 -0.1115 -0.0976 -0.1416
24860W        W41334   6.677  11.054  11.854 -0.1426 -0.0607 -0.0633
24861W        W41335  17.063  17.613   2.441  0.1336 -0.1387 -0.2256
24862W        W41336   5.740  17.315  10.289  0.2059  0.0817  0.1000
24863W        W41337  10.517   6.213   9.942 -0.0585  0.0113 -0.0656
24864W        W41338  12.673   6.159   4.116 -0.1075  0.2449 -0.0858
24865W        W41339   0.892   8.306   1.957 -0.2923 -0.0755  0.2752
24866W        W41340  10.623  11.318  12.508  0.1712 -0.1520  0.3143
24867W        W41341   6.104  16.619  11.002 -0.2948 -0.0753 -0.1724
24868W        W41342   1.576   3.156   2.241  0.0839  0.0354 -0.1674
24869W        W41343  16.364  18.037   2.123 -0.2030  0.1341 -0.0782
24870W        W41344   6.954  17.261   4.001  0.2271 -0.0929 -0.0265
24871W        W41345  12.022  18.698   3.365  0.2337 -0.0566 -0.3210
24872W        W41346   6.808  18.165  14.648  0.1520 -0.1403  0.2339
24873W        W41347   8.525   7.292   2.347 -0.0697  0.0900  0.2099
24874W        W41348  16.283  19.320  13.165 -0.1235 -0.2166 -0.2890
24875W        W41349   6.583   9.525   0.551  0.2876 -0.0274 -0.0446
24876W        W41350  13.307  12.817   1.826  0.2801 -0.1166  0.4432
24877W        W41351  19.073  18.550  12.111 -0.1855 -0.1001  0.1993
24878W        W41352   3.503  17.339   0.031 -0.3113 -0.1208 -0.1161
24879W        W41353   0.150  15.384  10.626 -0.1170  0.1515 -0.0658
24880W        W41354  14.753  12.457   2.601 -0.2457 -0.0078 -0.0008
24881W        W41355   7.546   4.214   9.797  0.3911  0.0018 -0.1326
24882W        W41356   0.767   5.079  14.392 -0.0768 -0.0641  0.4364
24883W        W41357   6.417   4.461   3.314  0.0235  0.0171 -0.0579
24884W        W41358   7.155   2.090   4.269 -0.0793 -0.0606 -0.0444
24885W        W41359  17.269   2.863  11.325  0.1671 -0.0701  0.3126
24886W        W41360  13.491  12.054  13.875  0.2219 -0.2190 -0.0381
24887W        W41361  12.863   4.560   3.017 -0.0925  0.0096  0.0965
24888W        W41362   0.030  18.054   1.725  0.1404 -0.0381  0.0199
24889W        W41363  17.079   9.493  10.308 -0.2578  0.0546 -0.4274
24890W        W41364   8.801  10.368   3.819  0.3319 -0.2216 -0.1272
24891W        W41365  15.155   4.889  13.555 -0.0063 -0.4288 -0.0088
24892W        W41366  14.604  13.117  10.707 -0.1845 -0.1401  0.0860
24893W        W41367   3.582  11.739  12.010  0.0568 -0.2730  0.0918
24894W        W41368  16.777  18.650   5.254 -0.1774  0.1176  0.2923
24895W        W41369  15.034   5.562   1.563  0.0109 -0.1846 -0.2371
24896W        W41370   3.470  11.172   0.270 -0.1026 -0.0516  0.2457
24897W        W41371   4.676   0.077   4.771 -0.2802  0.0756 -0.0691
24898W        W41372  13.065  16.368   2.572  0.2354 -0.1524 -0.4087
24899W        W41373  12.607  18.812   1.049  0.0563 -0.0889  0.2586
24900W        W41374  14.121   0.628  12.287  0.0548 -0.1911  0.0013
24901W        W41375  17.030  18.714  13.325 -0.3407 -0.0241  0.0041
24902W        W41376   6.563   2.788   1.121  0.2528  0.1047 -0.0317
24903W        W41377  14.609   5.968   3.422  0.2110  0.0628  0.1563
24904W        W41378  12.488   1.179   4.016 -0.1409  0.1699  0.0583
24905W        W41379  16.102   5.569   2.172 -0.2318  0.1539  0.2138
24906W        W41380   1.714   8.211   0.633  0.2173 -0.1832 -0.2588
24907W        W41381  10.572  19.193   1.346 -0.0218 -0.0851 -0.0656
24908W        W41382  11.836  17.306  10.670 -0.4263 -0.0006  0.1291
24909W        W41383   3.417  15.133   3.237  0.0323 -0.0216  0.2505
24910W        W41384  17.026  13.970   4.752  0.5239 -0.0860  0.1438
24911W        W41385  11.209  12.987   4.935  0.1186 -0.1033 -0.3109
24912W        W41386  13.953   3.162  13.798  0.3148 -0.3537 -0.1905
24913W        W41387  18.461   6.855   0.090 -0.0913  0.0567  0.4394
24914W        W41388   0.986  17.916  14.272 -0.2338 -0.2628 -0.2704
24915W        W41389   7.471   5.212  12.452  0.4023 -0.3389  0.0671
24916W        W41390   3.694   1.640  10.757  0.0056  0.1656 -0.0166
24917W        W41391  13.355  13.352   1.808 -0.1471 -0.1491 -0.1308
24918W        W41392  16.939  18.609   9.218  0.3039  0.4030  0.0534
24919W        W41393   1.612  11.282  13.304  0.2365 -0.0444 -0.0566
24920W        W41394   6.097  10.507   3.083  0.0201 -0.4286  0.1305
24921W        W41395   9.831   9.869   3.920 -0.1983  0.0196  0.2701
24922W        W41396  15.985   7.548  14.287 -0.1833  0.1790 -0.1492
24923W        W41397   0.954  17.917   2.382  0.0280 -0.1222 -0.1691
24924W        W41398  18.981  12.755  13.478 -0.1332 -0.0531  0.4361
24925W        W41399   0.521   1.691  11.386  0.1140  0.0931  0.2898
24926W        W41400  12.851   8.135  10.630 -0.0195 -0.1040 -0.2398
24927W        W41401   8.017   8.345  10.446 -0.3492  0.0987 -0.0040
24928W        W41402   9.957  12.981  13.404 -0.2194 -0.1892 -0.0948
24929W        W41403  12.398   1.510   1.117 -0.1037  0.0734 -0.1471
24930W        W41404   3.790  16.432   0.804  0.1367  0.0582  0.2540
24931W        W41405   8.991   6.343  12.513  0.0522  0.3568  0.1051
24932W        W41406  12.709   0.969  10.495 -0.1810  0.2505  0.0364
24933W        W41407   9.996   4.025  12.327  0.1653  0.0364  0.1008
24934W        W41408  14.114   2.913  10.416  0.0989  0.0470  0.1204
24935W        W41409  13.581  11.682   1.269  0.3635 -0.1082  0.0769
24936W        W41410  15.175  17.865   0.464 -0.0181  0.1911  0.0321
24937W        W41411  13.563  18.514   0.483 -0.0604  0.1372  0.1234
24938W        W41412   1.795  13.110   4.997  0.2734  0.0610  0.1320
24939W        W41413   0.880   4.307  10.473 -0.0197 -0.0691 -0.0134
24940W        W41414   8.127   3.260   9.912  0.1538  0.1267 -0.2270
24941W        W41415   7.541  14.078   0.798  0.0958 -0.1728  0.0614
24942W        W41416  12.101  12.000   9.288  0.2393  0.1454  0.2672
24943W        W41417   6.881   4.579  11.242 -0.2298 -0.3355 -0.0309
24944W        W41418   3.378  10.456   1.783 -0.2579 -0.0806  0.0409
24945W        W41419  16.604  17.424   3.715 -0.0969 -0.2370 -0.0214
24946W        W41420   6.896  13.768  13.004 -0.1790  0.0434 -0.1197
24947W        W41421  12.286   3.258   4.791 -0.0470  0.1666  0.4667
24948W        W41422  14.870  14.636   4.707  0.3291 -0.1962 -0.0086
24949W        W41423  17.082  15.976   3.613  0.1893  0.0228  0.0391
24950W        W41424   7.191   0.665   0.561  0.1886  0.2668  0.0218
24951W        W41425  17.648   0.371  14.253 -0.1903 -0.1565  0.0314
24952W        W41426   0.139   1.225  12.177  0.1970  0.2513  0.1874
24953W        W41427  12.369  15.533   2.609  0.0807  0.0507  0.0519
24954W        W41428   7.080  13.083   1.142 -0.1057  0.0595  0.1951
24955W        W41429   1.995  18.533  13.908 -0.0844 -0.0075  0.2324
24956W        W41430   8.099  17.145  11.928  0.1342  0.1971  0.1298
24957W        W41431  10.575  14.802   0.614  0.1123  0.0351 -0.1780
24958W        W41432   7.561  17.189   2.215 -0.1067  0.0298 -0.0871
24959W        W41433   7.694   2.977   0.525  0.0233  0.0413  0.0115
24960W        W41434  11.085   4.173  14.555 -0.0273  0.3406 -0.1064
24961W        W41435   7.229  10.898  11.440  0.2364  0.2717 -0.1104
24962W        W41436   8.895   5.084  11.409  0.0826 -0.1377  0.0070
24963W        W41437  18.795   6.119   1.603 -0.1021 -0.1265 -0.0792
24964W        W41438  19.151  16.393  10.333  0.1058  0.0176  0.2201
24965W        W41439   7.068  18.596  12.995 -0.0742 -0.3356  0.1694
24966W        W41440   1.119  16.188  10.695 -0.0177  0.2081  0.2402
24967W        W41441  18.419  10.445  13.394 -0.1068 -0.1121  0.0257
24968W        W41442   6.740   9.776   4.012  0.0534 -0.0516 -0.0112
24969W        W41443   8.932  18.245  13.402 -0.0636  0.2517 -0.2058
24970W        W41444   1.918  15.613   1.944 -0.2411 -0.0185 -0.2123
24971W        W41445  10.069  17.866   2.578  0.0598 -0.4154  0.2041
24972W        W41446   5.873   7.014   1.928 -0.0543 -0.4329  0.2819
24973W        W41447  16.801   1.861   3.467  0.2120  0.1498 -0.1740
24974W        W41448   4.340   9.148   1.284 -0.2522  0.0556 -0.0455
24975W        W41449   9.832  14.948  10.820  0.0434 -0.2052  0.0470
24976W        W41450   1.764  10.248  13.451 -0.0147 -0.0711  0.3494
24977W        W41451  13.510  16.337  11.400 -0.1983 -0.1175 -0.1103
24978W        W41452   9.425  15.085  12.912 -0.3311  0.1477 -0.1990
24979W        W41453   0.217   4.092   2.281  0.0958 -0.0195 -0.1686
24980W        W41454   1.265   7.099   1.175  0.1885 -0.1542 -0.0870
24981W        W41455  16.303  12.962   0.696 -0.1727  0.1575 -0.3573
24982W        W41456   7.722  19.540  14.048  0.0323  0.1294  0.1769
24983W        W41457  11.249  11.556  14.494  0.0090 -0.1382  0.0585
24984W        W41458  12.740   7.835  10.233 -0.0850  0.1019 -0.3991
24985W        W41459  17.143  18.430  13.858 -0.0241 -0.4567  0.2215
24986W        W41460   5.688   7.499   0.788  0.1725  0.1885 -0.0748
24987W        W41461   0.273  18.288   0.033 -0.0023 -0.0116  0.0466
24988W        W41462   5.487   9.362   3.513 -0.0806 -0.4261 -0.2759
24989W        W41463   7.337  18.058   0.210 -0.1070  0.2109  0.0213
24990W        W41464   5.114   1.648  12.640 -0.0982 -0.0906  0.1872
24991W        W41465   9.703  17.965  13.853  0.1046 -0.1105 -0.2521
24992W        W41466  15.863  12.213   2.282 -0.0631  0.2655  0.0727
24993W        W41467   6.555   3.763   2.540 -0.1887  0.3144  0.1170
24994W        W41468  12.365   6.739  13.303 -0.2577  0.1749 -0.2967
24995W        W41469   6.654   4.862  12.771 -0.2130  0.1145 -0.0602
24996W        W41470  14.897   5.316  11.496 -0.1610 -0.1522  0.0572
24997W        W41471   0.761   2.470  14.524 -0.0322 -0.2745 -0.0467
24998W        W41472   1.587   2.557  14.251  0.0658  0.0169  0.0154
24999W        W41473  11.198   6.158   0.882  0.0789  0.1627 -0.0108
25000W        W41474  12.191   2.293  12.943  0.4140 -0.2084 -0.0098
25001W        W41475   5.232   2.507   1.845  0.2810  0.1254  0.1645
25002W        W41476  12.392  17.185   0.770 -0.2657  0.3925 -0.0918
25003W        W41477  10.521  15.380  13.202 -0.0490  0.1549 -0.0256
25004W        W41478  16.476   9.269   4.982  0.0603 -0.2483  0.0056
25005W        W41479  13.841   2.155  13.887  0.2349  0.1820  0.2734
25006W        W41480   4.813   4.340  12.753  0.0607 -0.3568 -0.0447
25007W        W41481  17.971   0.138   3.802 -0.0785  0.0830 -0.1623
25008W        W41482  16.825   0.110   3.744 -0.0689 -0.0443  0.0237
25009W        W41483   1.856  16.300   3.106 -0.0495  0.1719  0.0665
25010W        W41484   8.072  19.034   3.007 -0.0096  0.1164  0.1308
25011W        W41485   8.473  18.499   1.446 -0.1463  0.3048 -0.1294
25012W        W41486  16.952   6.015  11.373  0.0421 -0.1555 -0.0015
25013W        W41487   0.598   2.531   1.008 -0.3610  0.1346  0.3517
25014W        W41488   4.283   5.274   4.192  0.2155 -0.1147 -0.4758
25015W        W41489  11.722  14.577   0.968  0.3063 -0.1288 -0.1781
25016W        W41490   9.477  12.531   2.976 -0.0445 -0.1048 -0.0032
25017W        W41491   5.053   8.235  14.579 -0.1728 -0.1790 -0.0255
25018W        W41492  14.561  17.697   9.270 -0.2499  0.0204 -0.3388
25019W        W41493   4.098   7.075  13.844 -0.1361  0.2218  0.2136
25020W        W41494  16.653   5.704  11.776  0.2995 -0.0597  0.3695
25021W        W41495   8.700  17.637   4.712 -0.2349  0.0668 -0.3083
25022W        W41496  12.003  17.884  12.518  0.4478 -0.1928 -0.3599
25023W        W41497  16.844  11.521   3.186 -0.2595 -0.1276 -0.0623
25024W        W41498   0.416   4.425  10.783 -0.0125 -0.2534  0.2882
25025W        W41499  14.427   5.063   3.475 -0.2848 -0.2146 -0.3509
25026W        W41500  13.468   0.843  14.406 -0.1293 -0.1719 -0.3543
25027W        W41501   3.089  14.012  10.157 -0.2965 -0.0138 -0.0331
25028W        W41502   5.862  18.827  13.419 -0.0148  0.0486 -0.0752
25029W        W41503  19.029  19.083   2.691  0.0942 -0.1312  0.4100
25030W        W41504   4.917  16.261   5.475 -0.0455 -0.4008 -0.0664
25031W        W41505  16.389  18.284   3.447  0.1300 -0.0941 -0.0872
25032W        W41506   1.144  19.181  13.715  0.1832 -0.1014  0.2719
25033W        W41507  14.353   5.605   2.584 -0.2239  0.0147 -0.2098
25034W        W41508   3.322  14.760   3.918  0.0737 -0.1652 -0.1484
25035W        W41509   4.718   7.006   0.475  0.1542  0.0247  0.0081
25036W        W41510  13.754   9.881  10.490 -0.0314 -0.0144  0.0684
25037W        W41511  13.372  17.318   3.620  0.3412  0.2100  0.3009
25038W        W41512   9.810  13.002   2.212  0.2386 -0.2139  0.0758
25039W        W41513   2.471   7.429  11.054 -0.2747 -0.1075 -0.0362
25040W        W41514  14.351  10.187   1.064 -0.3253 -0.0419 -0.1097
25041W        W41515   6.835   1.843  10.741 -0.2341 -0.2448 -0.3044
25042W        W41516  17.811  13.127  12.290  0.2159 -0.1431  0.1430
25043W        W41517   5.367   1.916   1.634 -0.2378  0.0216 -0.2214
25044W        W41518   4.996  13.523  13.750  0.0119 -0.0816  0.6566
25045W        W41519   1.623  17.408   1.506  0.0287  0.0422 -0.2317
25046W        W41520   3.737   3.316  12.068  0.0792 -0.1421 -0.0987
25047W        W41521   9.254   7.822   3.071 -0.1997  0.2374 -0.2227
25048W        W41522  18.856   1.913  10.096  0.2435 -0.1321  0.1477
25049W        W41523   5.503   2.863   9.536  0.0899  0.0319  0.1730
25050W        W41524   2.113  13.896  10.863 -0.1124  0.2925  0.2716
25051W        W41525   9.687   7.660   2.732 -0.3187  0.0294  0.0444
25052W        W41526  16.383  17.973  12.209  0.1158 -0.2719  0.1667
25053W        W41527   7.817  18.981  12.146 -0.0737  0.2223  0.1881
25054W        W41528   7.423  13.992  13.017  0.0383  0.0014 -0.0590
25055W        W41529  13.743   5.827  10.046  0.1340 -0.0028 -0.1277
25056W        W41530  17.993  11.106   3.694  0.0608 -0.4326 -0.2257
25057W        W41531   9.445  17.644   4.547 -0.1918 -0.2500  0.2228
25058W        W41532  18.909  18.582  14.519  0.2332 -0.2915  0.0442
25059W        W41533  17.267  15.271  10.234 -0.0931 -0.1653 -0.3719
25060W        W41534  14.971   4.037   1.060 -0.1588 -0.0251  0.2140
25061W        W41535  13.520   7.551   4.860 -0.2055 -0.0806 -0.1422
25062W        W41536  18.117   9.063  14.606 -0.2150 -0.2569  0.0097
25063W        W41537   3.746   6.324  10.772  0.4506 -0.2527  0.0931
25064W        W41538  11.667  18.722  10.759 -0.0622  0.0266  0.0675
25065W        W41539   7.833  10.770   0.340 -0.0047 -0.1090  0.2505
25066W        W41540   1.439  15.424   1.481 -0.1763 -0.3108 -0.1251
25067W        W41541   4.752  15.651  11.774  0.1047 -0.2621  0.1426
25068W        W41542   4.761   9.713  11.363 -0.0822 -0.0848  0.1478
25069W        W41543   3.595  19.032   0.255 -0.1418  0.1132  0.0780
25070W        W41544  17.931   3.022   2.923 -0.2261 -0.1912 -0.1509
25071W        W41545   1.284  12.252   4.144 -0.2198 -0.2514  0.1240
25072W        W41546   6.409  11.021   4.310  0.2319  0.1910  0.2364
25073W        W41547  10.971   6.528  13.025 -0.4649 -0.0498 -0.0865
25074W        W41548  10.969  14.188  12.771 -0.1569 -0.0239  0.4800
25075W        W41549   1.249  11.463  13.652 -0.0987  0.1776 -0.2256
25076W        W41550  17.055   3.843  11.119 -0.2845  0.0702 -0.0294
25077W        W41551   2.362   6.694  10.491 -0.0088  0.0357 -0.1136
25078W        W41552  19.289   2.758  10.427 -0.1271  0.1053 -0.1116
25079W        W41553  14.018  15.878  12.699  0.0302  0.1916 -0.0082
25080W        W41554  13.148  19.536   0.660 -0.1525  0.1172 -0.3156
25081W        W41555   3.421  17.909   0.131  0.1127  0.1746 -0.0403
25082W        W41556   2.989   9.578  13.032 -0.1723 -0.0549 -0.2037
25083W        W41557   7.082   0.510   0.070 -0.3062  0.0061 -0.0981
25084W        W41558   1.416  15.935   3.730 -0.0561 -0.0849  0.3339
25085W        W41559   6.023   6.790  10.741  0.0614  0.1446  0.0948
25086W        W41560  16.818   7.049   3.640 -0.3331 -0.2487 -0.0225
25087W        W41561   3.351   8.853  11.409 -0.0920  0.1101  0.1153
25088W        W41562   3.133   6.700   3.626 -0.1660  0.0240  0.2190
25089W        W41563   4.389  15.397   2.341  0.1685 -0.2054  0.2784
25090W        W41564  12.156  19.008  11.414 -0.1513 -0.1329  0.0034
25091W        W41565  13.764   3.390  11.248  0.1556 -0.0141  0.3395
25092W        W41566   8.610   7.976  13.961  0.0390 -0.3869  0.3842
25093W        W41567  18.520   9.121   9.864 -0.1675  0.1071  0.2612
25094W        W41568   0.297  13.402   1.565 -0.0842 -0.0075 -0.3191
25095W        W41569   1.002  12.918   3.306  0.2715  0.0147  0.3232
25096W        W41570  18.014  14.513   1.498 -0.1259  0.1549  0.1428
25097W        W41571   3.689  18.089  14.401  0.2332  0.0995 -0.0603
25098W        W41572   2.558  12.316   2.630  0.3961  0.2357  0.0294
25099W        W41573   6.322  14.810  10.755  0.0852 -0.2918  0.3029
25100W        W41574  15.579  16.123   0.735  0.3609 -0.0909  0.3286
25101W        W41575  18.137   6.739   0.553 -0.1751 -0.1590  0.0608
25102W        W41576   8.071  13.367   0.650 -0.2420 -0.0463 -0.5793
25103W        W41577   4.217  16.242  14.616 -0.0018  0.0881 -0.0708
25104W        W41578  16.302  17.400   4.701 -0.0372  0.1461 -0.1302
25105W        W41579  18.199  13.160   2.946 -0.1279  0.0541  0.1342
25106W        W41580   4.863  18.625   2.965 -0.3246 -0.1820 -0.1431
25107W        W41581  16.776  18.162  14.222 -0.0413 -0.1422 -0.3787
25108W        W41582   9.283  18.964  12.584 -0.2475 -0.5223 -0.2136
25109W        W41583  17.741  14.732  13.573  0.1074  0.0382 -0.1809
25110W        W41584   0.917   8.435   4.436 -0.2770  0.1101  0.0730
25111W        W41585  18.871  10.126  12.161  0.1793  0.4209  0.1486
25112W        W41586  10.265  12.113   0.103 -0.0688  0.0233 -0.1269
25113W        W41587   4.110   9.297   2.105 -0.0638 -0.4140 -0.1359
25114W        W41588  12.575  15.648   2.148 -0.0492 -0.1479 -0.1486
25115W        W41589  14.131  16.093   1.638  0.1140  0.0743  0.3093
25116W        W41590   1.606  11.304  10.360  0.3885 -0.0320 -0.2758
25117W        W41591  19.086   9.445   2.910  0.1272  0.3374  0.1827
25118W        W41592  10.688   3.302   0.393 -0.0445  0.1418  0.0301
25119W        W41593   7.526  17.534  10.360 -0.0497  0.1212 -0.0663
25120W        W41594  16.751  13.513   3.622 -0.3065 -0.0731  0.5098
25121W        W41595   9.955  15.366  13.746  0.1290 -0.1935  0.2752
25122W        W41596  17.440  14.807  14.593 -0.2218 -0.1976  0.0729
25123W        W41597  13.717   4.893   0.628 -0.0412  0.1004 -0.0765
25124W        W41598  16.688   9.033   1.218 -0.0830 -0.0557  0.2044
25125W        W41599   4.376   1.623  14.057  0.1427  0.0024 -0.1195
25126W        W41600  12.163   4.913  14.432  0.1677 -0.0151  0.0523
25127W        W41601  10.734   7.312   1.721 -0.1415  0.0865 -0.0960
25128W        W41602  12.427  17.974  13.687  0.1403  0.1194  0.4273
25129W        W41603   0.220   7.045  10.734 -0.1532 -0.1759 -0.1946
25130W        W41604  18.318   6.454  14.326 -0.1221  0.1707  0.0893
25131W        W41605   8.348  15.281  10.936  0.4879  0.0281 -0.1388
25132W        W41606   9.907  14.188   5.325  0.1567 -0.0112  0.0929
25133W        W41607  15.743   9.928  10.491  0.1234 -0.1459  0.1267
25134W        W41608  18.739  17.618  12.813 -0.1925  0.1451 -0.3804
25135W        W41609  15.038  11.240  14.554  0.2650 -0.1740  0.1425
25136W        W41610   9.693  12.966   3.173 -0.1365  0.3827 -0.0526
25137W        W41611  15.842   3.681  11.818 -0.0848  0.1414  0.0276
25138W        W41612   2.503  10.329  13.159 -0.0297 -0.2110 -0.0623
25139W        W41613  18.189   8.254  13.030 -0.0595  0.0506  0.0745
25140W        W41614  18.410   9.713   4.662  0.2078 -0.1508  0.0848
25141W        W41615   3.415   9.818  10.142  0.1009  0.0579  0.0861
25142W        W41616   4.357   9.249  10.590  0.2270 -0.1786 -0.0689
25143W        W41617   7.122   5.054  11.112 -0.0206  0.1860  0.0343
25144W        W41618  16.341   3.119   0.840  0.2887 -0.0638 -0.0165
25145W        W41619   1.976  13.987   0.396  0.0060  0.4029  0.4385
25146W        W41620  17.292   1.205  11.968 -0.1085 -0.0925  0.0103
25147W        W41621  14.141  11.155  11.001  0.0262 -0.1938  0.1920
25148W        W41622  16.995   8.917   3.350  0.0979 -0.2045 -0.0469
25149W        W41623  10.956  14.669  13.051 -0.0187  0.0485  0.2208
25150W        W41624  12.673  17.147  11.391  0.2209 -0.0537  0.3979
25151W        W41625   5.789   7.370   4.338  0.0837  0.1757 -0.4054
25152W        W41626   6.947  16.610  10.756 -0.0595  0.0434 -0.0287
25153W        W41627  11.796  10.223   2.942 -0.1772  0.0324 -0.0531
25154W        W41628   3.155  14.215   4.068 -0.0153  0.1310  0.2126
25155W        W41629   3.599   6.941   5.577 -0.0996  0.1594  0.0620
25156W        W41630   5.048   5.247   3.199  0.0949 -0.1200  0.2050
25157W        W41631   8.615   5.101   4.044 -0.1515 -0.0369 -0.0771
25158W        W41632  15.156   2.417   0.225  0.2310  0.1218 -0.0075
25159W        W41633  18.057  11.522   5.001  0.1224  0.1066 -0.1733
25160W        W41634  12.193   5.783   4.645 -0.4521 -0.4600  0.2074
25161W        W41635  18.277   3.470   2.471 -0.4524  0.3328 -0.1398
25162W        W41636   5.992   8.286   0.528 -0.4436  0.0600 -0.2719
25163W        W41637  15.107   0.396  13.867  0.2575  0.0188  0.3314
25164W        W41638  13.147   7.751  10.624  0.2169 -0.0538 -0.0611
25165W        W41639   2.348   8.538  13.123  0.2921  0.0228  0.1190
25166W        W41640  10.690  16.700   2.200 -0.2198 -0.0712  0.1444
25167W        W41641   5.053   3.477  10.015  0.1344 -0.0641  0.1404
25168W        W41642   2.942  14.356  14.096 -0.1512  0.2469  0.0026
25169W        W41643  14.597   8.461   4.068 -0.0988  0.0028 -0.1663
25170W        W41644   9.064   1.088   0.691 -0.3061  0.1577 -0.1848
25171W        W41645   0.011  10.935  14.160  0.0757  0.2511  0.2590
25172W        W41646   3.898   3.042  13.230  0.2752 -0.0649  0.1410
25173W        W41647  18.884  13.885  13.197 -0.1481 -0.0392 -0.2407
25174W        W41648   3.943  18.349   1.688  0.1416  0.1702  0.0710
25175W        W41649  12.603  10.570  13.035  0.1330 -0.0938  0.1173
25176W        W41650   6.354  11.485  12.969  0.0473 -0.0335  0.0366
25177W        W41651  17.700   3.584  12.112 -0.0778  0.1957  0.5608
25178W        W41652   9.094   6.461  14.329  0.3514 -0.2195  0.3927
25179W        W41653   5.675  12.978  13.498 -0.1119 -0.2368  0.2699
25180W        W41654  14.651   4.251   4.390  0.2510  0.2932 -0.0925
25181W        W41655   4.654   8.333  10.749 -0.1748  0.1532  0.4900
25182W        W41656   9.741   4.605  10.192  0.2340  0.3052 -0.3415
25183W        W41657  10.336  18.374   1.364 -0.0531 -0.0266  0.4293
25184W        W41658   0.779   6.371   2.411  0.1180  0.0928  0.1203
25185W        W41659  13.827   3.278  12.796  0.1559 -0.1169  0.1581
25186W        W41660  17.963   7.518   3.636 -0.1394  0.1203  0.1578
25187W        W41661  16.460   3.937   3.094  0.0815  0.0129  0.0092
25188W        W41662   8.638  15.035   3.040 -0.4354  0.2118  0.2596
25189W        W41663   3.721   3.840   3.091 -0.1368 -0.2002  0.1311
25190W        W41664  11.200   6.861   0.838 -0.3566  0.0100 -0.2625
25191W        W41665  14.633  18.631  10.831 -0.1318 -0.1769 -0.0852
25192W        W41666   5.104   7.283  12.249 -0.1657 -0.1758 -0.0282
25193W        W41667  15.318   4.533   3.881  0.2933  0.2369  0.0773
25194W        W41668   5.646   3.904   4.154  0.1912  0.1124  0.0649
25195W        W41669  12.141  14.098  10.895  0.1074  0.0667 -0.2917
25196W        W41670   2.107  11.480  13.491 -0.5333  0.0448  0.2180
25197W        W41671  11.344   3.668  12.841  0.1597 -0.0469 -0.1777
25198W        W41672   3.188   2.869   4.218  0.0788  0.0556 -0.1457
25199W        W41673  13.216  12.340   4.355 -0.3655 -0.1000 -0.3165
25200W        W41674  16.806  15.782  11.857  0.0359 -0.2622  0.0839
25201W        W41675  14.323  14.341  11.084 -0.1911 -0.1654  0.3659
25202W        W41676   5.695  10.912  11.996 -0.0002  0.0599 -0.0493
25203W        W41677   5.276   4.125   0.727 -0.0589 -0.2990 -0.0480
25204W        W41678   6.922   8.406   3.591  0.2380 -0.2259  0.1791
25205W        W41679  18.986   7.766  12.019 -0.5906 -0.1959 -0.1758
25206W        W41680   4.735  15.193  13.417 -0.1619 -0.0356 -0.1455
25207W        W41681  19.404  11.346   5.293 -0.1633  0.0594 -0.3072
25208W        W41682  18.084  11.214  11.177  0.0749  0.0132  0.0282
25209W        W41683   2.479   6.266   4.952 -0.0604  0.1449 -0.2035
25210W        W41684   7.914  17.013   1.884 -0.0902  0.1743  0.1937
25211W        W41685   4.658   6.108  12.222 -0.1849 -0.1243 -0.1363
25212W        W41686   4.220   8.690   1.017 -0.0417 -0.0320 -0.0008
25213W        W41687  11.015  16.352   1.372  0.1210  0.1955  0.1064
25214W        W41688   3.569  11.616  13.693  0.2937  0.0620  0.3957
25215W        W41689  13.823   3.456  13.382  0.0319  0.0581  0.0361
25216W        W41690   0.351   6.896   3.777  0.3972  0.0601 -0.0593
25217W        W41691   5.762   8.819  13.813  0.2237 -0.1995  0.0637
25218W        W41692   9.700   3.656   1.801  0.0195 -0.2176 -0.0601
25219W        W41693   9.815  14.500  11.000 -0.2107  0.2150  0.0407
25220W        W41694  19.554  17.315  11.064 -0.2187  0.0684 -0.1015
25221W        W41695  15.658  18.211  10.669 -0.1259 -0.2045 -0.2085
25222W        W41696  17.699   8.346   2.870  0.0358  0.0378 -0.1457
25223W        W41697   0.577  17.437  10.442  0.0263  0.1076 -0.2227
25224W        W41698  12.731  13.675  11.943  0.2281 -0.1767  0.1372
25225W        W41699   5.525   9.241  13.646 -0.0159 -0.0869 -0.2832
25226W        W41700  10.744  13.412   2.218  0.2659  0.0465 -0.1545
25227W        W41701   0.486  13.960  10.189  0.1063 -0.2036  0.0312
25228W        W41702  19.168   5.110  11.792  0.1475  0.1604  0.2921
25229W        W41703  12.361  16.760  10.144 -0.2346 -0.1759  0.0229
25230W        W41704  17.046   2.889  12.059 -0.0684 -0.0944  0.2167
25231W        W41705   1.724   4.145  14.050 -0.3715  0.1131 -0.0549
25232W        W41706   1.647   7.429   1.291 -0.0850  0.0733 -0.0925
25233W        W41707   3.916  17.380   9.852 -0.3828  0.0260 -0.0757
25234W        W41708  16.392   1.356  13.110  0.4028 -0.0279  0.0368
25235W        W41709   0.530   5.830  11.407 -0.2072 -0.2886 -0.1903
25236W        W41710  17.648   9.529   2.706  0.3133 -0.1982  0.2202
25237W        W41711   5.564  18.453  11.276 -0.2438 -0.6372  0.0466
25238W        W41712   3.638   8.727   0.515 -0.1124  0.1937  0.1218
25239W        W41713  13.737  14.708  10.033  0.2407  0.1570 -0.2707
25240W        W41714   2.653  16.312   3.211 -0.1338 -0.0264 -0.0798
25241W        W41715   9.390   1.067  13.210  0.2272 -0.4744 -0.3163
25242W        W41716  17.960  19.175  14.552  0.3057  0.0445  0.2093
25243W        W41717  17.470   7.643   0.732  0.0245 -0.2383  0.1967
25244W        W41718  16.100  12.700   3.195 -0.1052 -0.2662  0.4016
25245W        W41719   8.177  15.885  13.694 -0.0441  0.0782 -0.1513
25246W        W41720   2.612   9.905   2.555  0.0228 -0.0037 -0.0454
25247W        W41721   7.932  16.184  13.375  0.1193 -0.1418  0.1394
25248W        W41722  14.594   2.143   4.097 -0.0759  0.0738  0.1181
25249W        W41723  10.765   4.362   2.693 -0.1028 -0.0735  0.1310
25250W        W41724  12.717  14.341  13.242 -0.4071 -0.0173 -0.1742
25251W        W41725   5.643  17.795   4.762 -0.2930  0.0545 -0.0860
25252W        W41726   5.787   7.830  10.995 -0.0778 -0.1704 -0.0813
25253W        W41727   1.842  15.322   0.770  0.0449 -0.4140 -0.0223
25254W        W41728   5.091  12.792   2.338 -0.0216  0.3805  0.0369
25255W        W41729  18.720   5.624  13.986  0.1923  0.1223  0.2892
25256W        W41730  15.946  16.002   4.228 -0.1885  0.3538 -0.1582
25257W        W41731   8.126   8.328   0.023 -0.2352  0.2473  0.1575
25258W        W41732  14.338   3.399  11.886 -0.0857  0.2024  0.0048
25259W        W41733   0.370   7.558   9.933  0.2590  0.1802  0.0297
25260W        W41734   1.495   0.878   0.244 -0.1446  0.1790  0.0741
25261W        W41735   4.926   3.253   2.564  0.3138 -0.0911 -0.1030
25262W        W41736  16.664   6.864  13.921 -0.0493 -0.4117  0.1880
25263W        W41737  14.594   1.443  13.088 -0.2771  0.0080  0.0980
25264W        W41738   4.695   7.170   1.454  0.0824 -0.3694 -0.2709
25265W        W41739   7.892   0.215  13.709 -0.0245  0.0853  0.0907
25266W        W41740  14.505   5.553  12.942  0.1518  0.0936  0.1601
25267W        W41741   8.797   1.316   2.272 -0.1344  0.0213  0.0096
25268W        W41742   2.927  15.299  12.815 -0.0726 -0.4736 -0.3074
25269W        W41743  12.055   4.125  12.391 -0.2150  0.1095 -0.0033
25270W        W41744  17.076  18.624   4.020 -0.4210  0.2538 -0.1026
25271W        W41745  16.316   2.463   4.404 -0.3178  0.1616 -0.0524
25272W        W41746   8.930   9.175   2.280  0.1203  0.3696  0.2025
25273W        W41747   5.801  18.875  11.317  0.2437  0.0664 -0.0950
25274W        W41748   3.794   4.164  14.605 -0.0220  0.2186 -0.0043
25275W        W41749  14.168   0.218   0.915 -0.2867  0.0469  0.1217
25276W        W41750  11.494  10.921   4.333 -0.1342 -0.2060  0.1436
25277W        W41751   4.735  10.177   2.687 -0.0365 -0.0153 -0.2374
25278W        W41752   2.173  17.065   2.044 -0.0422  0.0136  0.0993
25279W        W41753   3.085  18.311   1.647 -0.1047 -0.2300 -0.1485
25280W        W41754  17.840   8.468   3.846  0.1230  0.0119 -0.3544
25281W        W41755  13.223   1.160  14.131  0.2110  0.2588  0.0954
25282W        W41756   4.492   8.796   3.868 -0.1493  0.0675 -0.0573
25283W        W41757  12.652   5.875  10.880  0.1494 -0.0506 -0.1640
25284W        W41758  10.651   2.325  14.393  0.1827 -0.0808  0.0275
25285W        W41759   0.454  13.158   0.079  0.2145 -0.1674  0.0770
25286W        W41760  13.152  10.750   5.018  0.0092  0.2298 -0.1903
25287W        W41761  10.834   8.710   4.117 -0.0965  0.1953 -0.3152
25288W        W41762  18.676  16.906  11.822  0.2836  0.0308  0.1607
25289W        W41763   9.473   3.820  12.066  0.0889  0.5281  0.0749
25290W        W41764   7.166   9.957   5.381 -0.1854 -0.0098  0.0826
25291W        W41765  11.455   4.996  11.191  0.0765 -0.0934  0.2039
25292W        W41766  13.934  16.465   1.851  0.0390 -0.0989 -0.1004
25293W        W41767   5.303  15.498   3.278 -0.2105  0.1015 -0.3063
25294W        W41768   5.173  10.210   1.162  0.3293  0.3503  0.3934
25295W        W41769  17.814  13.267  12.795  0.0299  0.1137  0.2880
25296W        W41770   7.807   2.263  10.329  0.0253  0.1842  0.0112
25297W        W41771  11.422  16.762  12.167  0.2027  0.0173 -0.0978
25298W        W41772   3.876  18.629   4.422  0.0120  0.0597  0.0986
25299W        W41773  15.113   1.028  10.263  0.0583 -0.0833  0.2423
25300W        W41774  18.247   5.604   3.774 -0.0681 -0.0141  0.2443
25301W        W41775  10.142  18.168  13.958  0.2147  0.0543 -0.2235
25302W        W41776   1.264   7.661  12.064 -0.0127 -0.1400  0.1215
25303W        W41777   4.235  18.901   0.463  0.0994  0.4343  0.0677
25304W        W41778  14.922   9.868  12.470 -0.1952  0.0354 -0.2680
25305W        W41779   1.174   1.117  13.428 -0.1399  0.1529  0.0944
25306W        W41780   2.759   9.834   0.370 -0.1066  0.3989  0.2432
25307W        W41781   4.018  14.748  12.836 -0.3532  0.0996 -0.1797
25308W        W41782  14.451   4.498   3.760  0.1651 -0.1602  0.0376
25309W        W41783  14.908   8.113  10.943 -0.0418  0.3091  0.2862
25310W        W41784   8.385   6.521   9.610 -0.2610 -0.1003 -0.1002
25311W        W41785   9.849  12.468  12.020 -0.3244 -0.2782  0.0056
25312W        W41786  15.788   9.458  12.750  0.0019  0.0265  0.4606
25313W        W41787   4.996  13.438   0.936 -0.0521  0.0229  0.0565
25314W        W41788   1.252  13.412   1.938  0.1427 -0.6082  0.0308
25315W        W41789   7.033   3.888  13.068  0.0172  0.2143 -0.2400
25316W        W41790   9.708  14.202  14.480  0.1588  0.3169  0.1786
25317W        W41791   9.727   9.113   2.607  0.0185  0.1487 -0.4359
25318W        W41792  16.308   0.253  10.832 -0.0508  0.3060 -0.2069
25319W        W41793   7.678   3.783   4.188  0.0459 -0.0246 -0.1758
25320W        W41794   0.889  11.962   4.422  0.1454 -0.0628 -0.2533
25321W        W41795  12.644   5.771   2.596 -0.0304 -0.1195 -0.2957
25322W        W41796  12.792   1.873  12.132 -0.1256  0.1955 -0.1186
25323W        W41797   5.339  18.220   1.813  0.1968  0.0026 -0.2322
25324W        W41798  14.792   9.612  14.606 -0.1639  0.0835 -0.0459
25325W        W41799   5.094  13.997  12.714 -0.1505  0.1005  0.1186
25326W        W41800  11.403   3.140   4.633  0.0104  0.1071  0.1700
25327W        W41801   7.372   1.340  12.743 -0.0832 -0.1255  0.0563
25328W        W41802  17.537  16.575  14.207 -0.0632 -0.2005  0.3901
25329W        W41803   4.475   6.956  11.741 -0.1700 -0.2072  0.1576
25330W        W41804  12.089  18.969   4.415 -0.2255 -0.2251  0.0305
25331W        W41805  17.256   2.012   3.840 -0.1411 -0.2542 -0.0655
25332W        W41806   9.116  17.574  11.753  0.3046  0.0080  0.2156
25333W        W41807   4.501  11.423   2.819 -0.0495  0.2738 -0.3171
25334W        W41808   6.055   9.170  14.041  0.0014 -0.0935  0.1787
25335W        W41809  10.656   4.231   3.261  0.2855  0.0519 -0.2785
25336W        W41810   1.062  16.789   3.946  0.0504 -0.0644 -0.1112
25337W        W41811  11.681  17.336   0.062 -0.0282 -0.3799 -0.2583
25338W        W41812  13.903  13.993   2.069 -0.0838 -0.0572 -0.2657
25339W        W41813   0.430   8.049   1.595 -0.1022 -0.2686  0.0951
25340W        W41814   8.465   1.529   1.435 -0.3168  0.1256  0.1202
25341W        W41815  15.805  16.415   0.086  0.1372 -0.2820  0.0663
25342W        W41816   9.304   6.610   5.149 -0.0021  0.0296 -0.1207
25343W        W41817  16.553   3.928   4.959 -0.0531 -0.0909 -0.0327
25344W        W41818   5.537  17.201   2.243  0.0119 -0.1993  0.0454
25345W        W41819  16.235   4.084   1.858 -0.2416  0.2846 -0.1282
25346W        W41820   6.202   1.601   3.195 -0.0675  0.5252 -0.1201
25347W        W41821   5.447   1.841  12.004 -0.0231  0.1810  0.2789
25348W        W41822  13.051  18.016   1.757  0.2542  0.3398  0.1117
25349W        W41823   9.785   3.232  10.946 -0.0351 -0.0109  0.3208
25350W        W41824   8.302  19.189  14.661 -0.1007  0.0676 -0.2591
25351W        W41825  18.879   8.353   0.760 -0.1704  0.1417  0.2189
25352W        W41826   2.544   9.261   1.949  0.0133 -0.6180 -0.4069
25353W        W41827  16.794   6.401  13.902 -0.1814  0.1137  0.3585
25354W        W41828  17.585  14.004   0.465 -0.1413  0.0261 -0.1163
25355W        W41829  17.958  12.718  11.268 -0.0022  0.3204  0.0342
25356W        W41830   1.663  16.024   0.052  0.0647  0.1448  0.0880
25357W        W41831  12.369  14.888   5.094 -0.3317  0.1075 -0.1752
25358W        W41832   7.439   5.811  14.227  0.4849 -0.0837  0.2690
25359W        W41833  12.231   0.243  10.899 -0.2180 -0.1003 -0.0420
25360W        W41834   5.485   4.806   4.548 -0.1266 -0.2559 -0.0630
25361W        W41835   9.241   7.811   4.526 -0.0855  0.3118  0.1460
25362W        W41836   0.487  17.739   2.586 -0.2447  0.1785  0.1420
25363W        W41837   7.765  16.118  13.936 -0.0175  0.3100  0.0962
25364W        W41838  11.141   3.895  13.246  0.0060 -0.1942  0.1002
25365W        W41839   2.181   9.509   4.362 -0.2524 -0.0991 -0.1984
25366W        W41840  19.073  13.948   1.905 -0.2252  0.0599 -0.1834
25367W        W41841  10.509  15.915   4.077  0.1858 -0.1048 -0.1820
25368W        W41842  10.496  12.271   2.448 -0.0007 -0.0184  0.0153
25369W        W41843  12.555  12.796   1.761  0.2017 -0.2484 -0.0597
25370W        W41844  18.875   3.967   0.378  0.0458  0.1666  0.0201
25371W        W41845  13.229  17.951  11.832  0.0076 -0.0221 -0.2004
25372W        W41846   3.939   7.989   5.628 -0.1408  0.1743 -0.0505
25373W        W41847  13.721  19.567   4.048 -0.0460  0.1713  0.1396
25374W        W41848   0.395   3.115  13.406 -0.1348  0.0488  0.2462
25375W        W41849   0.507   3.086   2.263  0.1162 -0.0423 -0.0000
25376W        W41850  10.647   0.083   5.605  0.1363 -0.1806  0.0410
25377W        W41851   7.146  10.558   3.977 -0.1056  0.1979  0.0706
25378W        W41852   3.266   3.611   2.092 -0.1503 -0.3685  0.2615
25379W        W41853  12.909  16.038   4.693 -0.0333  0.0561 -0.2261
25380W        W41854  12.306  11.040   1.310 -0.1591 -0.1375 -0.1622
25381W        W41855   9.097  15.578  12.339  0.1331  0.1889 -0.1401
25382W        W41856  11.996  11.863  10.297 -0.1994  0.2115 -0.0676
25383W        W41857  15.005  14.335   1.792 -0.2538  0.0324 -0.0763
25384W        W41858   6.242  18.326   2.832 -0.2050 -0.1227 -0.1615
25385W        W41859   0.909   6.866   3.590  0.5289 -0.0017  0.4768
25386W        W41860  14.261   7.673  14.601  0.1341  0.1167 -0.3160
25387W        W41861  18.292  17.819   2.196 -0.2110  0.0854  0.2691
25388W        W41862   8.136  15.252  14.399  0.3710  0.1075  0.1798
25389W        W41863   6.553  19.019   4.624  0.1678 -0.2057 -0.1501
25390W        W41864  13.772   6.781   2.829  0.1131  0.2472 -0.2707
25391W        W41865  10.253  18.477  13.006  0.1744  0.0388  0.1742
25392W        W41866   1.101   9.888   2.549 -0.2893 -0.3315  0.0087
25393W        W41867  10.537  13.968   0.994 -0.1827  0.1386  0.2428
25394W        W41868  17.758  11.525   9.883 -0.1220  0.0143 -0.1864
25395W        W41869   9.875  15.628   2.989  0.0594  0.0484 -0.0552
25396W        W41870  18.535  17.527  13.281  0.1568  0.2137  0.2072
25397W        W41871   3.654   4.887   1.320 -0.1910  0.1063 -0.2571
25398W        W41872   0.612   5.653   2.201  0.0228 -0.2829 -0.2758
25399W        W41873   2.051  18.704  10.064 -0.0759 -0.0123  0.3384
25400W        W41874  12.658   9.971   2.594 -0.1319 -0.0008  0.2392
25401W        W41875  13.794  14.987   0.030 -0.0141 -0.1478 -0.5071
25402W        W41876  11.832   3.079   0.399 -0.0456 -0.2512  0.2906
25403W        W41877  17.178   9.557   4.020 -0.1789  0.1371 -0.1968
25404W        W41878   2.651   2.834  13.268  0.3049  0.0808 -0.1180
25405W        W41879  11.166  14.580  12.504  0.2139 -0.1827 -0.1473
25406W        W41880  19.333  14.588   4.891 -0.2095 -0.1655 -0.2730
25407W        W41881   4.331  15.595  12.014 -0.2181  0.2553 -0.0064
25408W        W41882   7.354  15.580  11.956 -0.1325  0.3487 -0.0914
25409W        W41883   3.467   8.602   0.965 -0.0560  0.0056 -0.2949
25410W        W41884  19.010  17.334  12.085  0.0535 -0.0515  0.0807
25411W        W41885  14.028  16.640  11.111 -0.0482 -0.2256  0.0923
25412W        W41886   2.293   4.153  12.373 -0.0693  0.0558 -0.3378
25413W        W41887  10.259   7.903  13.427 -0.2362 -0.1839  0.1401
25414W        W41888  11.875  17.872   3.030 -0.0889 -0.3264 -0.0748
25415W        W41889   2.298   9.817   0.741 -0.2680 -0.0558  0.1303
25416W        W41890  18.872  14.902   1.454  0.1004  0.1535  0.0124
25417W        W41891   0.911  14.136  11.160 -0.0677  0.0708  0.3448
25418W        W41892  19.547   9.829   4.725  0.1123 -0.3955  0.4011
25419W        W41893   6.474   6.939   1.844 -0.2182  0.3315 -0.1182
25420W        W41894   3.584  12.273  11.944  0.0774  0.1088 -0.0410
25421W        W41895   7.117  10.996  13.227  0.1881  0.0218 -0.2296
25422W        W41896  14.416   5.632  10.670  0.2813 -0.0925 -0.2660
25423W        W41897  19.007  11.684  10.612 -0.1619 -0.2606 -0.0785
25424W        W41898  18.774   8.140  11.635  0.2192  0.3507  0.0662
25425W        W41899   7.511   2.194  13.502  0.0630 -0.3741  0.2247
25426W        W41900   5.528   9.743   3.180 -0.2329  0.4602 -0.2122
25427W        W41901   3.618   1.643   4.277 -0.2190  0.1284  0.1674
25428W        W41902  19.099   9.178  11.918 -0.2864 -0.2686  0.1659
25429W        W41903   3.805  11.399   3.386  0.3216  0.3533  0.1578
25430W        W41904  16.073  18.157   3.047  0.1735  0.4891  0.0204
25431W        W41905  18.927  17.680  14.506 -0.1688  0.0356 -0.4205
25432W        W41906   5.794  18.634   4.976 -0.0776 -0.1762 -0.1650
25433W        W41907  17.853  10.658   9.974 -0.3096  0.3165  0.3966
25434W        W41908   0.149  11.652   0.455  0.0582 -0.2108 -0.0396
25435W        W41909  18.426   0.741  13.586  0.0952 -0.3045 -0.1730
25436W        W41910   8.617  16.461   4.986 -0.1801 -0.2063  0.1100
25437W        W41911  17.795   8.263  11.235 -0.1840  0.0800  0.2227
25438W        W41912  10.613   1.917  13.721 -0.2577  0.4272  0.2690
25439W        W41913   3.356  11.800  12.520 -0.1130  0.1628  0.0863
25440W        W41914  12.862   0.170   4.142  0.3213 -0.0672 -0.2284
25441W        W41915  12.873   5.090  11.974  0.3464 -0.0998  0.1887
25442W        W41916  16.041  12.491   2.680  0.0161  0.0390  0.0423
25443W        W41917   6.970   1.036  14.015 -0.1673 -0.0692  0.1060
25444W        W41918   5.842   1.251   2.154  0.2726  0.2538  0.0229
25445W        W41919   6.257   9.721   3.780  0.1838  0.0099 -0.2166
25446W        W41920   7.315   5.090  13.491 -0.0474 -0.1236  0.0237
25447W        W41921  15.190   4.405   0.744  0.3198 -0.3689 -0.2729
25448W        W41922   6.340   6.211   3.579 -0.1612  0.0243 -0.0668
25449W        W41923  14.934  16.812   0.587 -0.1264 -0.0990  0.3266
25450W        W41924  13.098  10.102   1.476 -0.1695  0.3004 -0.2403
25451W        W41925   0.652  16.620   3.556 -0.3726 -0.3770 -0.0673
25452W        W41926  11.558  16.478   1.919 -0.2668  0.0534 -0.0386
25453W        W41927  10.453  11.761   1.250  0.2769  0.0857 -0.2277
25454W        W41928   2.915   3.784  11.190 -0.1616  0.0274  0.1284
25455W        W41929   0.058   9.345   1.915  0.3710  0.0572  0.2005
25456W        W41930  17.447   8.195  12.519 -0.0462 -0.1468  0.5643
25457W        W41931  13.729   8.243   4.514  0.2537  0.2256  0.0375
25458W        W41932  12.609   7.997   5.159  0.0192 -0.1883  0.2421
25459W        W41933  13.929  11.351   4.468  0.0971  0.4641  0.0140
25460W        W41934   9.564  12.489   1.989 -0.0014 -0.0978 -0.2924
25461W        W41935   8.728  15.547   1.630 -0.0532 -0.2724 -0.1221
25462W        W41936   9.970   6.223  12.922 -0.3136 -0.0069  0.1137
25463W        W41937  17.045  11.161   1.962  0.2709 -0.0376  0.2616
25464W        W41938   9.284  19.010   0.248 -0.2921 -0.2268  0.0250
25465W        W41939   1.674   5.304  11.253 -0.0333  0.2763 -0.0060
25466W        W41940   2.415   4.321   2.151  0.1087  0.1503  0.3075
25467W        W41941   7.467   0.099   2.997 -0.0410 -0.2636  0.0556
25468W        W41942   7.346   4.727   4.666  0.1704  0.1457 -0.1062
25469W        W41943   6.127   4.570   2.853 -0.2628 -0.0742  0.3726
25470W        W41944   8.207  11.444  10.362  0.2127  0.4721 -0.1310
25471W        W41945  13.027   9.433   2.200 -0.1685 -0.2333 -0.1118
25472W        W41946  17.415  15.820  12.115 -0.1532  0.2457 -0.1952
25473W        W41947  16.416  17.001  10.455  0.1331 -0.1092  0.2601
25474W        W41948   2.029  10.174  14.574 -0.1522 -0.3462  0.0410
25475W        W41949  10.632   3.912  12.498 -0.0241 -0.2010 -0.0216
25476W        W41950   5.944  13.795   4.950 -0.2648  0.1351 -0.0184
25477W        W41951  13.295   2.276  11.043 -0.2295  0.1902  0.0341
25478W        W41952   8.523   7.034  13.088  0.0749 -0.1050  0.1057
25479W        W41953   3.414  12.702  12.150 -0.0269 -0.0550  0.4838
25480W        W41954   1.985   6.303  10.420 -0.2481 -0.0235  0.0798
25481W        W41955   4.058  15.346   3.889 -0.1511 -0.0318  0.2146
25482W        W41956  19.046  13.158  12.830 -0.0349 -0.3158 -0.1440
25483W        W41957  17.259   2.184  13.042  0.2305 -0.1032 -0.2294
25484W        W41958  11.129   4.543   0.918 -0.0375  0.1794 -0.1245
25485W        W41959   3.551  15.001   0.298  0.1720 -0.3665  0.1741
25486W        W41960  11.635  14.596  12.715 -0.1956 -0.1818 -0.1817
25487W        W41961   1.517  12.544   4.573 -0.0466  0.0055 -0.0027
25488W        W41962   8.496   7.273  10.303 -0.2245  0.1213  0.0170
25489W        W41963   6.371  16.947   1.744 -0.1453 -0.0160 -0.1544
25490W        W41964   8.002   7.817   9.802  0.1783  0.1890  0.1132
25491W        W41965  16.264   8.720  11.120  0.1743 -0.0014 -0.3114
25492W        W41966  11.752  18.502   1.492 -0.3531  0.0875 -0.3577
25493W        W41967   8.072  10.035  12.746  0.3568 -0.1003 -0.1566
25494W        W41968  16.293  11.294  11.749 -0.1197  0.3245 -0.2413
25495W        W41969  18.462  16.593  14.406 -0.4518  0.1577 -0.1393
25496W        W41970   2.185   4.497   4.365  0.1942  0.0448  0.3185
25497W        W41971   9.627  11.314   3.376 -0.0581 -0.1321 -0.1502
25498W        W41972  10.827  19.394   0.536  0.1506 -0.2076  0.0165
25499W        W41973   8.975   0.307   0.325 -0.0184 -0.0643  0.2148
25500W        W41974   8.305   0.173   4.578  0.0273  0.0179  0.0586
25501W        W41975   6.278   4.737   0.827  0.0204  0.0122  0.1072
25502W        W41976  17.395   9.886  10.612 -0.1041 -0.0796  0.1725
25503W        W41977  15.983   0.417  12.009 -0.2137  0.0172 -0.0427
25504W        W41978   9.800  19.431   2.092  0.3130 -0.2464 -0.3551
25505W        W41979  15.520  11.400  14.051 -0.0705  0.1416  0.1482
25506W        W41980  18.546  17.063   3.932 -0.0947  0.0021 -0.3005
25507W        W41981   3.978   5.501   2.525 -0.0687  0.3230 -0.2294
25508W        W41982   4.082  11.018  11.496 -0.2043  0.2352 -0.0719
25509W        W41983  10.630  16.419  12.934  0.3033  0.0923  0.1026
25510W        W41984   7.322   7.879   1.410 -0.0342 -0.0847 -0.1250
25511W        W41985   0.768  11.852   2.950 -0.4124  0.2340  0.1113
25512W        W41986   8.509   1.727  12.945  0.0829 -0.0429  0.0525
25513W        W41987   8.932   0.705   3.764 -0.0040 -0.1927  0.1974
25514W        W41988   6.349  11.300   5.243  0.0468  0.2075 -0.0093
25515W        W41989  17.455   8.306   2.286 -0.0792  0.4838  0.3073
25516W        W41990  15.689   9.015   4.980  0.0741  0.3224  0.1347
25517W        W41991   3.151   7.062  10.461 -0.2764 -0.1933 -0.1020
25518W        W41992  12.480  13.846   2.462 -0.0733 -0.2230 -0.0623
25519W        W41993  11.102  18.678  12.123  0.3131  0.1332 -0.0322
25520W        W41994  15.948  11.138   0.711 -0.1176  0.1460 -0.2188
25521W        W41995  17.054   6.590   3.520 -0.0468 -0.1429 -0.0806
25522W        W41996   7.639   8.353  11.488 -0.0920  0.1159  0.0565
25523W        W41997   6.342   0.483   2.514  0.0297 -0.1564 -0.2856
25524W        W41998  19.384   7.348   1.952 -0.1185 -0.0726  0.0178
25525W        W41999  16.813   6.705   0.421  0.3454  0.0228 -0.2969
25526W        W42000  13.062   6.397   1.794  0.0261 -0.1710 -0.1325
25527W        W42001  16.591   1.433   1.959  0.2078 -0.1345 -0.3278
25528W        W42002   3.314  17.327   2.303  0.1732 -0.0470 -0.1411
25529W        W42003  10.106  11.244   3.328  0.0098  0.1397  0.0577
25530W        W42004   6.814   5.807   1.282  0.0963 -0.1388  0.1196
25531W        W42005   6.530   7.948  13.766 -0.0753  0.0097 -0.1055
25532W        W42006   4.658   9.185  14.456  0.0788  0.1398  0.2172
25533W        W42007   1.762   5.796   2.751 -0.0842  0.1812  0.1399
25534W        W42008  15.374   9.609   2.716  0.0796  0.1465 -0.0297
25535W        W42009  18.615  13.913  14.146 -0.0760  0.0910  0.2598
25536W        W42010  11.516  19.083   0.011 -0.2767 -0.0443 -0.2008
25537W        W42011  12.192  16.631   1.787  0.0120  0.1119 -0.3644
25538W        W42012   8.362  15.768   4.430 -0.1501 -0.1295  0.4319
25539W        W42013  16.859  13.502   4.561  0.0488 -0.2721  0.1422
25540W        W42014   7.322   7.936   0.901 -0.0483 -0.0711 -0.0673
25541W        W42015   9.148   2.874  10.551  0.1543 -0.0099 -0.0213
25542W        W42016   5.120  18.986  13.038 -0.1304  0.0192  0.1879
25543W        W42017  12.589   3.428  13.792 -0.1209  0.1650 -0.0494
25544W        W42018   1.814   2.306   5.295  0.0830 -0.0457 -0.0499
25545W        W42019  12.454  12.034  11.078  0.0825  0.0648  0.0035
25546W        W42020  18.703  13.017  13.188 -0.0765 -0.2127  0.1453
25547W        W42021   6.896   4.646   3.516  0.0721 -0.1131 -0.1000
25548W        W42022  18.786  15.519   0.685 -0.4522 -0.0430  0.1019
25549W        W42023   3.990   0.205  13.242  0.1723  0.2047 -0.4949
25550W        W42024  13.575   8.252  12.811 -0.2000  0.1603  0.3089
25551W        W42025   8.647  15.280  13.155  0.1706  0.0681 -0.5377
25552W        W42026   7.173  18.418   2.636  0.2146  0.1712  0.0991
25553W        W42027   4.250   3.998  12.134  0.1965 -0.1007 -0.0226
25554W        W42028   2.754   1.578  11.888 -0.0630 -0.3412  0.1138
25555W        W42029   0.709   0.463   1.776  0.1986  0.3961  0.3031
25556W        W42030   6.424   2.420  12.660 -0.1771  0.0617 -0.1877
25557W        W42031   6.941   2.531   0.849 -0.3549  0.0828 -0.2982
25558W        W42032  14.167  13.904   4.658  0.0617 -0.0407 -0.0162
25559W        W42033   9.873   2.350  13.104  0.3513  0.1284 -0.1145
25560W        W42034   4.726   1.469  10.659  0.2173 -0.0161 -0.0435
25561W        W42035   0.201   0.772   4.451 -0.0798 -0.3175  0.1700
25562W        W42036   6.682   0.670   2.246  0.0399 -0.0083  0.0399
25563W        W42037   2.742   7.163   0.986 -0.0235  0.1969 -0.1754
25564W        W42038  11.596   0.180   0.185 -0.0850 -0.1074 -0.1692
25565W        W42039  13.602  19.305   1.534 -0.1563 -0.0512 -0.2160
25566W        W42040   6.565   1.318  13.833  0.0966 -0.1284  0.2152
25567W        W42041   2.684  15.533   3.019 -0.0680  0.1036  0.3080
25568W        W42042   2.826   7.095   2.176 -0.0718 -0.0519  0.0377
25569W        W42043  19.006   0.100   2.110  0.0982  0.1958  0.3788
25570W        W42044   8.760  17.743   3.090 -0.3236 -0.1020  0.2942
25571W        W42045  10.527  18.742   1.595  0.1805 -0.1074  0.2285
25572W        W42046  12.219   9.796   9.127  0.0868 -0.2981  0.2723
25573W        W42047  17.211  12.777  11.374  0.0021 -0.2297  0.1517
25574W        W42048   5.026  14.131   2.101 -0.0871  0.1209 -0.0582
25575W        W42049   6.470   7.958   4.084  0.0920 -0.1348  0.2468
25576W        W42050  17.838   6.818   2.973 -0.2052 -0.0439  0.2665
25577W        W42051   8.656  14.409  11.032 -0.1169  0.1962  0.0875
25578W        W42052  17.357   1.291  13.058  0.5937  0.0909 -0.2436
25579W        W42053  18.932  11.200  12.915  0.0736  0.1628  0.0368
25580W        W42054  10.761  12.116   4.452 -0.1895  0.1417 -0.2562
25581W        W42055   7.907   9.814   4.743 -0.1751  0.0294 -0.0071
25582W        W42056   1.592   2.784   0.935  0.0548 -0.0678 -0.0374
25583W        W42057   5.010   4.776  13.225  0.2410  0.1564 -0.0358
25584W        W42058   5.525   9.997  14.406  0.0110  0.1256  0.4226
25585W        W42059   4.061  16.881   4.900  0.0755 -0.1047 -0.1259
25586W        W42060  17.718  19.311  13.116  0.1044 -0.1786  0.0558
25587W        W42061  15.908   9.956   4.864  0.1158 -0.0285 -0.3977
25588W        W42062   6.241  18.560  10.402  0.0608 -0.0522  0.0584
25589W        W42063  19.302   3.578  10.892 -0.1960  0.2092  0.1767
25590W        W42064   9.617  18.898  10.517  0.0066 -0.2121  0.1421
25591W        W42065   5.718  19.509  12.988 -0.1149 -0.1420 -0.0487
25592W        W42066  11.083  11.159  13.655 -0.2261  0.4259  0.1600
25593W        W42067  11.323  14.949  14.221  0.5939  0.0043  0.2372
25594W        W42068   7.362   1.138  11.390  0.0668  0.1862  0.0117
25595W        W42069   9.596  14.097   2.977  0.0108  0.1546  0.0168
25596W        W42070  16.905   7.298  12.153  0.1067  0.3109  0.0217
25597W        W42071  14.274   0.179   0.427  0.1987 -0.1828 -0.1799
25598W        W42072   8.790   5.479  12.125 -0.0024  0.0087 -0.0888
25599W        W42073  13.901   1.151   1.589  0.0155 -0.3181 -0.0707
25600W        W42074  12.592  11.346  13.849  0.0494 -0.0748 -0.1965
25601W        W42075  13.512   3.454   4.220 -0.0612  0.1302  0.0206
25602W        W42076  19.413   8.043   0.734  0.0018 -0.0988 -0.0011
25603W        W42077  12.531  11.169  14.630  0.1245  0.1879  0.0858
25604W        W42078   4.661   4.127  11.142  0.2894  0.4053  0.3420
25605W        W42079   8.713   0.668   2.863  0.1574 -0.0121  0.2136
25606W        W42080   3.324   6.331   1.987  0.2085  0.3366 -0.2084
25607W        W42081   4.962   4.834  14.140 -0.1910  0.0428 -0.3152
25608W        W42082  12.240   5.077  11.943  0.1200 -0.0394  0.3054
25609W        W42083   0.197   7.298  12.194 -0.0133 -0.0485  0.2243
25610W        W42084   8.221  12.064   4.146  0.0650 -0.2888 -0.2134
25611W        W42085   4.301   0.622   0.342  0.2895 -0.0420 -0.0552
25612W        W42086   7.067   4.421   9.861  0.1045 -0.0308 -0.2990
25613W        W42087  17.083   7.608   9.430 -0.0254 -0.1543  0.0608
25614W        W42088   0.117  16.324   4.724  0.4014 -0.0114 -0.1431
25615W        W42089   0.658  10.071   2.817  0.1208 -0.0760  0.0582
25616W        W42090   2.423   3.949  11.040  0.0133 -0.3567 -0.0175
25617W        W42091  12.308   2.580  10.768  0.0451  0.1560 -0.2939
25618W        W42092  10.065   7.606   3.135 -0.4098 -0.1333  0.2164
25619W        W42093  14.270   3.610  11.001 -0.0793 -0.0763 -0.1546
25620W        W42094  18.513  15.032  11.701 -0.0419 -0.0871 -0.0163
25621W        W42095  14.541  18.882   4.302 -0.0591 -0.2877 -0.0076
25622W        W42096   5.860  17.961  11.109  0.0248 -0.1114 -0.2990
25623W        W42097   5.128   9.139  13.305  0.1015 -0.0381  0.2786
25624W        W42098  13.830   5.425  14.282  0.0443  0.2448  0.0567
25625W        W42099  14.821  10.896   9.730  0.1185  0.0355 -0.1494
25626W        W42100   5.334   6.386   5.124  0.0367 -0.0033  0.1438
25627W        W42101   2.712   0.937   0.464 -0.0236  0.1004 -0.1358
25628W        W42102   4.123  18.454   1.162 -0.1958  0.5006 -0.3850
25629W        W42103   7.576   1.305   0.595  0.1284 -0.1815  0.1085
25630W        W42104  13.597  17.243  10.686 -0.0573 -0.5407  0.2161
25631W        W42105  11.236  13.671   1.752 -0.1556 -0.0309 -0.0791
25632W        W42106   6.146   8.680  10.159  0.1186  0.1837 -0.1421
25633W        W42107  17.500   5.994  11.964  0.1071 -0.2179 -0.2303
25634W        W42108  12.925  15.073  12.084 -0.2085  0.3770 -0.3487
25635W        W42109  11.012   0.332  11.606  0.1732 -0.3171  0.0962
25636W        W42110   0.612  15.793   1.240 -0.0050 -0.1248  0.0776
25637W        W42111  10.160  11.356  13.995 -0.0576 -0.3550  0.1994
25638W        W42112  13.123   6.565   2.774  0.0736  0.4408  0.1841
25639W        W42113  13.797  14.654  10.544  0.1520 -0.1042 -0.2307
25640W        W42114  12.680   5.677   2.070 -0.1218  0.0592  0.1970
25641W        W42115   9.054   0.909  12.836 -0.2807  0.1125  0.2357
25642W        W42116   8.896  17.343   3.903  0.0349  0.2521 -0.2456
25643W        W42117   0.107  14.397  13.532  0.2145  0.1653 -0.4920
25644W        W42118  14.660  13.030   1.796  0.3437  0.1451  0.0148
25645W        W42119   6.060   0.949   4.213 -0.1227 -0.0697 -0.0791
25646W        W42120   0.059   1.718  12.364  0.3320  0.2615  0.4299
25647W        W42121   0.517  17.251   2.447 -0.0884  0.1711 -0.0563
25648W        W42122   4.265   7.894  13.727 -0.3333 -0.0585  0.0531
25649W        W42123  13.981  18.198  12.631 -0.0749 -0.0978  0.1115
25650W        W42124  15.049  11.052  11.917  0.2498  0.5164  0.1123
25651W        W42125   7.381   1.230  14.318  0.2496  0.0220  0.0226
25652W        W42126  13.793   7.021  13.884  0.1291 -0.1309  0.0317
25653W        W42127   4.334   5.865  13.120 -0.1992 -0.1924  0.1846
25654W        W42128   0.316   0.459   0.650  0.1055  0.2306 -0.0612
25655W        W42129  18.437   1.531   5.001  0.0086  0.3503 -0.1101
25656W        W42130  17.699   0.115  12.434  0.0467  0.0058  0.0559
25657W        W42131  15.840   6.660   0.092 -0.1267  0.1652 -0.3106
25658W        W42132   0.896   6.715  14.561  0.2597 -0.0826  0.3093
25659W        W42133  14.116  19.186   1.663 -0.0523  0.1004  0.1919
25660W        W42134   4.938  19.234  11.744  0.0001  0.3228 -0.1301
25661W        W42135  13.411  15.969  13.101 -0.1323 -0.2361  0.3780
25662W        W42136  18.053  18.002  12.238  0.2495  0.0024  0.1595
25663W        W42137   9.375  12.808   4.231 -0.1282 -0.2070  0.7372
25664W        W42138   9.681   2.302   3.547 -0.2238  0.1745 -0.1578
25665W        W42139  10.303   2.034   3.972 -0.0330 -0.1008  0.1371
25666W        W42140   9.189   5.850  11.814 -0.0096 -0.0961  0.1006
25667W        W42141  19.488   5.038  14.313  0.1653  0.2583  0.2400
25668W        W42142   1.265  16.619  14.660 -0.1246 -0.0323 -0.0140
25669W        W42143  14.378  10.850   3.088  0.3380  0.0631  0.4802
25670W        W42144   4.437  10.022  11.889  0.0365  0.2859  0.2048
25671W        W42145  10.621  11.282  14.387  0.1395  0.1479  0.0577
25672W        W42146   1.263  15.550   0.572 -0.0713 -0.1744  0.0061
25673W        W42147   3.973   3.988   3.551 -0.1366 -0.1775 -0.1729
25674W        W42148   9.852   6.546  13.662  0.3190 -0.2230 -0.1459
25675W        W42149   7.946  13.934   3.166  0.0326 -0.2892  0.4267
25676W        W42150  10.417   7.138   0.626 -0.0293  0.0950 -0.2001
25677W        W42151   4.702   0.718   1.916  0.1448  0.0972  0.1562
25678W        W42152  19.135  18.101   4.194  0.1016  0.1599 -0.4862
25679W        W42153   4.490   9.636  13.641 -0.0664  0.0400 -0.1488
25680W        W42154   7.438   1.089   1.074  0.1673 -0.2203  0.0494
25681W        W42155  12.324  14.996  14.244 -0.1090 -0.0383  0.4198
25682W        W42156   6.979  18.009  10.186  0.2527  0.0555  0.1522
25683W        W42157  15.469   1.622  13.581  0.2082 -0.1436 -0.1329
25684W        W42158  18.536   3.181  11.102  0.1405  0.0561 -0.1744
25685W        W42159   1.349   5.171   3.455  0.6580  0.1294  0.0552
25686W        W42160   2.824  11.764   3.316 -0.1966 -0.0301  0.1685
25687W        W42161  13.358  17.988  13.787 -0.1472 -0.3324 -0.1108
25688W        W42162  19.472   5.075  12.283 -0.1887  0.1151 -0.0752
25689W        W42163  11.335   8.990   2.446 -0.0738  0.0255 -0.0483
25690W        W42164  15.283   4.936   4.769  0.1618 -0.2372 -0.0776
25691W        W42165  10.317   7.996  11.108 -0.0520  0.1545 -0.1079
25692W        W42166   7.886   0.144   3.357  0.0073 -0.1249  0.4106
25693W        W42167   0.064  18.356  14.272  0.2953  0.0852  0.1040
25694W        W42168  11.114   3.112   2.236  0.2203 -0.0408  0.0983
25695W        W42169  18.434  11.127   4.185 -0.0036  0.2810 -0.1478
25696W        W42170   3.971  15.874   2.973 -0.0460 -0.2182 -0.2999
25697W        W42171   8.513   6.718   4.509 -0.1143  0.0263 -0.1400
25698W        W42172   8.152  16.237   0.920 -0.2898 -0.1096 -0.3238
25699W        W42173   2.163  11.944  11.456  0.1504  0.0313  0.1261
25700W        W42174  10.455   6.020   3.294  0.1019 -0.0379  0.0253
25701W        W42175   1.216  17.549   0.879  0.0515 -0.1870 -0.0531
25702W        W42176  10.786   5.362  12.712  0.0975  0.2220  0.3116
25703W        W42177  18.345   5.263   0.738 -0.0148 -0.1133  0.0102
25704W        W42178   9.116  18.162  12.921  0.1614  0.0037 -0.0927
25705W        W42179  16.261   2.952  13.046 -0.0782 -0.1599 -0.0415
25706W        W42180  13.915   0.696  11.724 -0.0740 -0.2242  0.2058
25707W        W42181   3.514  18.342  10.836  0.1749 -0.0094 -0.0069
25708W        W42182  11.363  13.919  11.829 -0.0764  0.0309 -0.2823
25709W        W42183   6.005   2.192   9.782 -0.1964 -0.0507 -0.1537
25710W        W42184   1.845   4.061   0.595  0.2529  0.5642 -0.2331
25711W        W42185  16.905   6.783   2.519 -0.0111  0.1679  0.1315
25712W        W42186   6.570   8.804  10.743 -0.1344 -0.2175 -0.1935
25713W        W42187  12.111   6.177   0.388  0.0126 -0.1572  0.1072
25714W        W42188   9.160  13.472  14.183 -0.0423  0.2846  0.1257
25715W        W42189  11.110   9.453   2.330  0.1964  0.1999  0.1187
25716W        W42190   6.400   9.742   1.544  0.1456 -0.1105  0.0733
25717W        W42191   4.556   2.365  13.525  0.1045  0.1949  0.0079
25718W        W42192  12.215  15.479   4.371 -0.0685 -0.0661 -0.0403
25719W        W42193  14.976  19.045   4.143 -0.0443  0.0042  0.1514
25720W        W42194   7.108   6.085  12.633 -0.1377  0.1627 -0.0204
25721W        W42195   1.281   1.612   0.003 -0.0658  0.2139  0.1964
25722W        W42196   9.968  15.568   5.474  0.1435  0.3692 -0.0479
25723W        W42197   6.320  13.553  13.684 -0.1471 -0.1489  0.1833
25724W        W42198   9.563  14.705   2.005  0.1453  0.0361 -0.0921
25725W        W42199   0.421  15.800   3.062 -0.2684  0.2088 -0.3593
25726W        W42200  15.851  18.004  12.804  0.0199  0.0083  0.1652
25727W        W42201   7.582  16.267   4.563 -0.1036 -0.1144 -0.2004
25728W        W42202  14.595   5.995   0.694  0.0395  0.0756  0.0525
25729W        W42203  17.483  17.086  11.361  0.0903  0.2642 -0.0768
25730W        W42204   8.765  10.502   3.327 -0.1278 -0.1112 -0.0651
25731W        W42205   0.432  17.830  14.278  0.2589  0.2289  0.0786
25732W        W42206   4.534   9.140  12.817  0.0752  0.1110 -0.2108
25733W        W42207  12.288   4.911  10.793  0.0647 -0.2161  0.1855
25734W        W42208   5.023   8.272  12.065  0.2129  0.0503  0.2717
25735W        W42209  14.520  10.234   3.534 -0.1405  0.2130 -0.0465
25736W        W42210   9.316  10.621   3.359 -0.2833  0.1611 -0.1500
25737W        W42211  12.849  10.595   5.411 -0.0927  0.0591  0.1454
25738W        W42212   5.922  13.762  13.900 -0.1179 -0.1155  0.0421
25739W        W42213  17.684  15.933  11.059  0.1848 -0.3366  0.0560
25740W        W42214   9.543   6.984  12.978  0.1470 -0.2215  0.2488
25741W        W42215   9.293   3.301   1.848  0.0930  0.2884 -0.0202
25742W        W42216   6.604  19.170  11.597  0.2689  0.2881 -0.0410
25743W        W42217   8.563  10.804   1.632 -0.1123 -0.3014  0.1212
25744W        W42218   7.619  11.449   0.041  0.1240 -0.0133  0.1627
25745W        W42219   9.616   6.468  14.195 -0.0554  0.4198 -0.1898
25746W        W42220  16.265   2.162  11.984 -0.1775  0.2513  0.1614
25747W        W42221  10.900   7.194   3.668 -0.1102  0.2119  0.1593
25748W        W42222  17.439   0.938  12.718 -0.2142 -0.1432 -0.0555
25749W        W42223  17.771   2.349  12.182  0.0164  0.1015  0.0367
25750W        W42224   5.631  12.044  11.065 -0.0681  0.3823  0.0486
25751W        W42225   8.337   2.570   3.319 -0.0407 -0.2643  0.2652
25752W        W42226   5.701  18.469   3.582  0.2753  0.2292 -0.1575
25753W        W42227  11.038  12.742  12.347  0.0447  0.1976  0.1155
25754W        W42228  11.941   2.685   0.722 -0.1060  0.3297  0.0606
25755W        W42229   7.856  14.521   4.714  0.0267  0.4289  0.2854
25756W        W42230   4.074   1.234   9.551  0.0612 -0.1374 -0.2907
25757W        W42231  14.723   4.540   0.420  0.0518 -0.1825 -0.0990
25758W        W42232  12.385   0.801  12.198 -0.3046  0.0050  0.2659
25759W        W42233   3.126  10.039  14.048  0.2788  0.2794 -0.1556
25760W        W42234   6.875   5.499   5.163 -0.0627 -0.2492  0.0773
25761W        W42235   9.095   7.324   4.592 -0.1127 -0.0697  0.1993
25762W        W42236   1.377   9.723  12.089  0.1094  0.2861 -0.0234
25763W        W42237   3.166  12.544  10.358 -0.3847 -0.4298  0.1205
25764W        W42238  17.506  11.089   9.973 -0.1888  0.1579  0.0919
25765W        W42239  12.340   2.487   2.630  0.0379  0.2510  0.4051
25766W        W42240   4.433   5.799   9.903 -0.0063 -0.0091 -0.0425
25767W        W42241   4.980   7.521   3.384 -0.1467  0.2617 -0.1551
25768W        W42242   5.770  10.139  11.568  0.1315 -0.3604 -0.3057
25769W        W42243   7.122   6.852   0.463  0.0460 -0.3422 -0.2212
25770W        W42244  18.075   4.208  13.850  0.3286  0.1426  0.2996
25771W        W42245  11.081   9.011  13.814 -0.2009 -0.0544 -0.0894
25772W        W42246  14.678  16.401   1.478  0.0744 -0.2656 -0.0231
25773W        W42247   6.016   7.411  12.115  0.1638 -0.1225  0.1788
25774W        W42248  13.833   9.092  11.911 -0.1818  0.1770  0.0695
25775W        W42249  16.769   4.558   4.467  0.1290 -0.0422 -0.1068
25776W        W42250  16.957   7.903  13.269  0.1915  0.0826 -0.1362
25777W        W42251  15.594  11.094   3.169  0.0296 -0.1230 -0.2153
25778W        W42252   5.328  14.757   0.903  0.2511  0.1302 -0.0453
25779W        W42253   2.784  17.710  10.920  0.0490  0.0456  0.1670
25780W        W42254   5.887  14.275   3.557  0.1992  0.3070 -0.3664
25781W        W42255  15.766  18.419   4.266 -0.2456  0.2391  0.0601
25782W        W42256  15.512  13.672   5.103  0.2060 -0.0270 -0.0073
25783W        W42257  14.974   2.818   1.139  0.0672 -0.0827  0.4416
25784W        W42258  10.171  15.739   1.900 -0.0762  0.2210 -0.1368
25785W        W42259  17.507  17.747  14.629 -0.1164  0.0374  0.0687
25786W        W42260   5.937   8.726   0.158 -0.0421 -0.0609 -0.0148
25787W        W42261  17.578  10.661   2.125 -0.0460  0.4302 -0.0366
25788W        W42262  15.678   6.650  13.318  0.1487 -0.0068 -0.0492
25789W        W42263   6.086  10.655   4.336  0.0523 -0.1721 -0.0394
25790W        W42264  15.249   5.812   2.572  0.2098  0.2747 -0.0006
25791W        W42265  17.978   1.404   9.905 -0.3224 -0.1004 -0.1078
25792W        W42266   5.187  19.469  12.729  0.1508  0.1791 -0.2164
25793W        W42267  19.459  12.178   3.138  0.1780 -0.3176 -0.0306
25794W        W42268   1.981  17.851   4.760  0.4144  0.5029 -0.0676
25795W        W42269  10.386   3.431  13.540  0.0756  0.1822 -0.0957
25796W        W42270  18.731  11.995  10.041  0.0055  0.0949  0.1327
25797W        W42271   4.261   0.537   1.712  0.0306 -0.1413  0.0999
25798W        W42272  13.823  15.471   1.403 -0.1633  0.3665 -0.1846
25799W        W42273  12.517  12.688   0.815  0.0936 -0.1006  0.1490
25800W        W42274   3.990  15.306  10.795  0.2492 -0.1106 -0.0002
25801W        W42275   5.542   6.274   2.353  0.2510 -0.1739  0.2298
25802W        W42276   3.206   9.026   4.114  0.0555  0.3425  0.0110
25803W        W42277   6.845   7.724  11.480  0.0650  0.1349  0.1508
25804W        W42278   4.529  18.015   4.570  0.2085 -0.0494  0.2939
25805W        W42279  13.899   1.086  12.183 -0.0880 -0.1304 -0.1934
25806W        W42280   6.451   3.288  14.494 -0.0677  0.1985  0.0795
25807W        W42281  10.046  15.924   9.973  0.1286 -0.1666 -0.0069
25808W        W42282   5.119  14.384  14.549 -0.3091 -0.0908  0.0237
25809W        W42283   9.993  17.543  11.333  0.1843 -0.1001  0.0814
25810W        W42284  10.997  13.062   1.943  0.0943  0.0085  0.0644
25811W        W42285   0.991  13.469   1.441 -0.0190  0.3635 -0.1231
25812W        W42286  12.362  16.720   0.466 -0.3993  0.1038 -0.2169
25813W        W42287  12.693  16.221   5.960 -0.2243  0.4420  0.1837
25814W        W42288   3.324  17.639   4.368 -0.3279 -0.3415  0.1962
25815W        W42289   1.037   0.143  10.217  0.1563 -0.2817 -0.3009
25816W        W42290  15.115  12.437   3.859 -0.0492 -0.0160 -0.0079
25817W        W42291   3.898  13.785  12.773 -0.0254 -0.0624  0.1310
25818W        W42292  11.926   1.004   5.371 -0.0129 -0.4773 -0.2950
25819W        W42293   7.218   7.158   1.474 -0.1725 -0.2017 -0.2626
25820W        W42294  14.906   9.109   0.182  0.0284  0.3134  0.1303
25821W        W42295   6.427  19.568  10.295  0.0564  0.1528 -0.1797
25822W        W42296   6.700   6.638   0.834  0.1161 -0.0129 -0.0483
25823W        W42297  18.726   8.155  14.547  0.4006  0.2640 -0.0093
25824W        W42298   4.076  13.555  11.306  0.0498  0.0256  0.2067
25825W        W42299   1.696  13.628   3.103  0.0036 -0.0357 -0.1085
25826W        W42300  10.588   8.221  12.967 -0.0958 -0.1170 -0.0639
25827W        W42301  11.723  11.053   3.818  0.0526  0.2105  0.3386
25828W        W42302  13.700   1.601   0.112  0.1301  0.1001  0.1254
25829W        W42303  16.200   9.902  11.299  0.1149 -0.3092  0.0262
25830W        W42304   7.779  11.771   2.518  0.2175  0.0463  0.1566
25831W        W42305  18.577  12.763  11.868 -0.3772  0.3212 -0.0131
25832W        W42306  14.644   4.319   9.297  0.1534  0.0714 -0.1679
25833W        W42307  15.202   5.882  13.921 -0.0768 -0.0470 -0.0830
25834W        W42308  13.170   4.665   4.363 -0.1502  0.2163 -0.1557
25835W        W42309   4.159  19.059  12.987  0.1284 -0.1604  0.0504
25836W        W42310   5.371   3.326  11.636 -0.3047 -0.2123  0.2102
25837W        W42311   4.344  10.851   4.520 -0.3217  0.1248 -0.0496
25838W        W42312  10.169  14.643  12.552 -0.0004 -0.0173  0.1622
25839W        W42313  13.256   3.940   2.592 -0.1159  0.0488  0.0761
25840W        W42314   5.640   0.948  13.739 -0.0274 -0.0913 -0.0774
25841W        W42315  13.939  10.562   4.376  0.1443  0.1945  0.2759
25842W        W42316   1.275   5.834   4.829  0.1552 -0.1154  0.1235
25843W        W42317  14.616  11.561  12.795 -0.1138  0.0344  0.1466
25844W        W42318  10.639  12.573  11.033  0.3740  0.0234 -0.0263
25845W        W42319  15.156   3.584  10.782  0.1483 -0.0903  0.1234
25846W        W42320  14.189   9.040   2.290  0.0344 -0.1417 -0.0058
25847W        W42321   1.328   3.208  12.865  0.1192  0.2293  0.2332
25848W        W42322  16.168   8.896   1.659 -0.2166 -0.1046 -0.0275
25849W        W42323   0.049  14.945  10.313  0.0131  0.2571  0.2150
25850W        W42324  14.463   2.741  13.600 -0.1009 -0.0766  0.1982
25851W        W42325  19.273   7.812   4.737 -0.0789  0.2099 -0.0371
25852W        W42326   4.749   2.400  10.963 -0.1385  0.3151  0.4386
25853W        W42327   3.031   4.033   2.345 -0.3187  0.2553 -0.0530
25854W        W42328   5.578  12.694  12.645 -0.2265 -0.5788  0.4343
25855W        W42329   3.737   5.605   1.591  0.0270 -0.0150  0.0130
25856W        W42330   7.088   2.315  13.230  0.2876  0.0724  0.3955
25857W        W42331  15.881   8.090   3.622  0.1076 -0.1592  0.0564
25858W        W42332   9.587   1.348  12.807  0.2436 -0.3258  0.0623
25859W        W42333  12.525   9.134   0.552  0.1124 -0.2735  0.1614
25860W        W42334   1.166  18.605   3.191 -0.0800  0.0569 -0.0681
25861W        W42335  15.783   4.986  14.513 -0.1674 -0.1302  0.0980
25862W        W42336  18.812  16.151   3.568  0.2725  0.0583  0.0314
25863W        W42337  15.339  15.456  13.975 -0.1667 -0.0419 -0.0488
25864W        W42338   5.860  10.995   3.650  0.1185 -0.0644  0.3386
25865W        W42339  14.468  16.073   4.744 -0.0240 -0.4600  0.1324
25866W        W42340  15.543   5.153   0.295 -0.3478  0.1831 -0.0853
25867W        W42341  18.784   4.945   0.438  0.0659  0.1172 -0.2776
25868W        W42342  10.370   2.726   1.083 -0.0580  0.3448 -0.2453
25869W        W42343   3.273   9.210   0.852 -0.0439 -0.0041 -0.0724
25870W        W42344   0.610  15.270   3.787  0.0293 -0.0573 -0.2375
25871W        W42345   4.902   3.317   1.511 -0.2390 -0.1645  0.1329
25872W        W42346  17.778   4.272  11.637 -0.2611 -0.2710  0.3653
25873W        W42347  18.908   5.105   0.887 -0.1211  0.1875 -0.0402
25874W        W42348   2.383  14.485  12.346 -0.1242  0.2652 -0.0406
25875W        W42349  15.306   1.700   2.421 -0.1434  0.0619 -0.2692
25876W        W42350  16.433   3.851  13.135 -0.1043 -0.0661 -0.0415
25877W        W42351  15.167   8.679   2.206 -0.1834  0.4699  0.2051
25878W        W42352  11.297   9.128   1.192 -0.1581  0.0467 -0.0232
25879W        W42353  15.976   1.787   3.697  0.0396  0.1427  0.3035
25880W        W42354  18.462  15.006   0.018 -0.0584 -0.0893  0.0437
25881W        W42355   1.983   6.702   0.072 -0.1363 -0.2846  0.1090
25882W        W42356  11.132  14.808   4.266 -0.3059  0.2373 -0.1930
25883W        W42357   3.374   1.617   0.942 -0.0501  0.2182 -0.2735
25884W        W42358   0.588   2.994   0.833 -0.1600  0.0462  0.0807
25885W        W42359  11.508   2.832   1.077  0.3196  0.0070  0.0492
25886W        W42360  17.400  18.288  14.284 -0.2849 -0.1374 -0.1816
25887W        W42361  10.554  18.456  12.135 -0.6201  0.3738 -0.2417
25888W        W42362  11.062  10.704  11.592  0.2311 -0.2204 -0.1304
25889W        W42363   5.486   0.254  10.052  0.0681  0.1314 -0.0047
25890W        W42364  15.177   8.276   4.561 -0.1221  0.0491  0.1545
25891W        W42365  14.073  11.172  11.614 -0.1404 -0.2946 -0.0020
25892W        W42366  10.889  17.058   4.481 -0.1260 -0.0489 -0.1284
25893W        W42367   2.243   4.388  10.139  0.2387 -0.1277 -0.2179
25894W        W42368  11.480   6.978  12.512 -0.6603  0.1592  0.0220
25895W        W42369  16.436   1.382  10.846 -0.1540  0.1740  0.2341
25896W        W42370   9.934   6.106   2.568 -0.1566  0.0387 -0.3716
25897W        W42371  17.243   3.722  12.099  0.2718 -0.0117 -0.0588
25898W        W42372   9.766  17.472  10.861  0.1214 -0.2009 -0.0071
25899W        W42373   2.812   0.943  12.005 -0.2596 -0.2297  0.0401
25900W        W42374  13.623  10.803  13.527 -0.0602 -0.2260 -0.0130
25901W        W42375   5.090  11.732   2.200  0.2024  0.3569 -0.0288
25902W        W42376   4.983  10.209  12.631  0.2024  0.2170  0.1933
25903W        W42377   4.463   1.428  12.195 -0.1464  0.1832 -0.2048
25904W        W42378  13.699   6.164  14.212  0.0652  0.2262 -0.1572
25905W        W42379   1.138   5.568  11.576  0.0842 -0.3284 -0.0070
25906W        W42380   6.082   9.714   3.248 -0.2259 -0.1433 -0.0729
25907W        W42381  18.331   9.497  10.748  0.2909  0.1967 -0.1573
25908W        W42382  17.821  17.647   3.864 -0.2931  0.1310  0.2727
25909W        W42383   8.311  10.710   0.645 -0.2294 -0.2729  0.3418
25910W        W42384  19.552   7.820  14.169 -0.0412  0.1520  0.0679
25911W        W42385   1.817  10.112   0.948 -0.0832 -0.0558 -0.2866
25912W        W42386  19.006   0.007  11.136  0.0582 -0.2207  0.0825
25913W        W42387   5.147   4.382  10.225  0.0256  0.0136 -0.1089
25914W        W42388   8.078   6.761   5.096  0.0839 -0.2167  0.0505
25915W        W42389  10.495  14.855   3.458  0.2431 -0.1622  0.2238
25916W        W42390  14.429   3.937   3.791 -0.0974  0.1467 -0.0027
25917W        W42391   4.706  17.317  12.175 -0.1284  0.2295 -0.1673
25918W        W42392  10.761  12.814   2.879  0.0964  0.0005  0.4392
25919W        W42393   7.880  18.323  13.495 -0.1157 -0.0642  0.1301
25920W        W42394  13.398   2.515   1.896 -0.1684  0.0141  0.0638
25921W        W42395   1.526   5.419  10.809  0.2876 -0.2597  0.0233
25922W        W42396  17.333   2.683  13.214  0.2014 -0.2686 -0.0835
25923W        W42397   8.219  16.623   2.309 -0.3041 -0.0593  0.3089
25924W        W42398   9.728  16.021   1.609  0.0639 -0.0254 -0.2069
25925W        W42399   3.851   6.712   0.489 -0.0297 -0.0496  0.1051
25926W        W42400  12.625   6.271  13.643 -0.1118  0.1142  0.1008
25927W        W42401   6.679   4.962  10.866 -0.0905 -0.1623  0.1745
25928W        W42402  19.417   5.591  14.582  0.0956 -0.2104 -0.2668
25929W        W42403   1.485  15.691   1.002 -0.1978  0.0786 -0.0769
25930W        W42404  12.133   3.534  13.957  0.0374 -0.2327  0.3618
25931W        W42405   7.778   9.255  11.025 -0.1327  0.0587  0.0421
25932W        W42406   6.804   2.042   9.895 -0.1722  0.0214 -0.1006
25933W        W42407   8.648  19.266   0.617  0.3046  0.2221 -0.0570
25934W        W42408   5.977  15.832   3.048 -0.1120 -0.0294  0.0728
25935W        W42409   1.285   2.294   3.978 -0.1007  0.0010 -0.1682
25936W        W42410   1.539  17.856   3.156  0.3282 -0.0686 -0.1200
25937W        W42411  13.388  15.338  11.298  0.1406 -0.2146 -0.0383
25938W        W42412   8.263  19.322   4.702  0.5197 -0.1211 -0.0701
25939W        W42413  14.630   6.271  13.170  0.2889 -0.0460 -0.0573
25940W        W42414   9.641  14.797   2.962 -0.1097  0.0994 -0.0448
25941W        W42415  10.427   5.908  12.968 -0.1075 -0.0098  0.4288
25942W        W42416   2.254  12.029   1.187 -0.0717  0.0830 -0.0445
25943W        W42417  13.039   8.613  12.131 -0.0633 -0.2691  0.3364
25944W        W42418  10.469   8.453   1.041  0.4600 -0.0215 -0.1460
25945W        W42419  13.398  18.875   4.326 -0.2028  0.2039  0.2119
25946W        W42420  14.198   5.869  14.382  0.1147  0.0279 -0.4230
25947W        W42421  17.693   6.802   1.800 -0.2390 -0.1522  0.2564
25948W        W42422   2.023   5.120  14.190 -0.1073  0.3331 -0.8173
25949W        W42423   0.319  10.816   3.667  0.1207  0.2314 -0.0894
25950W        W42424   3.790   3.309   0.611  0.1094 -0.0752 -0.0972
25951W        W42425  15.657   6.943   3.846 -0.1683 -0.2668  0.1795
25952W        W42426  14.258  16.428   5.007 -0.0792 -0.1998 -0.1014
25953W        W42427  11.735   9.423   4.285  0.0121  0.0932  0.0986
25954W        W42428   5.389  14.631   2.340 -0.3152 -0.0407  0.1073
25955W        W42429  16.899   7.907  13.805  0.1311 -0.2445 -0.2124
25956W        W42430  11.688  13.859   4.573  0.1698 -0.1202  0.0951
25957W        W42431   6.328   8.559   0.825 -0.0316  0.1165 -0.0871
25958W        W42432   6.948  18.012   1.281  0.1135 -0.1523 -0.1213
25959W        W42433   7.414  12.214  11.103 -0.0212 -0.0571 -0.0983
25960W        W42434  15.977  16.313  14.305 -0.3746  0.1580  0.0867
25961W        W42435  10.615  12.476   1.125  0.1110  0.0848 -0.1057
25962W        W42436  12.364   8.237   1.962  0.1470  0.0798  0.1447
25963W        W42437   0.908   7.332  12.290  0.0878  0.1553 -0.1554
25964W        W42438   8.848  11.194   1.906 -0.0507 -0.6030 -0.0669
25965W        W42439  10.748  17.393   1.969 -0.1549  0.2715 -0.6328
25966W        W42440   5.398  11.346  11.981  0.1834 -0.2275  0.1354
25967W        W42441  15.413   3.432   0.407 -0.0454  0.0969 -0.1123
25968W        W42442  11.344   9.621   0.009 -0.1797 -0.0830  0.2441
25969W        W42443  18.019   4.518   0.973  0.2835  0.3122  0.1074
25970W        W42444  18.448   3.933  14.093 -0.2050  0.0358 -0.5350
25971W        W42445  13.634  16.379  12.942  0.0052 -0.1612  0.2714
25972W        W42446  19.308   0.011   4.466  0.1717  0.2042 -0.3044
25973W        W42447  11.305  19.609  11.694  0.0002 -0.0964 -0.2652
25974W        W42448  18.910   2.229   2.205 -0.0870  0.0352 -0.1046
25975W        W42449   2.721  10.724  11.587  0.2842  0.0184  0.2950
25976W        W42450   8.556  18.775  14.430 -0.1115 -0.4734 -0.0841
25977W        W42451  14.499  14.829   4.429 -0.0700 -0.3482 -0.1265
25978W        W42452   1.131  11.737   2.243  0.0576 -0.0859  0.0555
25979W        W42453   1.368  15.572   2.520  0.0080 -0.0473  0.0884
25980W        W42454  13.486   4.763  13.165 -0.2431 -0.0342  0.1703
25981W        W42455   9.824  10.541  10.830 -0.0050  0.0342 -0.1183
25982W        W42456  13.447  18.158   2.904 -0.2196 -0.0285 -0.2002
25983W        W42457  14.654  11.943   2.513  0.3212  0.0084 -0.0154
25984W        W42458  13.140  15.351   0.047 -0.2694 -0.2119 -0.0739
25985W        W42459   1.378  12.035  12.003 -0.0816 -0.1444  0.0030
25986W        W42460   6.754   2.842   1.578  0.0554 -0.0314  0.3259
25987W        W42461   2.528   7.080  14.542 -0.1046  0.0194 -0.1682
25988W        W42462  17.872   5.504   0.705  0.0844  0.0688 -0.2227
25989W        W42463   0.033   3.860  11.711 -0.2014 -0.1629 -0.1424
25990W        W42464   0.927   8.973   4.356 -0.2683  0.0122 -0.3297
25991W        W42465   4.761  10.703  14.389 -0.1627 -0.2743  0.1356
25992W        W42466   0.067   1.621   4.216  0.0952 -0.2355 -0.0049
25993W        W42467   8.999  14.886   5.940  0.1117  0.4805 -0.0611
25994W        W42468  12.580  18.409   0.248 -0.0129  0.2630 -0.2894
25995W        W42469  11.803  12.885  13.650 -0.0743  0.3071  0.1061
25996W        W42470  13.306  15.587   1.428 -0.2641 -0.2185  0.3357
25997W        W42471   5.003   6.707  10.763 -0.0427  0.0823 -0.0745
25998W        W42472   0.976  11.717  12.917 -0.2979 -0.2107  0.1920
25999W        W42473  15.256  16.695  11.218 -0.0494  0.0693 -0.0980
26000W        W42474   0.209   7.438  14.337 -0.0860  0.0438 -0.3825
26001W        W42475  17.903   2.116  11.318  0.0071  0.1307 -0.1181
26002W        W42476   0.060  13.063  13.823 -0.0585  0.2203 -0.4789
26003W        W42477   7.988  15.752   4.095  0.0345  0.1022  0.3191
26004W        W42478  16.800  17.470   4.654 -0.1073  0.2782  0.1602
26005W        W42479  17.804   4.792   1.922  0.0914 -0.1618 -0.0467
26006W        W42480  18.203  16.459   1.039  0.0332  0.2081 -0.2717
26007W        W42481   9.179   5.410  12.631 -0.1236 -0.0322  0.1898
26008W        W42482  17.947   6.294  13.404  0.0453 -0.1599 -0.0758
26009W        W42483   9.285  18.729   1.115 -0.3742  0.0662 -0.1049
26010W        W42484  18.232  16.895   1.279  0.1873 -0.2544  0.2211
26011W        W42485  12.916   4.087   9.853  0.0792  0.1534  0.0174
26012W        W42486   9.325   3.455  11.393 -0.0497 -0.0885 -0.0166
26013W        W42487  11.003  11.802   1.554 -0.0721 -0.1837 -0.0702
26014W        W42488  11.055   4.651  13.770  0.0200  0.0194 -0.4184
26015W        W42489   3.871   7.967  12.317 -0.0766  0.3070 -0.0574
26016W        W42490   4.625   8.593  11.773 -0.0860  0.0946 -0.0643
26017W        W42491  11.370  18.513  10.383  0.0520  0.1909  0.0094
26018W        W42492  12.889   3.433  12.296  0.1196  0.0995 -0.2163
26019W        W42493   3.712  11.547   4.319 -0.1351  0.0137 -0.4215
26020W        W42494  18.148  13.596  10.122 -0.1975  0.3473  0.1828
26021W        W42495   5.836  16.806   0.554 -0.0620 -0.0624 -0.1286
26022W        W42496   2.919  10.926   2.216  0.2564  0.1707 -0.2084
26023W        W42497   0.820   5.011   0.881 -0.2247 -0.1071 -0.0106
26024W        W42498   5.339  16.785  10.604  0.1859 -0.2836 -0.0227
26025W        W42499  14.317   8.545  11.819 -0.0962 -0.1886  0.2927
26026W        W42500  19.388   8.950   3.511  0.0487 -0.3769 -0.1058
26027W        W42501   1.082  10.022   3.870  0.2535  0.1642 -0.0094
26028W        W42502   5.960   7.908   4.165 -0.4363 -0.1880  0.0546
26029W        W42503   8.909  14.171  12.777  0.6092 -0.0845  0.1153
26030W        W42504  17.964  15.225   3.641  0.2355 -0.0366 -0.0215
26031W        W42505   1.375  19.081   3.280  0.0881 -0.1390  0.2509
26032W        W42506   1.717  16.177   9.787  0.0595 -0.0615  0.6676
26033W        W42507  10.932   9.459  13.845 -0.1041  0.1574  0.2212
26034W        W42508  19.544   8.013   0.249  0.0623 -0.4069 -0.1223
26035W        W42509  17.996  17.801  14.642  0.1247 -0.0974  0.0101
26036W        W42510   2.698   6.150  11.579 -0.2112 -0.0723 -0.2907
26037W        W42511  15.480  17.870   0.005 -0.1319 -0.0975  0.0558
26038W        W42512  13.233   6.400   1.069  0.2468  0.2109 -0.2304
26039W        W42513  13.740  16.637   9.726 -0.0332  0.4437 -0.2046
26040W        W42514  14.589   1.510   0.226 -0.0972  0.1213 -0.3438
26041W        W42515   0.228  10.990   0.999 -0.4410 -0.1049  0.0385
26042W        W42516  14.140  16.949  13.744  0.1134 -0.0412  0.1265
26043W        W42517  12.169  18.739   0.316  0.0300  0.2747 -0.0655
26044W        W42518   5.205   1.314  13.807 -0.0150  0.1035 -0.1486
26045W        W42519   3.686   8.263   4.608 -0.1546  0.0030 -0.2351
26046W        W42520   1.713  18.152   3.572 -0.1855 -0.1759  0.2234
26047W        W42521   3.935  15.423  11.712 -0.0461 -0.2251  0.5556
26048W        W42522   4.676   1.003  13.281  0.1858  0.3057 -0.3676
26049W        W42523   2.693   5.729  10.273  0.0013 -0.2021  0.1675
26050W        W42524   2.103  17.058  14.430  0.1129  0.1085  0.0196
26051W        W42525  11.311  16.296  12.446 -0.0937 -0.1633 -0.1013
26052W        W42526  19.582  17.101   0.831  0.3899 -0.0155  0.2052
26053W        W42527  13.241   7.772   3.150 -0.0313 -0.1488 -0.0239
26054W        W42528  17.162   3.183  14.235  0.0661  0.0224 -0.3468
26055W        W42529   4.794  10.644  13.266 -0.4703  0.1464  0.1417
26056W        W42530   6.718   6.446  11.094  0.1201 -0.0533  0.2387
26057W        W42531   8.748  19.122   4.065 -0.1789 -0.1230 -0.0490
26058W        W42532  10.799   5.771   4.884  0.0975 -0.0840 -0.1540
26059W        W42533  11.487   5.840   3.842  0.1912  0.0266  0.1988
26060W        W42534   3.814  15.588   4.769 -0.2594  0.0731  0.1495
26061W        W42535  11.845   0.835   9.125 -0.1033 -0.1208  0.0337
26062W        W42536  13.541   9.548   3.665 -0.1411  0.2314  0.0316
26063W        W42537  19.093   5.299  14.146  0.0542  0.1371 -0.1128
26064W        W42538  13.032   7.758   1.401  0.1938  0.0480  0.0009
26065W        W42539  15.781  15.448   4.168  0.0885  0.2758  0.0417
26066W        W42540   0.456   5.678  13.776 -0.1044 -0.0187 -0.0250
26067W        W42541  13.521   0.878  10.827 -0.1148  0.0159  0.0072
26068W        W42542  16.323  11.212  14.057  0.0704  0.0604  0.0090
26069W        W42543  14.150  18.024   1.262 -0.0814 -0.3839 -0.0713
26070W        W42544  12.942   8.931  12.576  0.0368  0.2470 -0.0273
26071W        W42545   2.450  10.530  11.219  0.0077  0.2644  0.0556
26072W        W42546   2.102  16.999  10.866  0.1290 -0.0505 -0.4020
26073W        W42547  12.169   4.205   3.675  0.1158  0.0723 -0.0553
26074W        W42548  17.955  17.002  11.312  0.0541 -0.2434  0.2218
26075W        W42549  11.998  12.942   4.400  0.2182 -0.3136 -0.0997
26076W        W42550  11.653   4.316   2.224  0.2547  0.3576  0.1629
26077W        W42551  14.280  14.944  14.414  0.0556  0.0361  0.1431
26078W        W42552   1.112  17.233   5.194  0.0958  0.2584 -0.0233
26079W        W42553  18.223  16.313   0.410  0.1822 -0.3151 -0.1717
26080W        W42554  11.407   5.471   2.163  0.1587  0.0374  0.2098
26081W        W42555   1.042   0.636   0.861 -0.4746 -0.0408  0.0691
26082W        W42556   4.667   6.233   2.442 -0.2185  0.2452 -0.0867
26083W        W42557  11.126  12.427   2.994  0.2421  0.3584 -0.1954
26084W        W42558   5.941  11.755   0.174 -0.2906 -0.0495 -0.1656
26085W        W42559   7.617   4.984   3.127 -0.2478 -0.2139  0.0673
26086W        W42560  17.438  12.662   4.487 -0.2861 -0.1996 -0.0535
26087W        W42561   4.108   1.561   1.296  0.3620 -0.0667  0.0740
26088W        W42562   8.625   5.746  10.863  0.1225  0.1124 -0.0020
26089W        W42563   3.476   6.555  14.528  0.0159 -0.0349 -0.0961
26090W        W42564   7.484   5.414  11.065 -0.0260  0.2179 -0.0620
26091W        W42565   9.245  12.126  11.482  0.0753  0.0875 -0.3824
26092W        W42566   7.484   4.252   2.434 -0.1955 -0.1964 -0.0669
26093W        W42567  15.956  13.948   5.622 -0.1070  0.4246  0.1418
26094W        W42568   8.298   5.903   4.483 -0.0582 -0.2607 -0.1294
26095W        W42569   4.950   2.034  13.317  0.0385 -0.2839 -0.0115
26096W        W42570   1.579   8.128  12.273  0.1251 -0.0997 -0.0624
26097W        W42571  19.025  15.868  13.372 -0.2567 -0.2465 -0.0116
26098W        W42572   4.303  10.938   2.669  0.1891 -0.1179 -0.4072
26099W        W42573  15.456  16.887  13.787 -0.1465  0.1391 -0.0950
26100W        W42574   6.321   1.279  14.620  0.0672  0.3927 -0.2056
26101W        W42575   0.142   5.777   4.373  0.3084 -0.2454 -0.2269
26102W        W42576   9.236   7.960  10.171  0.0227 -0.2559  0.1237
26103W        W42577   6.493   3.064   9.549  0.1047 -0.2734  0.2739
26104W        W42578  18.881   8.696  11.761 -0.1151  0.0959 -0.0223
26105W        W42579   3.185   6.325   1.242  0.0988 -0.2325 -0.1794
26106W        W42580  10.648   3.006   1.456 -0.0199 -0.0792 -0.1805
26107W        W42581   1.504   6.780   0.194  0.2309  0.0868  0.1593
26108W        W42582  14.002  10.732  11.249 -0.0399  0.0898  0.2910
26109W        W42583   1.712   2.888   4.489 -0.4560  0.1015 -0.1021
26110W        W42584   1.122   5.762   2.068 -0.0165  0.2888 -0.3440
26111W        W42585   6.908  18.976   4.985  0.2455  0.0917  0.2482
26112W        W42586  14.623  16.442  11.787  0.1581 -0.1003  0.4348
26113W        W42587   3.092  18.311  12.116  0.4878 -0.2487 -0.2174
26114W        W42588  16.886   2.579  11.634  0.3317  0.1889 -0.0047
26115W        W42589   0.916   9.119   1.193  0.1496 -0.0338 -0.1298
26116W        W42590   8.985  18.205  10.898 -0.0833  0.0337 -0.0186
26117W        W42591   1.917  14.982   4.183 -0.0506  0.0744  0.1183
26118W        W42592  12.032  11.703   0.544  0.1509 -0.0278  0.0076
26119W        W42593   9.219  14.409  11.655 -0.1747  0.4058 -0.0120
26120W        W42594   2.923   6.493   3.076 -0.1734  0.2041 -0.1675
26121W        W42595  16.561   2.149   0.202  0.0221  0.0355  0.3095
26122W        W42596  10.531   6.859   1.506  0.1550 -0.4252  0.0943
26123W        W42597  14.286   9.003   9.190  0.1941 -0.0072 -0.3674
26124W        W42598  13.449   4.844   0.144  0.2114 -0.1182 -0.3397
26125W        W42599   5.334   1.510   0.837 -0.0012 -0.2823 -0.0473
26126W        W42600   7.740  13.853   9.966  0.1830 -0.1136  0.2869
26127W        W42601   9.694  10.879  13.470 -0.3170 -0.1728  0.0482
26128W        W42602  16.865  15.705  10.535  0.0804  0.0983 -0.2514
26129W        W42603  18.686   0.865  10.305 -0.1261 -0.1402 -0.2491
26130W        W42604   4.241  12.573   3.954  0.3208  0.0470  0.3459
26131W        W42605  10.968  10.059  13.102  0.2666  0.0271  0.0739
26132W        W42606   9.868   9.193  14.533  0.2023  0.1450 -0.2464
26133W        W42607   9.038   5.882   4.428  0.0921  0.6077  0.2983
26134W        W42608  15.318   6.693  14.288 -0.0485  0.0459 -0.1576
26135W        W42609  19.015   0.735  13.318 -0.1357 -0.2734  0.1099
26136W        W42610   3.837  13.880   3.938 -0.0936  0.4262 -0.1729
26137W        W42611  15.634  16.216   3.911 -0.2128  0.0416 -0.2194
26138W        W42612   8.839  12.933   4.061 -0.1183 -0.0258 -0.1597
26139W        W42613   3.862   2.338   9.104  0.0587 -0.1554 -0.2033
26140W        W42614   5.639  15.146  12.266 -0.3730  0.0576  0.3473
26141W        W42615   6.475   6.608   3.249 -0.1732  0.1165 -0.3803
26142W        W42616   8.652   2.701   4.454 -0.2387  0.2984  0.0140
26143W        W42617   8.218   1.219  11.646 -0.1671  0.1707 -0.0732
26144W        W42618   1.639  14.820   0.695  0.1383  0.0570 -0.0010
26145W        W42619   7.374   5.857   2.185  0.1773  0.1506 -0.0217
26146W        W42620   7.573  13.671   4.212  0.0678  0.0131 -0.3048
26147W        W42621  16.063  16.495  11.675  0.1761 -0.0246 -0.1601
26148W        W42622  12.702   4.633   4.980 -0.0143 -0.0564 -0.2063
26149W        W42623   0.560  15.252   1.278 -0.0477  0.0931  0.0931
26150W        W42624   9.129   2.418  14.195  0.3178  0.1150 -0.2336
26151W        W42625   1.369  18.443  14.548 -0.1554 -0.3678 -0.1885
26152W        W42626   3.156   4.753   1.335  0.2770 -0.2150 -0.0849
26153W        W42627   9.745  16.357   4.933  0.1446  0.0572  0.1215
26154W        W42628   7.576   4.735  12.659 -0.2243 -0.1564 -0.1298
26155W        W42629  12.537  11.409   3.666 -0.3280  0.1445 -0.3840
26156W        W42630   3.829   9.539   0.095  0.5132  0.2791  0.0883
26157W        W42631   5.614  11.828  10.493 -0.2420  0.0635  0.1924
26158W        W42632   8.529  10.105   0.037  0.1031 -0.1345 -0.2036
26159W        W42633  16.611  18.449   3.917  0.2335 -0.0455  0.1013
26160W        W42634   6.764  11.033   1.504  0.0197 -0.2030 -0.0444
26161W        W42635  11.604  12.292   1.041 -0.2863  0.3210 -0.0963
26162W        W42636  12.382  14.448   0.448  0.2704  0.1210  0.0064
26163W        W42637   3.406  17.265  11.163 -0.2287 -0.0553  0.0795
26164W        W42638  17.355  10.259  11.010  0.0641 -0.0627  0.2129
26165W        W42639  10.329  14.850  11.186  0.1090  0.3186  0.0759
26166W        W42640  11.496  14.024   0.875 -0.2307 -0.0494 -0.3618
26167W        W42641  16.587   9.076  11.106 -0.3573 -0.0012  0.0770
26168W        W42642   1.596   5.542  12.390  0.0838  0.1140  0.1737
26169W        W42643   6.821  11.409  14.113 -0.3425  0.0578 -0.3430
26170W        W42644  14.678   0.345  13.088  0.0425  0.1166 -0.1456
26171W        W42645   0.250  15.826  10.372 -0.1947 -0.0607 -0.1508
26172W        W42646  18.862  11.139   9.733  0.1069 -0.1327  0.1679
26173W        W42647   3.451  14.813  13.849 -0.1817  0.3955  0.1437
26174W        W42648   4.950  14.405  14.009 -0.0263  0.0306  0.0549
26175W        W42649  10.169   1.903  13.437 -0.0026 -0.2033 -0.0213
26176W        W42650  14.084   8.678  13.291  0.1310  0.1535 -0.0600
26177W        W42651   9.744   2.362   1.177 -0.0378  0.0734 -0.2016
26178W        W42652  10.427  13.828  11.291 -0.1027  0.0908 -0.0914
26179W        W42653   9.740   8.338  10.275 -0.1373 -0.0472 -0.2422
26180W        W42654   8.843  10.317   0.889 -0.0832 -0.2861  0.5479
26181W        W42655  16.345   8.667   1.236 -0.0853 -0.2954 -0.0637
26182W        W42656  19.079  17.171  14.384 -0.0563  0.0131  0.1593
26183W        W42657   2.358   1.906   3.075  0.0804 -0.1332 -0.0491
26184W        W42658  12.141   1.082  12.528 -0.1537  0.4024 -0.0668
26185W        W42659   5.279   4.152  12.144  0.0049 -0.3732 -0.0302
26186W        W42660   1.352  11.995  10.996  0.1266 -0.2445  0.0030
26187W        W42661  12.048   3.465  11.512 -0.2824 -0.1228  0.1701
26188W        W42662   7.931   1.739  11.556 -0.0636  0.3613  0.0405
26189W        W42663   1.399   4.427  10.512 -0.2197 -0.0401  0.1710
26190W        W42664   4.699  14.101  10.744 -0.3257 -0.0556 -0.0076
26191W        W42665  15.390  17.627  14.129 -0.0964  0.0781 -0.2118
26192W        W42666  11.081   1.264   2.498 -0.0507  0.2368  0.2217
26193W        W42667  12.132   5.874  11.829  0.2508  0.0622 -0.1428
26194W        W42668   3.797   0.578   2.470  0.2356  0.3506 -0.2103
26195W        W42669  18.943  13.844   3.056  0.1768  0.0597 -0.2091
26196W        W42670   7.757   5.139  14.263  0.0343 -0.1493  0.1167
26197W        W42671  15.176   1.304   2.748 -0.2667 -0.0645  0.2230
26198W        W42672   6.452   3.894   9.951 -0.0522  0.0299 -0.1372
26199W        W42673   7.143   6.323   1.978  0.3118  0.0273 -0.1086
26200W        W42674  18.757  15.565  11.685 -0.0333 -0.0326  0.7022
26201W        W42675  18.657  15.980   0.505 -0.1757  0.2988 -0.1794
26202W        W42676  14.762   4.215  12.668  0.1199 -0.2332 -0.3593
26203W        W42677  14.252   9.152  10.586  0.0128  0.1923 -0.1810
26204W        W42678   7.509   2.452   1.218 -0.1092 -0.0317  0.0340
26205W        W42679  12.623  12.288   1.621 -0.0247 -0.0620 -0.0832
26206W        W42680  14.275  12.006  13.677 -0.1168 -0.0798  0.0370
26207W        W42681   5.577  11.609  13.632 -0.0234 -0.3988 -0.1316
26208W        W42682  11.532  18.063   1.693 -0.0261 -0.2074  0.3571
26209W        W42683   8.728   4.698  13.940 -0.0329  0.2034  0.1438
26210W        W42684  15.555  18.395  12.625  0.1118  0.1055 -0.3802
26211W        W42685   4.358  15.380   0.748  0.3155  0.3539  0.0635
26212W        W42686  11.002   0.073  11.112 -0.0990  0.1620 -0.0459
26213W        W42687  13.350   0.440   0.733  0.0476 -0.0798  0.3742
26214W        W42688   0.092  16.024   2.602 -0.2913 -0.1059 -0.2909
26215W        W42689  14.753  18.194   1.763 -0.1548  0.1400 -0.2925
26216W        W42690  19.533  19.378   3.266 -0.2247  0.0187 -0.2301
26217W        W42691   7.215  15.908   0.547  0.0477 -0.0204  0.0657
26218W        W42692   0.168   3.885  12.990 -0.4631 -0.3623 -0.1604
26219W        W42693   9.015  11.406  13.345 -0.3233  0.3180 -0.2365
26220W        W42694  10.105   3.695   0.986  0.1229 -0.1322 -0.0836
26221W        W42695  11.586  12.394   2.771  0.1683  0.0765 -0.1123
26222W        W42696   8.770   7.458  11.319  0.1401 -0.0670 -0.1914
26223W        W42697  11.179  15.327   0.248  0.1146 -0.0792 -0.0430
26224W        W42698   9.215   8.574  13.726  0.3545  0.0040 -0.0884
26225W        W42699  17.070   4.532   5.544 -0.0581 -0.1310 -0.2387
26226W        W42700   3.299   5.596   2.807 -0.0300  0.0060  0.1861
26227W        W42701   4.052   5.470  11.048  0.0067  0.0016  0.2558
26228W        W42702  14.038   2.812  12.671 -0.0469 -0.0750  0.2286
26229W        W42703   6.688   7.299   1.476  0.2898  0.0441  0.4858
26230W        W42704   5.364   7.818   5.089 -0.1751 -0.1126  0.0569
26231W        W42705   7.735   0.294  10.771 -0.2966 -0.3008 -0.1319
26232W        W42706   4.214   4.586   1.554  0.3459 -0.0695 -0.0683
26233W        W42707   3.063   1.429   3.737 -0.2667 -0.0688 -0.0852
26234W        W42708   5.978   0.561   4.850  0.1831 -0.1799  0.1321
26235W        W42709   6.519  19.309   4.255  0.1434 -0.0564 -0.0061
26236W        W42710   2.308  11.602   0.785  0.0123 -0.1145 -0.0015
26237W        W42711  18.850   4.032   4.114 -0.1110  0.0617  0.0989
26238W        W42712   2.254  13.922   2.803  0.2303 -0.0829  0.1444
26239W        W42713   8.816  11.898  13.503  0.0629 -0.0591  0.0511
26240W        W42714   2.676   0.952   9.868  0.0956  0.3390  0.0003
26241W        W42715  15.262  17.504   2.207  0.3177 -0.0119  0.0260
26242W        W42716   3.843  11.649  11.534 -0.0058 -0.0491  0.0669
26243W        W42717   3.318   8.268   2.140 -0.3114  0.0386 -0.1952
26244W        W42718  12.995  18.863   1.424 -0.2813 -0.0455 -0.1087
26245W        W42719   4.748   5.703   0.095  0.0087  0.0080  0.0590
26246W        W42720  14.682   7.931  10.490  0.0164 -0.1450  0.1060
26247W        W42721   6.430   4.118   0.006  0.0891 -0.0156  0.2084
26248W        W42722   4.010  11.264  13.862  0.1070 -0.1027  0.0211
26249W        W42723   6.338  11.695  14.435  0.2479  0.0150  0.1807
26250W        W42724   2.497  14.395  13.701  0.0140 -0.2264 -0.1350
26251W        W42725   7.813   5.356  12.066 -0.0117  0.1426  0.1447
26252W        W42726   4.049  10.483   0.328 -0.0063 -0.1100  0.1066
26253W        W42727  17.823  11.704   2.493  0.2444  0.3284  0.0160
26254W        W42728  18.461   0.500   3.146 -0.1786  0.3481 -0.0187
26255W        W42729   0.313   7.855  13.580 -0.0994 -0.1694 -0.0266
26256W        W42730   6.905  10.925   4.413 -0.1719 -0.0083 -0.3013
26257W        W42731  18.384   1.233   0.570  0.0243 -0.1399 -0.3493
26258W        W42732   0.096   4.874   4.753 -0.0916 -0.2627  0.1759
26259W        W42733  11.413   9.202  11.731 -0.1846  0.0440  0.2101
26260W        W42734  15.840   0.268   2.745 -0.0510 -0.1710  0.0495
26261W        W42735   9.914  18.188   1.132 -0.3041 -0.3229  0.1696
26262W        W42736   5.532   2.463   3.225  0.1307 -0.0030  0.1846
26263W        W42737   4.844   0.136  12.985 -0.0588  0.0959 -0.3341
26264W        W42738  15.760   3.508  14.236  0.2566  0.1711 -0.1016
26265W        W42739  12.527   1.422  12.945 -0.2253  0.0721 -0.1150
26266W        W42740   0.883  17.274  13.341  0.2270 -0.3336  0.2758
26267W        W42741  14.124  11.288  12.545 -0.0988  0.1577 -0.1865
26268W        W42742  13.383   6.762   0.803  0.1412 -0.1746  0.0908
26269W        W42743   3.653  11.824   3.778  0.0761 -0.2538  0.3688
26270W        W42744  12.541  13.636   1.068 -0.0453  0.1025  0.1057
26271W        W42745   3.711  15.108  13.332  0.1492 -0.4993 -0.4389
26272W        W42746  12.875  17.071   1.093 -0.1802 -0.1408 -0.0528
26273W        W42747   7.090  18.385   4.957  0.4547  0.0034 -0.1117
26274W        W42748   3.423   4.733   9.936 -0.3288  0.1618 -0.1112
26275W        W42749   1.479  11.192   2.893 -0.0061  0.2014  0.0400
26276W        W42750  13.350   6.018   2.545  0.2235  0.1952  0.0490
26277W        W42751   1.718  16.486   1.914 -0.1001 -0.4006  0.4603
26278W        W42752   9.041  14.370  10.656 -0.3619 -0.1159 -0.2812
26279W        W42753  16.456  12.909  10.739 -0.0226  0.1539  0.0786
26280W        W42754  14.898  17.835   2.275 -0.1520  0.0989  0.0954
26281W        W42755  14.488   0.468   4.003  0.1371 -0.0883 -0.2418
26282W        W42756   3.628  12.412  10.391 -0.0948 -0.3675  0.2658
26283W        W42757  16.808   9.743  12.032 -0.2168  0.1701  0.0048
26284W        W42758   9.116  13.947  11.450  0.2609  0.2041  0.0185
26285W        W42759  19.175  15.316   3.822  0.1409  0.2403 -0.1766
26286W        W42760   4.390  10.028   0.680  0.1274  0.0580  0.1288
26287W        W42761   4.588   8.432  14.569  0.1292  0.1960  0.2191
26288W        W42762  18.581  15.134   1.757  0.0786 -0.1333 -0.2238
26289W        W42763  15.120  12.160   3.397  0.3375 -0.4372 -0.0278
26290W        W42764   4.654  11.934   0.675  0.2848 -0.2079 -0.2007
26291W        W42765  10.786   0.564   2.612  0.1080 -0.2240 -0.2442
26292W        W42766   5.241  17.250  12.446  0.0595 -0.2334  0.0358
26293W        W42767   3.420   0.842  11.245 -0.0721  0.0890  0.1747
26294W        W42768   2.667  15.947  10.810  0.0637  0.2735  0.1441
26295W        W42769   4.282  14.563  10.112  0.0677 -0.0269  0.0857
26296W        W42770  14.108   6.360  14.605  0.3116 -0.1335 -0.3243
26297W        W42771   8.239   1.000  12.451  0.3038  0.1867  0.4491
26298W        W42772   1.442   1.222   4.761 -0.1417 -0.1359  0.3047
26299W        W42773   5.042   2.119   4.241  0.0031 -0.2138  0.2604
26300W        W42774  12.473  18.848  12.300 -0.0796 -0.2295 -0.1839
26301W        W42775   5.059   9.532   4.149  0.0611 -0.5033  0.0887
26302W        W42776   5.068  16.883   4.640  0.0365  0.2268 -0.0919
26303W        W42777  14.104  11.743   1.692  0.3829 -0.0918  0.1944
26304W        W42778   6.291  10.892  14.337 -0.0487  0.0686  0.0197
26305W        W42779   2.913  11.366  12.382 -0.0444  0.0322 -0.0635
26306W        W42780  12.596  19.179  12.714 -0.2565  0.2081 -0.2337
26307W        W42781   2.944   3.222  10.450 -0.0413  0.2350  0.4087
26308W        W42782  16.984  13.204  13.375  0.1992 -0.1848  0.0199
26309W        W42783   0.278  16.830  11.087  0.2030 -0.4659 -0.2054
26310W        W42784  11.030   1.013  14.146  0.1392 -0.0962 -0.0101
26311W        W42785  15.609  14.618  13.857  0.0502  0.0086 -0.0836
26312W        W42786   2.372   8.307   2.459 -0.0847 -0.0553 -0.0622
26313W        W42787   0.754   5.148   1.461  0.3308  0.1761 -0.0858
26314W        W42788  10.372  19.057  13.958  0.0216  0.0296 -0.1483
26315W        W42789  18.475  14.521  11.571  0.0119  0.1537  0.0327
26316W        W42790  11.856  18.404  13.883  0.0863  0.1931 -0.0625
26317W        W42791   4.863   5.566  10.067  0.0338 -0.2473  0.0393
26318W        W42792  11.870  15.424   2.559 -0.0166  0.0625  0.2081
26319W        W42793   7.453  16.555  12.328 -0.0136  0.0592  0.1708
26320W        W42794  15.322  19.490   0.164  0.2144  0.1932 -0.0167
26321W        W42795  16.489  12.140   5.250  0.0629 -0.0008 -0.3339
26322W        W42796  17.491   1.912   1.837  0.0873  0.1724 -0.0704
26323W        W42797  11.481   6.328  13.755  0.0756 -0.1936 -0.1954
26324W        W42798   3.721   2.613   3.868 -0.1610 -0.0451  0.1580
26325W        W42799  14.050  16.026  14.381 -0.0938  0.0982 -0.0829
26326W        W42800  19.089   3.356  12.841  0.0194 -0.1456  0.0026
26327W        W42801   1.180  11.550   4.678  0.1884  0.1559  0.2541
26328W        W42802  13.273  14.947  13.475 -0.1242 -0.0146 -0.2550
26329W        W42803   3.059  17.456   0.087 -0.3072 -0.1856 -0.3899
26330W        W42804   4.237  16.374   1.090  0.2737 -0.0381  0.3630
26331W        W42805   9.999  10.045  12.900  0.1611 -0.0485  0.4805
26332W        W42806  17.229  13.607   0.378 -0.0717  0.0813 -0.4784
26333W        W42807   3.550  13.649  11.193 -0.0848 -0.1718 -0.1211
26334W        W42808  10.139  16.669  13.612 -0.2074 -0.0355  0.1204
26335W        W42809   4.285  19.088  10.759  0.1817  0.1076 -0.0843
26336W        W42810  15.853   4.504  10.250  0.0842 -0.0323  0.1688
26337W        W42811  12.369   0.691   2.449 -0.0329  0.1740  0.0681
26338W        W42812   7.481  15.160  12.259 -0.1378 -0.1943  0.0346
26339W        W42813  15.498   2.667  12.505  0.0996 -0.2018 -0.2766
26340W        W42814   5.157  17.932   4.080  0.2207 -0.1753 -0.0067
26341W        W42815  15.055   1.033   3.481  0.2136  0.0902  0.2375
26342W        W42816  16.687  18.415   2.216  0.1157 -0.0327 -0.1238
26343W        W42817   7.874   2.264  13.864  0.0530  0.0146  0.1180
26344W        W42818  16.378   0.776  11.141 -0.0242 -0.0429  0.1799
26345W        W42819   4.008  15.841   0.498 -0.1468  0.3433 -0.2061
26346W        W42820  13.584   4.082   4.006  0.0385  0.2213  0.1511
26347W        W42821  18.342   5.682  14.397  0.2089 -0.3185 -0.1925
26348W        W42822  18.762  11.082  12.016 -0.3066  0.3208 -0.0416
26349W        W42823   8.711  17.516   2.101 -0.0647 -0.4339  0.5553
26350W        W42824   8.241  14.648  12.003  0.1357  0.1388 -0.1429
26351W        W42825   3.790  13.077  13.561  0.3245 -0.0288 -0.1602
26352W        W42826   7.644  12.779   1.341  0.0539  0.2719 -0.1027
26353W        W42827  18.217  16.092  14.155  0.2126 -0.1862 -0.1128
26354W        W42828   4.416   2.311  14.427 -0.0482  0.0570  0.1514
26355W        W42829   5.760   9.817  10.964 -0.0716 -0.1432  0.2065
26356W        W42830   9.725   2.513   1.849  0.0839  0.0110  0.1298
26357W        W42831   5.090   2.548   1.033  0.1391 -0.0279  0.2131
26358W        W42832   0.241  11.784   3.217  0.4926  0.2434  0.0989
26359W        W42833  17.744  16.952   2.209  0.2466  0.0663 -0.1754
26360W        W42834  16.749  18.639   0.719 -0.1118  0.3579  0.0486
26361W        W42835  19.263  14.885   4.072 -0.3419  0.3747  0.1206
26362W        W42836   0.203  14.446   0.447  0.1104 -0.2185 -0.1784
26363W        W42837  15.310  14.314  12.215 -0.1493 -0.0893 -0.4336
26364W        W42838   0.299  16.533   1.381  0.0769  0.1438 -0.3681
26365W        W42839   4.632   6.853   4.588 -0.3456  0.1505 -0.2217
26366W        W42840   1.758   9.692   2.235 -0.1691  0.2229 -0.4269
26367W        W42841   4.379   7.599  13.006 -0.1483 -0.3035 -0.1767
26368W        W42842   6.970  17.455  11.271 -0.1632  0.1293 -0.0650
26369W        W42843  15.102  12.743   5.307 -0.0766 -0.3738 -0.1304
26370W        W42844  15.655   8.187   1.702  0.2686  0.0752  0.0979
26371W        W42845  10.053  13.751   0.995  0.1145  0.2156  0.1466
26372W        W42846   1.411   2.092  14.385 -0.0041 -0.2062  0.1268
26373W        W42847  16.078   0.601  12.571 -0.0234 -0.0448 -0.2248
26374W        W42848   1.635  12.754   2.562  0.0476  0.1714 -0.0352
26375W        W42849  16.843   4.099  12.924 -0.2661 -0.0116  0.0785
26376W        W42850   6.256   1.614  12.926 -0.1074 -0.0319 -0.3199
26377W        W42851   7.915  13.235  12.139 -0.1475  0.0327  0.0052
26378W        W42852   7.254  14.950   4.164  0.0403  0.0921 -0.0197
26379W        W42853   7.807   3.537   2.169 -0.0330 -0.0966  0.1653
26380W        W42854   1.376  14.703   5.372 -0.1702 -0.0949 -0.0607
26381W        W42855   1.899   1.731   3.267  0.1377  0.0241  0.0476
26382W        W42856  12.426   9.458  11.656  0.0776  0.2931 -0.0163
26383W        W42857   0.910   9.902  11.143  0.0261  0.3793  0.0659
26384W        W42858   3.898   6.612  14.130  0.0552  0.1117  0.1683
26385W        W42859   1.495  13.199  11.783 -0.0394  0.0746 -0.0470
26386W        W42860   4.841   1.516  14.033  0.3836  0.0209  0.4671
26387W        W42861   3.642  15.385   3.615  0.3179  0.0980  0.2254
26388W        W42862  17.921   1.702  14.262  0.3233  0.0213 -0.0952
26389W        W42863  12.823  15.071   2.041 -0.1353  0.4439 -0.0462
26390W        W42864  11.933  12.291   1.499  0.2397 -0.1055  0.1827
26391W        W42865  15.542  11.169   3.671 -0.2859  0.0071  0.0440
26392W        W42866   3.542   6.448  13.146 -0.0431 -0.3343  0.0630
26393W        W42867  16.822   1.472  11.724  0.1149  0.1463  0.4699
26394W        W42868  10.420  11.977   4.169  0.0840  0.3868  0.3859
26395W        W42869  18.440  15.944   2.651 -0.0971 -0.0946  0.0079
26396W        W42870   3.170   4.259   2.951  0.2067  0.0526  0.1691
26397W        W42871  17.247   0.774   0.324  0.0446  0.0376  0.1546
26398W        W42872   4.972  11.818   0.274 -0.0694 -0.1023 -0.3073
26399W        W42873   7.840   8.393   9.952 -0.0242 -0.2289  0.1623
26400W        W42874   6.625   5.574  14.180  0.1090 -0.1437 -0.2253
26401W        W42875  12.838  16.997  14.349  0.3457 -0.1897  0.1268
26402W        W42876  11.596   8.652   3.945  0.1316  0.2586  0.3317
26403W        W42877  17.083   9.038   4.122  0.3220  0.0985 -0.0521
26404W        W42878  11.861  11.264   0.499  0.0556  0.0864  0.2381
26405W        W42879   6.263   5.448  11.259 -0.4038  0.1304 -0.2539
26406W        W42880  15.030   0.217  11.470 -0.0583 -0.0975 -0.2806
26407W        W42881   9.249   7.486  12.247 -0.3614  0.0094 -0.0306
26408W        W42882  15.555  10.849   0.290  0.2246  0.2156  0.0127
26409W        W42883   3.272  13.151   4.305  0.2651 -0.3710 -0.1505
26410W        W42884   8.412   6.436   2.819 -0.0882 -0.1489  0.0910
26411W        W42885   1.572   7.913   1.347 -0.0055 -0.2007  0.0052
26412W        W42886   2.115   0.420  13.090  0.0420 -0.0071 -0.2652
26413W        W42887   1.422  18.286  11.507 -0.2297 -0.0059 -0.2850
26414W        W42888   7.792  17.638   4.140  0.0011  0.1080  0.1542
26415W        W42889  15.094  13.275  13.525  0.3116  0.1004  0.3532
26416W        W42890  13.049  13.910  11.500  0.3224 -0.0599  0.0447
26417W        W42891  15.098  19.175  10.939  0.0300 -0.2920  0.3633
26418W        W42892  11.256   3.511   1.197 -0.0384 -0.0383  0.0597
26419W        W42893  15.637  15.358  12.240  0.0492  0.0672  0.0425
26420W        W42894  19.083   4.330  10.331 -0.2972 -0.1120 -0.0525
26421W        W42895  13.887  17.023   1.516  0.2329  0.0371  0.1405
26422W        W42896   1.977  10.468   4.379 -0.0346 -0.1282  0.2279
26423W        W42897  17.730   0.237   2.496 -0.2904 -0.1261  0.0518
26424W        W42898   5.029  15.252  11.666 -0.2495 -0.5339 -0.1208
26425W        W42899  17.661  14.293   2.588 -0.2209 -0.0594  0.2248
26426W        W42900  18.456   2.763  10.898  0.2309 -0.0862 -0.0883
26427W        W42901   4.858  13.385   0.457  0.2691 -0.0157  0.0828
26428W        W42902  11.740  10.346   4.433  0.1942  0.3928  0.0514
26429W        W42903   7.862   4.852  11.688  0.0264  0.1074  0.1591
26430W        W42904   5.024  11.734  12.120 -0.0656 -0.0885 -0.2659
26431W        W42905   2.938  13.090  10.854 -0.0725 -0.5098 -0.0367
26432W        W42906   9.238   0.367   4.041  0.0455 -0.3362 -0.2754
26433W        W42907   5.534   8.273   5.078  0.1183 -0.4489 -0.1155
26434W        W42908   7.366  16.499   2.828 -0.0600  0.6249 -0.0989
26435W        W42909   3.059  17.297  10.752 -0.3174  0.0806 -0.0590
26436W        W42910  15.064  17.133  13.277  0.0636 -0.0568 -0.2232
26437W        W42911  13.938   5.441   2.841  0.2066 -0.0453 -0.1339
26438W        W42912   5.233  10.848   1.019  0.0670 -0.1004  0.0421
26439W        W42913   1.261  18.399   1.137  0.1988 -0.1130  0.2415
26440W        W42914  16.172  11.856   1.901  0.0858  0.3632  0.1518
26441W        W42915   0.427   0.458  11.837 -0.2422 -0.0798  0.0267
26442W        W42916  13.829  12.227  13.088  0.0927 -0.2429 -0.2456
26443W        W42917  14.382   0.351  10.822  0.0123  0.0489  0.2682
26444W        W42918  13.783   5.934   0.501  0.1062 -0.2162 -0.0642
26445W        W42919   0.115   4.317  11.214 -0.0137 -0.1417 -0.1778
26446W        W42920  17.274   0.187  10.866 -0.2414  0.3138 -0.5517
26447W        W42921  13.094  18.527   0.157 -0.0837 -0.0320  0.0196
26448W        W42922  15.188  12.665   2.511 -0.0006 -0.3663 -0.0488
26449W        W42923   4.610   1.766  14.474  0.1909 -0.1896  0.4840
26450W        W42924   5.125  19.583   1.204  0.0137 -0.0206  0.0963
26451W        W42925   8.873  18.396  14.379 -0.0926  0.2602  0.4075
26452W        W42926   5.100   7.708  12.747  0.0487  0.0516 -0.1607
26453W        W42927  19.179   7.698   0.404 -0.1012  0.5317 -0.1113
26454W        W42928  15.989  12.271  10.067  0.0105  0.1993 -0.1713
26455W        W42929   9.758  16.877   5.089  0.4031  0.0094  0.1463
26456W        W42930  17.628  19.548   0.433 -0.2340  0.0383 -0.0107
26457W        W42931  14.256   9.201   3.368  0.1273  0.2857  0.0438
26458W        W42932  11.970   9.412  13.490  0.0451  0.0856  0.1399
26459W        W42933   9.233  13.708   2.066  0.1468  0.3122  0.1651
26460W        W42934   1.114   4.741  11.890  0.0444  0.1751  0.0299
26461W        W42935  17.136   3.690  14.378 -0.1175  0.0930  0.2090
26462W        W42936  16.042   2.038   4.398 -0.2665  0.3937  0.0484
26463W        W42937   3.859   8.762  11.162 -0.1380 -0.0546 -0.0364
26464W        W42938   0.176  19.223  14.299  0.0740 -0.0246 -0.0519
26465W        W42939  19.582   5.252   4.435 -0.0830  0.4530  0.2697
26466W        W42940   1.985  15.932   4.372  0.1319 -0.4030  0.1758
26467W        W42941  17.297  18.771  12.393  0.0982 -0.0181 -0.3284
26468W        W42942  15.350  12.647  12.619 -0.0147  0.1664  0.3189
26469W        W42943   6.245   9.370   2.036  0.1811  0.1015 -0.0876
26470W        W42944  18.515  10.226   1.628 -0.1312 -0.2032  0.1755
26471W        W42945   4.737   4.340   3.992  0.0498  0.0079  0.1211
26472W        W42946   2.291   1.950   9.546 -0.0709 -0.2609 -0.0011
26473W        W42947   5.199   0.105   0.084  0.1589  0.0271  0.0404
26474W        W42948  10.972   0.719   4.246  0.1798  0.1506 -0.1439
26475W        W42949   3.746  18.601  11.179 -0.1989 -0.0556 -0.0073
26476W        W42950  18.228  13.880   4.624  0.0303 -0.0166  0.1558
26477W        W42951  11.536   0.637   4.184 -0.2049 -0.0128  0.1385
26478W        W42952   2.900  14.754   1.913  0.2676  0.3195  0.2586
26479W        W42953  18.521  11.590   5.053 -0.1562  0.1278  0.0002
26480W        W42954   7.690   6.023   1.839  0.2729 -0.1525 -0.1146
26481W        W42955   2.084  14.663  13.995  0.2218  0.2681  0.1809
26482W        W42956   8.927  17.184  13.020  0.2870  0.3027  0.0406
26483W        W42957   2.129  18.289   2.917 -0.3674 -0.0263 -0.1347
26484W        W42958  13.684   6.690  13.411 -0.0858 -0.0715 -0.0058
26485W        W42959  12.697  19.440   3.428 -0.3825 -0.2876  0.0001
26486W        W42960  16.409   1.583  13.593 -0.0020 -0.0162 -0.2906
26487W        W42961   6.735   2.690   0.033 -0.1839  0.0233 -0.0410
26488W        W42962  12.301  11.896   1.694 -0.2136 -0.0337 -0.0298
26489W        W42963  12.338   0.973   0.938  0.2194 -0.0460 -0.3770
26490W        W42964  18.070   4.413  13.399  0.3926  0.3768 -0.1644
26491W        W42965  17.444  13.088  11.046 -0.4084 -0.1255  0.1594
26492W        W42966   9.633   5.087  13.625  0.1715 -0.0850  0.0325
26493W        W42967   3.898  15.307  12.236 -0.0648 -0.2701 -0.2279
26494W        W42968   4.067  17.824   2.841  0.0673 -0.0953  0.0671
26495W        W42969   5.808  10.764   2.349 -0.0887 -0.1906  0.2238
26496W        W42970   5.154  16.595  10.187  0.0392  0.2676 -0.0067
26497W        W42971  13.333  14.803   0.003  0.3513  0.0655 -0.2790
26498W        W42972   2.406   3.094   4.657  0.0329 -0.2730  0.3369
26499W        W42973  12.884   5.564  12.090 -0.0224 -0.0920  0.2036
26500W        W42974  11.938   2.373   1.750 -0.2037  0.0675  0.0004
26501W        W42975  11.602   7.327  12.846 -0.2379  0.3990 -0.2212
26502W        W42976  18.439  17.192  12.228  0.1180  0.1861  0.0795
26503W        W42977   4.130   9.222  14.535  0.1693 -0.0129  0.2782
26504W        W42978   3.225   3.935   1.183  0.0383  0.3465 -0.1403
26505W        W42979  17.552  16.098   4.759 -0.0760 -0.0945  0.3084
26506W        W42980   3.862   9.603  14.258  0.1943  0.0242  0.1161
26507W        W42981  11.290   6.664  10.555 -0.4597  0.0560  0.0427
26508W        W42982   3.758  11.919  10.579  0.0319 -0.3489 -0.1840
26509W        W42983   8.841   7.214  14.382 -0.1519  0.1434 -0.0347
26510W        W42984  11.332  19.433   1.821 -0.1049  0.2694  0.3527
26511W        W42985  11.226   7.696   4.483 -0.2557 -0.0464 -0.1332
26512W        W42986  18.564  14.782   2.710  0.1546  0.1909 -0.0182
26513W        W42987   7.788  14.109   4.363 -0.0084  0.1533 -0.0177
26514W        W42988  14.985  15.856  13.823  0.0717  0.0783  0.1322
26515W        W42989  16.815  18.770   2.945 -0.2363 -0.0576  0.0823
26516W        W42990  10.040   5.385   2.220 -0.1584  0.0700 -0.0607
26517W        W42991   9.292   6.245  10.740  0.1192  0.2069 -0.1032
26518W        W42992   6.269   3.591   9.607  0.2933 -0.0365  0.2288
26519W        W42993   5.113   4.707   3.131 -0.0739  0.2645  0.3651
26520W        W42994  12.108   1.794   3.109  0.0669  0.2740 -0.4405
26521W        W42995  12.031   1.636   9.713  0.1013 -0.2188  0.2246
26522W        W42996   1.727   4.802   3.482 -0.1386  0.2033 -0.1041
26523W        W42997  14.352  17.228   4.193 -0.3048 -0.2507  0.0888
26524W        W42998   4.793  15.670   0.575 -0.2645 -0.1262  0.2182
26525W        W42999   1.585   1.767   1.956  0.0075  0.1545 -0.0274
26526W        W43000   4.389   5.184  11.234 -0.2155  0.1188  0.0290
26527W        W43001   9.424   3.309   2.864 -0.0972  0.0442  0.3078
26528W        W43002  13.251  17.341  11.613  0.0693 -0.1338  0.0795
26529W        W43003  13.132   9.629  11.119  0.0142  0.0048 -0.1781
26530W        W43004  13.422   4.663  11.263 -0.0814 -0.1575 -0.0594
26531W        W43005   1.901   5.887   5.408 -0.0924  0.1364 -0.3358
26532W        W43006   6.198  15.980  11.547 -0.1458 -0.2758  0.1986
26533W        W43007  10.703   9.933  13.944 -0.1692  0.0278  0.0926
26534W        W43008   4.789  19.098   0.365  0.2896  0.0880 -0.0158
26535W        W43009  11.124   8.135   0.051 -0.1578  0.2694 -0.2744
26536W        W43010   6.759  17.351   0.547 -0.2105 -0.0610 -0.1089
26537W        W43011   1.503  18.785  14.143 -0.0362 -0.0740 -0.0814
26538W        W43012  16.284   7.194   5.401 -0.2487  0.5707 -0.1626
26539W        W43013  18.785   1.288   1.417  0.2302  0.4518  0.1440
26540W        W43014  15.835   3.285   4.838  0.0794  0.0585  0.3516
26541W        W43015   3.853  14.271   2.629  0.0048  0.2291  0.0129
26542W        W43016  14.721  17.295   4.998 -0.0593  0.0114 -0.0419
26543W        W43017  16.550  13.925   2.327  0.1150  0.1032 -0.0390
26544W        W43018  15.332   1.572  11.991 -0.1479 -0.0700  0.2666
26545W        W43019  16.883  16.448   2.206 -0.2035  0.1387 -0.0199
26546W        W43020   3.555  10.304  12.734 -0.0645  0.0192 -0.1137
26547W        W43021  14.986   4.856   2.568  0.0631  0.1521  0.1546
26548W        W43022  11.495  12.523  14.645  0.1506 -0.3722 -0.0589
26549W        W43023  15.331   3.754   1.530 -0.1348  0.4576  0.1778
26550W        W43024   0.490   9.536   3.134 -0.0393 -0.0372 -0.2711
26551W        W43025  18.898  14.739   0.040  0.1070  0.2233  0.0603
26552W        W43026  13.401   9.804  12.661  0.1995 -0.0404 -0.3406
26553W        W43027  10.567   6.912  12.978  0.0209 -0.0804 -0.0578
26554W        W43028   2.745  10.926   4.011  0.3863  0.2526 -0.1771
26555W        W43029  17.052   5.297  13.730  0.1400  0.0996  0.2534
26556W        W43030   0.609  18.615   0.294  0.0951  0.1203  0.4276
26557W        W43031  16.702  15.860   0.060 -0.1215  0.1081  0.0348
26558W        W43032   2.781  11.614  13.966 -0.1075  0.1469 -0.0566
26559W        W43033   6.492  18.882  14.287  0.0393 -0.0942  0.0606
26560W        W43034   5.563   0.224   4.837 -0.1489  0.0383 -0.0343
26561W        W43035   9.106  15.730  11.868  0.0268  0.1510 -0.2009
26562W        W43036  10.138  13.447  11.344 -0.1838  0.0836  0.0803
26563W        W43037   0.237  16.795   4.567  0.1214 -0.2773  0.0671
26564W        W43038  10.033   7.056   3.802 -0.1151  0.0463 -0.0723
26565W        W43039   9.911  16.544   1.467 -0.0851 -0.1767 -0.0265
26566W        W43040   7.366   9.027  13.800 -0.1070 -0.2039 -0.1156
26567W        W43041  11.420  11.781  13.349  0.1678  0.1320  0.0807
26568W        W43042  13.471  14.149  11.617 -0.1071 -0.3732 -0.0756
26569W        W43043  11.598   5.381  14.309 -0.0133 -0.0316  0.0461
26570W        W43044   8.165  18.972   3.520  0.0405 -0.0318 -0.0371
26571W        W43045  11.579   6.223   0.133 -0.3057  0.0386  0.3112
26572W        W43046  19.344   9.065   2.645 -0.2427  0.0553 -0.1953
26573W        W43047   0.319   0.765  13.959  0.2794  0.1977  0.0332
26574W        W43048  11.624  17.439   3.053 -0.0238 -0.2567 -0.0157
26575W        W43049   6.797  19.442   1.879 -0.0191 -0.1224  0.0781
26576W        W43050   1.419   1.490  10.485  0.1745 -0.1603 -0.2480
26577W        W43051   9.039  19.596  10.495 -0.3143 -0.1157 -0.3680
26578W        W43052  16.655  18.108  13.219 -0.1022 -0.2493  0.2449
26579W        W43053   1.149  12.505   2.465  0.3527 -0.1028  0.2949
26580W        W43054   1.481   3.564  13.632  0.0701  0.5110 -0.1030
26581W        W43055  11.324   9.129   1.924  0.1086  0.1082  0.2056
26582W        W43056   4.344   3.882   1.803  0.0617 -0.0192 -0.1363
26583W        W43057   1.155   8.829   5.598  0.0441 -0.3389  0.1716
26584W        W43058   6.358   9.042  12.599 -0.2914  0.1643 -0.1413
26585W        W43059  15.550  18.027   3.205 -0.0695  0.2790 -0.0704
26586W        W43060   9.117   5.838  12.318  0.0636  0.2267 -0.1641
26587W        W43061   2.043  18.344  11.616  0.2224  0.2769  0.0151
26588W        W43062   1.634   8.977  12.514  0.3060  0.3513  0.1543
26589W        W43063   3.857  10.640   2.604 -0.2735 -0.0346 -0.2011
26590W        W43064   6.802   2.910   9.930  0.1653 -0.4004 -0.0820
26591W        W43065   4.317   8.919   2.315 -0.4206  0.3554 -0.0305
26592W        W43066  18.551  15.923   4.253 -0.0042  0.1692  0.0004
26593W        W43067  13.140  17.284  11.081  0.0840  0.1379  0.0889
26594W        W43068  13.151   0.294  13.118  0.1345 -0.5009 -0.0062
26595W        W43069   1.414   6.135   0.933  0.3543  0.0676 -0.3076
26596W        W43070   4.252  16.553  12.721  0.1434 -0.0491 -0.3549
26597W        W43071  16.440  16.598   1.288 -0.1555 -0.2178  0.3425
26598W        W43072   9.252   0.297  10.799  0.1927 -0.1608 -0.1688
26599W        W43073   4.348   0.080   3.559  0.1602 -0.0824  0.2828
26600W        W43074   9.950   8.193  10.705 -0.0612  0.0198  0.2700
26601W        W43075   4.015   1.025   2.649 -0.0902  0.2123 -0.1532
26602W        W43076  17.107  11.575  14.268  0.0556 -0.1477  0.3231
26603W        W43077   5.462  11.112  13.367 -0.2893 -0.1761  0.1946
26604W        W43078   9.318   8.979   3.799  0.2588  0.0821  0.0485
26605W        W43079  12.718   4.053   2.113  0.0877 -0.0778 -0.0488
26606W        W43080  14.215   1.493  12.164  0.3081 -0.2240  0.1147
26607W        W43081   3.442   7.043   0.424 -0.1383 -0.1952  0.0067
26608W        W43082  11.761  16.678   5.420  0.0058  0.2014 -0.0642
26609W        W43083  17.045  12.200   0.753 -0.0831  0.2138 -0.0906
26610W        W43084  13.383   6.843  12.959 -0.0030 -0.0895  0.1152
26611W        W43085   1.149   2.486  10.765  0.0136  0.0817 -0.3901
26612W        W43086   4.476   8.680  13.692 -0.0737  0.0209 -0.0696
26613W        W43087  16.119   4.138   2.381 -0.1348  0.0229  0.1144
26614W        W43088   6.246   3.627   0.221  0.1815  0.1209 -0.0449
26615W        W43089   9.543   3.869  11.534 -0.2059  0.3175 -0.0059
26616W        W43090   1.907   6.939   0.501 -0.0209 -0.1797  0.2247
26617W        W43091  11.047  17.672   3.678 -0.0030  0.0871 -0.1066
26618W        W43092   1.869  12.193  13.706 -0.2792 -0.3035  0.0612
26619W        W43093  12.061  19.002   9.331  0.2911 -0.0759  0.3270
26620W        W43094   8.241  12.044   3.628  0.0818 -0.0356  0.4743
26621W        W43095   0.161  18.072  11.146  0.0625 -0.2339 -0.0051
26622W        W43096  15.620  16.406  13.709  0.3628  0.0169  0.0100
26623W        W43097  17.561  17.287   3.621  0.2323  0.1055  0.1827
26624W        W43098   6.683   5.562   1.769 -0.0152  0.1559 -0.0715
26625W        W43099   8.866   2.464  12.894  0.1019  0.0017 -0.0706
26626W        W43100   1.130  16.697   5.512  0.0318 -0.1379 -0.1587
26627W        W43101   6.453   2.558   3.934  0.2799  0.3488  0.1783
26628W        W43102   8.251  17.743   2.885  0.1167  0.1525  0.0934
26629W        W43103   7.144   8.286   0.186  0.1371 -0.1648 -0.1099
26630W        W43104   8.131   6.637   2.480 -0.1731 -0.0296  0.1740
26631W        W43105  16.385  11.964   2.625  0.0425 -0.4064  0.1459
26632W        W43106   9.941  18.426  10.703 -0.3100 -0.0453 -0.1622
26633W        W43107  11.121  16.757  10.741  0.1078  0.1578 -0.1084
26634W        W43108   3.604  17.478  14.158  0.0607  0.0748 -0.0584
26635W        W43109  15.204  12.555  11.702  0.2671  0.0520 -0.2270
26636W        W43110   9.859  10.456  12.611  0.1837  0.2345 -0.1076
26637W        W43111   9.576   8.170   5.290  0.0608  0.0544 -0.0561
26638W        W43112  17.456  15.736  13.599  0.2849  0.1206 -0.0227
26639W        W43113  16.545  12.322  13.207  0.1280  0.1318 -0.1505
26640W        W43114  16.529   5.414   2.387 -0.1062 -0.0806 -0.1565
26641W        W43115   2.382  12.293  10.804  0.2605 -0.1480  0.0452
26642W        W43116  10.448  19.393   0.856 -0.1459 -0.2217 -0.2810
26643W        W43117  10.753  13.056  10.738 -0.0317 -0.3778 -0.1273
26644W        W43118   9.544   6.191  12.653 -0.0228 -0.2281 -0.1365
26645W        W43119  16.771   2.471  14.364 -0.2401 -0.0288  0.0004
26646W        W43120  16.214   5.332  12.958  0.5745  0.0470  0.1123
26647W        W43121   9.013  11.740   0.482 -0.0049 -0.0678  0.1435
26648W        W43122   7.779   1.034   0.219  0.0109 -0.0810 -0.0418
26649W        W43123   1.487   5.786  11.156 -0.1864 -0.1473  0.0298
26650W        W43124  16.023   2.885  13.533 -0.3086  0.2252  0.1746
26651W        W43125  18.390   4.771   0.707 -0.0269 -0.0677 -0.0708
26652W        W43126   2.631  15.521   4.344 -0.0726  0.0634 -0.0024
26653W        W43127   0.543   5.219  12.927  0.0901 -0.3337 -0.1346
26654W        W43128  15.916   8.488  12.462  0.1214  0.2036  0.2890
26655W        W43129  11.868   3.219   2.215  0.4121 -0.2990 -0.2835
26656W        W43130   5.827  17.756   2.306  0.0792 -0.1367 -0.0156
26657W        W43131  18.630   0.815  14.400  0.1181  0.2531  0.2137
26658W        W43132   6.841   1.063   1.881 -0.0328 -0.0098 -0.0280
26659W        W43133  14.255  16.344   0.686 -0.0004  0.0168  0.1044
26660W        W43134   7.056  18.371  13.956  0.1077 -0.1400 -0.1404
26661W        W43135  13.451  18.968   3.341  0.0073  0.2702  0.0105
26662W        W43136  16.615   0.930  13.300  0.1768 -0.1619  0.1359
26663W        W43137  18.878   5.749  12.556  0.1946 -0.0531  0.0198
26664W        W43138   8.325   5.258   1.960 -0.0584  0.1598  0.3344
26665W        W43139  14.148   2.799   3.177  0.2118  0.1825 -0.3923
26666W        W43140  10.373  16.069  12.514  0.3081 -0.0383 -0.1516
26667W        W43141  18.718  13.920  11.054  0.1475 -0.2398  0.0851
26668W        W43142   1.526  15.958  10.850  0.2492 -0.2090 -0.0211
26669W        W43143   3.856   7.946  13.955  0.0347 -0.0674  0.0266
26670W        W43144  17.311   4.858   4.083  0.1681  0.2465  0.0867
26671W        W43145   1.530  15.803   1.762 -0.1465 -0.3852  0.0658
26672W        W43146  14.894  11.267  11.466 -0.1754  0.0286  0.0072
26673W        W43147   1.669   6.397   3.000 -0.5812 -0.1807 -0.0453
26674W        W43148   9.434   0.841   2.143  0.0521 -0.1692  0.2419
26675W        W43149   4.626  15.958  10.701 -0.2510  0.3920  0.3317
26676W        W43150   8.918  13.057  11.666  0.0298  0.3180 -0.0666
26677W        W43151  19.092   5.374  10.272 -0.1801  0.4682  0.1788
26678W        W43152  16.260  14.679  12.506  0.4102 -0.0559  0.0617
26679W        W43153   0.239   9.713  14.100  0.1748  0.0146  0.4282
26680W        W43154  14.015   7.163   1.825 -0.2115  0.0524 -0.3526
26681W        W43155  11.609  12.705   3.175 -0.3979  0.0299  0.4056
26682W        W43156  19.422  17.212  10.253 -0.0872  0.0145  0.2258
26683W        W43157  14.936  11.145  11.012  0.0567 -0.2079  0.2962
26684W        W43158  14.970   6.075  10.550  0.0125 -0.1531 -0.0309
26685W        W43159   9.431   7.043   4.198  0.1104  0.2306 -0.2651
26686W        W43160  11.526   1.990  14.162 -0.1354 -0.1776 -0.1070
26687W        W43161  17.510  14.545   0.334 -0.2319  0.2553 -0.2026
26688W        W43162  13.800   3.075  10.851 -0.0643 -0.0450 -0.0642
26689W        W43163  17.042  15.982   4.172  0.1536  0.0533 -0.2359
26690W        W43164   9.195  14.378  14.500  0.2687 -0.0220  0.2086
26691W        W43165   9.024   7.055  10.998 -0.0424  0.1831  0.0213
26692W        W43166   1.588   5.913   2.169 -0.3441 -0.1241  0.0392
26693W        W43167  13.887   4.263   4.815 -0.0893 -0.1099  0.0204
26694W        W43168   4.559  15.109   0.355 -0.2529  0.0287  0.0401
26695W        W43169  15.190   4.347   0.275 -0.2433  0.1029  0.2877
26696W        W43170  13.664   2.504  14.414 -0.1888  0.3169 -0.0941
26697W        W43171   0.328  16.159  11.074 -0.0974 -0.1342 -0.3392
26698W        W43172  16.730  11.323  12.525 -0.0012 -0.0162  0.0975
26699W        W43173   8.400   3.499  14.178 -0.0300 -0.0760 -0.1967
26700W        W43174  10.491  16.328   3.138  0.1750 -0.2395  0.2419
26701W        W43175  12.614  11.065  12.152 -0.0120  0.1414  0.1642
26702W        W43176  13.667   7.033   3.648 -0.2053  0.0352 -0.1534
26703W        W43177  15.088   0.345   0.050  0.0242  0.0095 -0.2286
26704W        W43178  11.045  19.450  13.092 -0.1103 -0.0806 -0.1830
26705W        W43179   4.989   7.481   0.050  0.2719  0.0290 -0.0903
26706W        W43180   5.267   3.797   3.830 -0.3645  0.3412  0.3691
26707W        W43181  17.274   1.507   0.643  0.1049  0.0552 -0.0066
26708W        W43182   7.388  15.366   2.306 -0.0247  0.0259 -0.2395
26709W        W43183  10.940  19.259  10.815  0.0313 -0.1590  0.2080
26710W        W43184   0.889   2.994   0.126 -0.2669 -0.0461 -0.0633
26711W        W43185   2.688   5.928   3.003  0.2745  0.0060 -0.2560
26712W        W43186  19.329  11.401   4.021  0.0517  0.1868 -0.2210
26713W        W43187  15.426   8.279  14.000  0.3202  0.1990 -0.1425
26714W        W43188   6.010  19.066  12.005  0.1943 -0.1075 -0.1217
26715W        W43189  15.879  14.220   1.974 -0.1722 -0.0950  0.1126
26716W        W43190   4.424   1.987   3.476  0.2409 -0.1663  0.0973
26717W        W43191   6.392   7.621  14.196 -0.0828  0.1683 -0.1092
26718W        W43192   2.650   9.377  12.754 -0.1040 -0.1977  0.0420
26719W        W43193  12.205   7.737  11.714 -0.3491  0.0436 -0.2304
26720W        W43194  17.387   0.048  12.902 -0.0579  0.2064  0.1129
26721W        W43195   4.259   3.673   3.180  0.1529 -0.1847  0.0518
26722W        W43196   4.216  17.492  11.373 -0.1446  0.0631 -0.2608
26723W        W43197   7.341  13.562  10.752 -0.0304 -0.1678 -0.1517
26724W        W43198   2.243   7.016   1.782 -0.0125 -0.2676 -0.4317
26725W        W43199   2.690  13.786   1.770  0.2025 -0.4808  0.0475
26726W        W43200  15.030  16.949  10.814 -0.2776  0.0802 -0.2127
26727W        W43201   6.398  17.053   2.275  0.4265  0.1352 -0.1687
26728W        W43202   3.218  11.961   3.084 -0.0440 -0.0780 -0.1934
26729W        W43203  16.364   0.836   0.393 -0.2403  0.0937 -0.1516
26730W        W43204   1.042  15.872   2.268  0.1188  0.4152  0.0404
26731W        W43205   0.732   9.768  13.321 -0.0641 -0.1869 -0.0710
26732W        W43206   7.477   6.649   0.038 -0.0471 -0.1107  0.2107
26733W        W43207  16.944  11.456  10.496 -0.0229  0.3424 -0.3246
26734W        W43208   7.442  14.529   5.082 -0.0406  0.2484  0.0473
26735W        W43209   8.528   0.665   2.167  0.0135 -0.1106 -0.0101
26736W        W43210  17.099  14.755  11.453  0.0542 -0.1519  0.2341
26737W        W43211  14.035  11.744   3.586  0.0435  0.1299  0.2498
26738W        W43212   8.053  10.607  13.930  0.1144  0.1692 -0.0075
26739W        W43213   8.918   9.234   0.246  0.2470 -0.0772  0.0605
26740W        W43214   1.120  18.897  10.154 -0.0855  0.0148 -0.0028
26741W        W43215   9.860  15.979   5.211 -0.2767  0.2492  0.2090
26742W        W43216  15.146  14.642   1.419 -0.0457  0.1444 -0.0352
26743W        W43217  11.947  18.935   1.293 -0.0729 -0.1183 -0.0814
26744W        W43218   3.797   1.092   3.214 -0.4093 -0.0743 -0.3713
26745W        W43219   7.331   6.197   2.729 -0.0206 -0.1878 -0.0129
26746W        W43220   5.323   3.468  10.803 -0.0272 -0.0462  0.1860
26747W        W43221   1.594  13.753   0.608  0.3428  0.0094 -0.2005
26748W        W43222  12.351   4.287   0.286 -0.3682  0.1968 -0.3379
26749W        W43223  13.319   7.108  10.440 -0.1944  0.0854 -0.0837
26750W        W43224  19.539  18.854  11.851  0.0231  0.2791 -0.0555
26751W        W43225   2.502  10.250   0.590  0.0919 -0.0860  0.1431
26752W        W43226   0.564  11.762   2.160  0.2460 -0.2106  0.0547
26753W        W43227  13.860  10.051   0.963  0.1283 -0.0803 -0.0574
26754W        W43228   0.331  14.440  10.228  0.0801  0.0184 -0.4064
26755W        W43229  13.572  13.051  12.717  0.1163 -0.1743 -0.3050
26756W        W43230  12.912  13.608   1.974 -0.2497  0.1706  0.3721
26757W        W43231   1.939  18.936   1.901 -0.0688  0.0039 -0.1867
26758W        W43232   0.627   6.082  10.136 -0.1860 -0.0729  0.1956
26759W        W43233   7.806  16.745   3.186  0.1394 -0.3747  0.3279
26760W        W43234   4.436  17.148   1.107 -0.1027 -0.0241  0.0480
26761W        W43235  16.866  13.301   4.077  0.3124 -0.3499  0.2060
26762W        W43236  15.858   8.456  10.291 -0.1263  0.1064 -0.2934
26763W        W43237   1.887  15.191   3.643 -0.4902  0.0722 -0.2255
26764W        W43238  14.678  18.958  11.147 -0.0287  0.0708 -0.0572
26765W        W43239   0.713  14.802  13.016  0.0407 -0.0895  0.0335
26766W        W43240  15.993   0.191   2.272  0.1243 -0.0967 -0.0993
26767W        W43241   8.320  13.977  14.457  0.0204 -0.3270  0.1126
26768W        W43242  16.576  13.908   5.030  0.1359  0.1156  0.0967
26769W        W43243   2.912   1.701  11.430  0.2037 -0.3044  0.1215
26770W        W43244   4.638   6.638  10.411  0.3636  0.1527 -0.0739
26771W        W43245  14.646   8.780   5.277 -0.1316  0.0105 -0.1832
26772W        W43246  11.002  14.567   2.776  0.0576 -0.1432 -0.0932
26773W        W43247  11.406  17.262  11.373  0.0404 -0.1688 -0.0519
26774W        W43248  12.100   1.786  13.600  0.2772  0.0967  0.1846
26775W        W43249   9.803   9.594  12.707  0.0229 -0.1909  0.0233
26776W        W43250  14.990   1.613   0.991  0.1189  0.2351 -0.2567
26777W        W43251  16.640   8.321  13.079 -0.3761 -0.2135 -0.2373
26778W        W43252  17.866   9.327  12.089 -0.1095 -0.2514 -0.4160
26779W        W43253  12.030   6.268   4.970 -0.0060  0.4643  0.5320
26780W        W43254  11.168   4.363   1.531  0.0713  0.1755 -0.1548
26781W        W43255   5.034  16.559  13.165 -0.0960 -0.4647 -0.1932
26782W        W43256  14.961  13.112   0.941 -0.1172  0.0511 -0.0153
26783W        W43257   7.263  13.543  12.726  0.0073  0.0111 -0.3514
26784W        W43258  16.347   0.000   3.443  0.0151  0.1222 -0.2303
26785W        W43259  14.015   7.504   1.023  0.1263  0.1278 -0.1784
26786W        W43260   6.979  17.966  12.992  0.0036  0.1800  0.3579
26787W        W43261  15.334   6.267   0.964  0.1125 -0.2563  0.0144
26788W        W43262  11.764  19.365  13.807 -0.0551 -0.1040  0.0298
26789W        W43263  11.838   6.808   2.390 -0.0311  0.2674  0.4036
26790W        W43264   2.341  10.825  13.081  0.1110 -0.0615  0.0898
26791W        W43265  16.212  12.760   3.698 -0.0606  0.0996  0.3114
26792W        W43266  17.108   7.362  11.604  0.1757  0.0572 -0.0520
26793W        W43267   4.856   8.329   3.881  0.1271  0.1101 -0.2079
26794W        W43268   0.900  15.796   3.642  0.0558  0.4564 -0.1672
26795W        W43269   3.507   1.083  13.180 -0.0760  0.0340 -0.2695
26796W        W43270  14.206   0.193   2.642  0.0894  0.1174  0.0330
26797W        W43271  16.751  10.731  13.686  0.1795 -0.1104  0.1579
26798W        W43272  12.714   4.256  10.527  0.3762 -0.0573 -0.1679
26799W        W43273   8.198  16.598  13.280  0.0958  0.2400 -0.1784
26800W        W43274   7.203  10.563   2.413  0.2555 -0.2644  0.0446
26801W        W43275   4.375  19.216   1.337  0.1173  0.3670  0.0511
26802W        W43276  10.433   5.063   4.128 -0.1687  0.1262  0.3122
26803W        W43277   2.592  12.683  10.842 -0.1436  0.3515 -0.1995
26804W        W43278  19.358  12.721   1.438 -0.1105  0.2708  0.0231
26805W        W43279   0.864   2.927  12.766 -0.5042 -0.7685  0.2016
26806W        W43280   1.208   2.388   4.974  0.2915 -0.0952  0.2077
26807W        W43281  19.622   5.945   3.515 -0.0052 -0.0525 -0.3273
26808W        W43282   7.993  12.784  10.743  0.2958  0.2971 -0.0806
26809W        W43283  17.395   4.781  12.973  0.0421  0.1329  0.2360
26810W        W43284   9.689  11.510   2.943  0.0695 -0.0815 -0.0451
26811W        W43285  12.663   1.775   3.146 -0.0490 -0.1489  0.2321
26812W        W43286  15.277  10.161  12.240  0.3026  0.1923 -0.0301
26813W        W43287  17.643   2.342  13.333 -0.2761  0.2054  0.2114
26814W        W43288   0.390   0.871  10.563 -0.2407 -0.2741  0.2630
26815W        W43289  18.050  14.924  11.699  0.0327  0.0371 -0.1290
26816W        W43290   3.327  15.505   1.759  0.2326  0.1142  0.0060
26817W        W43291   3.732   3.888  12.054  0.1633  0.0791 -0.0192
26818W        W43292   9.292  13.795   1.010 -0.6171  0.0274  0.0255
26819W        W43293   6.098  18.265   1.607 -0.0635 -0.0205  0.2914
26820W        W43294   7.509   6.848   5.186 -0.2279 -0.1519 -0.0916
26821W        W43295   8.770  19.535  13.315 -0.4189  0.0533 -0.0070
26822W        W43296  10.999   2.176   0.226  0.3671  0.1814  0.0406
26823W        W43297   5.648   9.781   0.216  0.3657 -0.1786 -0.5589
26824W        W43298   1.295   8.114   2.128  0.0937  0.0962  0.0787
26825W        W43299   1.697   7.135   4.783  0.2336  0.2105  0.2918
26826W        W43300  16.165   7.648   1.684 -0.1897 -0.1213 -0.0557
26827W        W43301   2.138  17.128  13.983  0.2613  0.1903 -0.0966
26828W        W43302   7.842  12.891   5.683 -0.1008  0.0503 -0.1250
26829W        W43303  18.478  19.065   2.369 -0.0655 -0.0809 -0.1748
26830W        W43304   9.370  10.039  12.783  0.3389 -0.0488 -0.1325
26831W        W43305   2.574  17.282  14.631 -0.4083 -0.0624  0.0700
26832W        W43306  10.810   4.767   4.001 -0.0011  0.2028  0.0798
26833W        W43307   1.491  12.539  13.708 -0.2385  0.0435 -0.3989
26834W        W43308  19.114   4.118  13.742 -0.0552 -0.0692 -0.1070
26835W        W43309   7.118   3.404   3.445 -0.0395 -0.0402  0.1481
26836W        W43310   3.735   1.806   0.020  0.1791 -0.1357  0.1316
26837W        W43311  16.428  16.133  11.249 -0.2644  0.2832  0.1552
26838W        W43312  16.588  18.178   0.480 -0.2012  0.0968 -0.0615
26839W        W43313  14.923  11.681   1.278 -0.0762 -0.1128 -0.0703
26840W        W43314  11.421  12.837   5.473  0.4882 -0.1068 -0.1246
26841W        W43315  17.146   1.955   0.858 -0.1946  0.0013 -0.4849
26842W        W43316   6.221  11.808   3.082  0.0055 -0.0105  0.2201
26843W        W43317   1.229  18.262   4.344  0.1926  0.0377  0.3428
26844W        W43318   4.984   5.441   3.726 -0.0414  0.2153 -0.1185
26845W        W43319  17.164   8.263   3.495 -0.1772  0.1672 -0.0450
26846W        W43320   9.410  12.745  13.308  0.3704 -0.2942  0.2874
26847W        W43321   5.498  18.023   3.643  0.1740  0.1304  0.1011
26848W        W43322  11.924  14.162   4.905  0.0625 -0.0521 -0.2747
26849W        W43323   0.280   0.966  12.594  0.0323  0.1375  0.1667
26850W        W43324  10.228   0.030   4.693  0.3561 -0.1685 -0.1166
26851W        W43325   6.484   5.875   5.279  0.0063 -0.1675 -0.0624
26852W        W43326  10.801  17.268  14.599 -0.0404 -0.0270 -0.0476
26853W        W43327   6.887  17.796   0.287  0.1309 -0.0549  0.1502
26854W        W43328   9.665  16.171   4.224  0.1578  0.1425 -0.0311
26855W        W43329  12.383  17.801   3.258  0.3420 -0.0856 -0.1444
26856W        W43330  17.991  10.306   2.195  0.0776 -0.0966  0.1150
26857W        W43331   5.496  13.752  12.388  0.2418  0.1833  0.0334
26858W        W43332   7.588  15.075   4.852 -0.0981  0.4574  0.1559
26859W        W43333   9.701  14.033   1.157  0.0771 -0.0715  0.0309
26860W        W43334   8.875   1.908   4.721 -0.0371  0.1222 -0.1130
26861W        W43335   3.114  19.281   3.288 -0.0399 -0.1064  0.4451
26862W        W43336   2.258   4.210  13.481  0.2313  0.2260 -0.0382
26863W        W43337  10.143  15.546  12.471  0.0943  0.3258  0.2421
26864W        W43338   8.164  15.814  12.851  0.1474 -0.0761  0.0535
26865W        W43339  10.678   2.904   2.467 -0.2546 -0.3530 -0.1759
26866W        W43340  18.331  11.723  13.362  0.3471 -0.2106 -0.0735
26867W        W43341   4.718  18.874   1.714 -0.0527 -0.1821  0.0144
26868W        W43342   9.750  10.547   3.763  0.0127 -0.0205 -0.0329
26869W        W43343  15.665  17.147   1.223  0.0475  0.2850  0.1744
26870W        W43344   6.139  17.083  13.552  0.0730  0.0024  0.0529
26871W        W43345   7.455   5.408   8.910  0.2455 -0.1221  0.0045
26872W        W43346   0.717   7.900   1.219 -0.3128  0.0845  0.2348
26873W        W43347   3.015  17.875  13.263 -0.2346 -0.0957 -0.1274
26874W        W43348   4.753   9.571  10.492 -0.1927  0.1462 -0.1353
26875W        W43349  15.257   0.385  12.990 -0.0223 -0.1181 -0.0541
26876W        W43350   2.637   7.923   2.698 -0.0273 -0.3331 -0.2514
26877W        W43351  13.248   7.141  13.396 -0.1309  0.0669  0.0043
26878W        W43352  19.551   7.231   1.439  0.1274  0.4324 -0.3446
26879W        W43353  14.746  17.904   3.573  0.1391 -0.1487  0.0379
26880W        W43354   9.933   0.496   0.368  0.1499 -0.0496 -0.1061
26881W        W43355  15.976   3.951  13.008  0.0468 -0.3100  0.0839
26882W        W43356  19.036  17.360   2.730 -0.3230  0.2572  0.0409
26883W        W43357   9.970  17.524   0.645 -0.3040  0.1687 -0.4624
26884W        W43358  16.886   6.152   5.249  0.3328  0.2421  0.1491
26885W        W43359  15.428   2.286  10.940  0.0294 -0.0659 -0.4052
26886W        W43360   9.448   9.973   0.162  0.1424 -0.1928  0.2841
26887W        W43361  14.539   0.993   2.421  0.1419  0.2707 -0.1058
26888W        W43362   6.640  16.268  12.791 -0.1773 -0.0773 -0.1412
26889W        W43363  13.185  15.125   5.247  0.0867 -0.1912 -0.2481
26890W        W43364  12.281   5.070   0.215  0.0046  0.0659  0.2571
26891W        W43365  19.558   2.900  14.074 -0.3586  0.0223 -0.0661
26892W        W43366  12.647   7.464   2.812  0.0277 -0.1883  0.1403
26893W        W43367   5.300   2.940  11.150  0.0791  0.2617  0.0382
26894W        W43368  17.503   6.825   1.241  0.0646 -0.1764 -0.2160
26895W        W43369   8.860  15.207   1.274  0.0208 -0.0720  0.3308
26896W        W43370  11.167   9.337  12.170 -0.0621  0.1213 -0.5658
26897W        W43371   4.898   1.614   2.295  0.0367  0.2042  0.2505
26898W        W43372   4.717   8.865   1.339 -0.0521  0.3953 -0.0387
26899W        W43373   7.478   8.080  12.295  0.2945  0.1991 -0.2597
26900W        W43374   6.575   8.945   2.819 -0.2070  0.3824  0.0947
26901W        W43375  15.609  15.598   1.059 -0.0643  0.2876  0.0013
26902W        W43376   1.749   3.987   3.292 -0.1089 -0.2128 -0.0479
26903W        W43377   5.611   9.138  14.363 -0.0261 -0.5037 -0.0650
26904W        W43378   4.679   1.278   9.752 -0.0547 -0.0444 -0.1305
26905W        W43379  14.507   9.131  13.347  0.3163  0.1574 -0.0061
26906W        W43380  17.699   5.866   0.128  0.2825 -0.1545 -0.2885
26907W        W43381  11.018   5.489   1.361  0.3937  0.1483 -0.2785
26908W        W43382  14.415  11.125  13.004  0.1152 -0.1755 -0.0659
26909W        W43383  10.022   3.650  10.716 -0.0678  0.2675 -0.1257
26910W        W43384  11.472  12.712  12.700  0.0202 -0.0957 -0.1656
26911W        W43385  17.659  13.965   2.147 -0.0174  0.0524 -0.0859
26912W        W43386  15.263  14.010  11.220  0.4457  0.2161 -0.1020
26913W        W43387   1.342   2.772  12.585  0.0259 -0.0221 -0.2478
26914W        W43388  10.290   6.624  14.466 -0.0456 -0.2211  0.1092
26915W        W43389   0.203   6.149   0.203 -0.2205  0.3320 -0.0193
26916W        W43390   3.196  15.952  11.378 -0.0736 -0.0757  0.3623
26917W        W43391  17.951  18.981   2.523  0.2087  0.2713  0.1823
26918W        W43392  16.853  14.262   2.810  0.2641  0.2999 -0.0043
26919W        W43393  10.691  18.456   2.621 -0.0360 -0.0492  0.5360
26920W        W43394  12.053   0.557   2.885  0.1423 -0.0477  0.1247
26921W        W43395   6.594  12.985   1.064 -0.1312 -0.0333  0.0672
26922W        W43396   1.673  12.453   3.766 -0.4525  0.0003  0.2083
26923W        W43397  16.583   9.714  13.492  0.0676  0.0839 -0.2252
26924W        W43398   2.711  19.304   1.559  0.0037 -0.0067 -0.0535
26925W        W43399  11.274  19.066  12.379  0.3135  0.0645 -0.0753
26926W        W43400   9.347   1.979  13.817 -0.3079  0.1911  0.2287
26927W        W43401  19.080  15.762   1.996 -0.4738  0.1661 -0.0284
26928W        W43402   0.865  18.353  12.092 -0.1262  0.0923 -0.1030
26929W        W43403  15.147  12.174  14.441  0.1396 -0.2850 -0.0423
26930W        W43404   3.042  18.824  12.332 -0.1426  0.0836  0.4257
26931W        W43405   5.551  13.367   1.173  0.0915  0.1884 -0.1578
26932W        W43406   1.593   3.376   3.665  0.1214  0.1410 -0.0794
26933W        W43407   9.374  15.925   1.287  0.1065  0.2314  0.3118
26934W        W43408  14.619  12.563   4.789 -0.1596  0.3797  0.0293
26935W        W43409   5.245  19.077   1.455  0.2702 -0.0912  0.0493
26936W        W43410  11.387   0.007   4.689 -0.0826 -0.1879 -0.0724
26937W        W43411  10.133  12.989  10.629  0.2621  0.1712 -0.2940
26938W        W43412  12.151  14.547  13.917 -0.1199  0.0775  0.1996
26939W        W43413  13.067   6.858   2.029 -0.1837  0.2649  0.0816
26940W        W43414   2.981  17.092   3.592 -0.4296  0.1846 -0.1435
26941W        W43415   2.252  10.476  13.597  0.2189 -0.1595 -0.2872
26942W        W43416  17.830  10.427   0.476  0.1718 -0.2121  0.1476
26943W        W43417   9.985  18.945  14.308 -0.0477  0.1827  0.0774
26944W        W43418  12.523   0.073   0.850 -0.1151 -0.0440 -0.0760
26945W        W43419   8.973  13.932  10.978  0.0613 -0.0839  0.2570
26946W        W43420   1.764  10.956  11.718  0.0444  0.0460  0.1827
26947W        W43421  10.176  16.715   4.814 -0.3334  0.1268  0.3922
26948W        W43422  14.111   2.644  10.831 -0.0180 -0.0769 -0.1334
26949W        W43423  16.971  16.578  14.103 -0.3014 -0.4437  0.1051
26950W        W43424  13.801  12.351   0.844 -0.1280  0.3053  0.1245
26951W        W43425  19.387  12.443  13.332  0.1742 -0.1249  0.1033
26952W        W43426  12.600  19.489   1.797  0.3403  0.2093 -0.2792
26953W        W43427  10.317   7.169  11.523  0.1591  0.0396 -0.1633
26954W        W43428  13.796   1.018   0.061 -0.1340 -0.1446  0.1393
26955W        W43429  17.674  19.094   3.284 -0.1603  0.2039  0.1581
26956W        W43430  15.900   8.707   4.255 -0.2306 -0.0649 -0.3051
26957W        W43431   2.630   9.880  12.982 -0.3691  0.1543 -0.0743
26958W        W43432   9.793  12.120  10.920  0.0157  0.3015  0.2311
26959W        W43433  10.107   7.696  11.513  0.1273  0.1391 -0.2257
26960W        W43434  13.260   4.850   3.359  0.0853  0.2188  0.3177
26961W        W43435  12.248  18.447  13.629 -0.0487 -0.0817  0.1974
26962W        W43436   6.702   7.867   4.510  0.0862  0.0903  0.1833
26963W        W43437   4.302  10.373   5.387  0.3517 -0.3654 -0.2295
26964W        W43438  11.675  13.501   3.463  0.0296  0.2556  0.0239
26965W        W43439  14.623   8.172   5.584  0.1521 -0.2928 -0.2325
26966W        W43440  11.737  19.024   0.728 -0.0362  0.1583 -0.0833
26967W        W43441   6.883   5.327   1.148  0.1125  0.0979  0.4716
26968W        W43442  18.049   2.774   3.332  0.2744 -0.1223  0.0448
26969W        W43443  19.518   8.549  13.591  0.1147 -0.1237  0.0331
26970W        W43444   0.795  18.321   2.870 -0.1271 -0.0647 -0.2758
26971W        W43445  18.599   4.626   1.741 -0.2387  0.0904  0.4423
26972W        W43446  11.339   4.145  11.312 -0.1883  0.0211  0.1657
26973W        W43447   6.425  16.036  12.058  0.1355 -0.1309 -0.0517
26974W        W43448  17.878  12.341  10.326 -0.1315  0.1234 -0.3987
26975W        W43449   2.779   9.585   0.811  0.0168  0.2335 -0.1646
26976W        W43450  12.916  16.650   4.351  0.4185  0.0661 -0.2408
26977W        W43451   3.724  19.148  10.754  0.3046 -0.2223 -0.4360
26978W        W43452   8.597  16.125   5.365 -0.1066  0.0044  0.1168
26979W        W43453  13.880   4.069  13.432 -0.1429 -0.2784  0.0508
26980W        W43454   0.262  15.708  13.108 -0.1099  0.1565 -0.1080
26981W        W43455   2.560  13.987   1.310 -0.1112 -0.0161 -0.1610
26982W        W43456  18.421   4.248   0.981 -0.3221  0.1519  0.1743
26983W        W43457   1.756   1.704  13.285 -0.0342  0.1448  0.1911
26984W        W43458   3.088  10.999   2.669 -0.2512 -0.0385  0.0002
26985W        W43459   7.355  11.000   0.343 -0.3246  0.0612 -0.0832
26986W        W43460  11.236   1.852  13.219  0.0724 -0.5300 -0.0615
26987W        W43461  11.918   2.835   2.610 -0.3501 -0.1213 -0.2287
26988W        W43462  15.028  16.513  12.503  0.0143  0.0918  0.0274
26989W        W43463  14.884  16.268   3.226  0.0401 -0.1592 -0.0126
26990W        W43464   2.579  16.246   0.392  0.2351 -0.2278 -0.1051
26991W        W43465  12.268   8.756   2.773 -0.2384  0.0533  0.1673
26992W        W43466  16.180   1.525   9.603 -0.2971  0.1707  0.2212
26993W        W43467   0.207   8.332   2.119  0.3247  0.0159  0.2784
26994W        W43468   8.560   8.082  11.486  0.0708  0.0472 -0.0340
26995W        W43469  10.935   5.637   0.148  0.0084 -0.0427  0.0959
26996W        W43470  14.265  16.718   3.858 -0.0024 -0.6572  0.0685
26997W        W43471   4.995  16.000   3.471 -0.0578 -0.2273  0.1890
26998W        W43472   8.416   2.599  10.574  0.1859  0.3842 -0.0975
26999W        W43473   4.861  14.479  10.161 -0.1389  0.4201 -0.1556
27000W        W43474  16.319   5.192   3.250 -0.1753 -0.0867 -0.5437
27001W        W43475  10.890   2.074  12.311 -0.0265  0.1007 -0.1666
27002W        W43476   0.131  12.556  13.665 -0.2980  0.1057  0.4572
27003W        W43477   3.080  18.623  10.089 -0.1791  0.0732 -0.2738
27004W        W43478  17.892   0.737   1.357 -0.3301  0.1398 -0.1936
27005W        W43479  18.629  17.506  10.688  0.0004 -0.1968 -0.2388
27006W        W43480   1.901  11.487   1.872  0.2031 -0.5414 -0.0755
27007W        W43481  18.377  12.714   2.887 -0.0297  0.1466 -0.0912
27008W        W43482  13.643   2.132   4.136 -0.0573 -0.3508 -0.2368
27009W        W43483   4.342  12.714  13.529  0.0197  0.0307  0.0383
27010W        W43484  17.277   9.237   3.622 -0.4725 -0.0411  0.0241
27011W        W43485  13.859  19.197  12.453 -0.2269  0.0296 -0.0770
27012W        W43486   4.333  18.598  13.859 -0.0366  0.0704 -0.1186
27013W        W43487   4.424   9.497   2.420  0.0738 -0.0137 -0.0937
27014W        W43488   6.459  10.121  13.596  0.5028 -0.1935  0.0668
27015W        W43489   4.712  18.972  10.428 -0.1604 -0.0015 -0.0332
27016W        W43490  13.682   4.733   3.164 -0.0962 -0.3210 -0.0308
27017W        W43491   1.421   2.273  12.727 -0.1965  0.2730  0.0613
27018W        W43492   5.235   4.197   2.472 -0.3390 -0.1036  0.0669
27019W        W43493  19.065   0.021   9.691  0.1540  0.0678  0.2117
27020W        W43494  15.423  13.238   0.813  0.3176 -0.1999  0.0576
27021W        W43495  13.570  10.791  12.589  0.3457  0.1656  0.2849
27022W        W43496   9.719   2.274  14.100 -0.0383 -0.1297 -0.2522
27023W        W43497  13.895   1.405  13.969 -0.0903 -0.0749 -0.0872
27024W        W43498  14.572  10.745  10.299 -0.1744 -0.2027 -0.0422
27025W        W43499   1.503  11.331   3.909  0.0729 -0.1274  0.2427
27026W        W43500   1.935  18.874   2.457 -0.4052 -0.0086  0.3661
27027W        W43501  14.984   5.440   5.051 -0.1264  0.4578  0.0351
27028W        W43502  17.346  11.163   0.430  0.0838  0.1915 -0.1154
27029W        W43503   4.552  12.811   0.033  0.0547  0.1061  0.0882
27030W        W43504  11.789  12.589   4.082 -0.0866 -0.1631  0.0386
27031W        W43505  14.851   8.045   3.422 -0.0744 -0.4094  0.2784
27032W        W43506  17.991  18.415  12.892  0.0071 -0.1999 -0.2407
27033W        W43507   0.717  16.426   1.813 -0.3611  0.0943 -0.0218
27034W        W43508   2.321   5.739   0.941  0.0261 -0.1322 -0.3510
27035W        W43509  17.657  11.061  10.978  0.0736 -0.5480 -0.0035
27036W        W43510   7.923   9.267   2.774 -0.0387  0.1187 -0.2429
27037W        W43511   5.576  18.996   1.940  0.1452  0.0160  0.0395
27038W        W43512   4.759  12.442  12.102 -0.1010  0.0454  0.0367
27039W        W43513  18.942  10.598  12.023  0.2861  0.3838  0.1083
27040W        W43514  10.441   5.191   3.251  0.0551 -0.0562 -0.1629
27041W        W43515  14.218  11.143   0.309 -0.2538  0.0771 -0.3003
27042W        W43516   8.934  15.967   9.982 -0.1729 -0.0947  0.2164
27043W        W43517   4.286  19.316   9.575 -0.1497 -0.1197 -0.3038
27044W        W43518   7.929  18.116   4.167  0.0578 -0.3255  0.1483
27045W        W43519   0.186   1.668   2.808  0.1312  0.1931  0.0363
27046W        W43520  12.911   6.169   2.310 -0.0291  0.1725 -0.1000
27047W        W43521   5.169   9.693   0.808  0.1364 -0.0128  0.0297
27048W        W43522  17.740   7.664  10.776  0.0132  0.0614  0.0548
27049W        W43523   9.808  12.052   2.036  0.0192  0.0118 -0.0559
27050W        W43524  15.270  19.132   4.587 -0.0901  0.0178  0.1687
27051W        W43525  15.607   0.029   4.150  0.4375 -0.1475 -0.2025
27052W        W43526  11.347   7.322  13.449  0.0961  0.2006  0.1432
27053W        W43527  14.974   2.924  13.624 -0.1974  0.0681  0.0597
27054W        W43528  14.228   4.667  11.224 -0.0037  0.0743 -0.2783
27055W        W43529  13.834   9.662   1.737 -0.1405  0.2361  0.1923
27056W        W43530  10.766   2.218  11.138 -0.2463  0.1857 -0.0713
27057W        W43531  17.778   1.820   0.398  0.0484 -0.2827  0.0957
27058W        W43532  12.203   7.206   3.615 -0.1691 -0.1158  0.2593
27059W        W43533   2.226  15.966   5.050  0.0759  0.0087 -0.0728
27060W        W43534  11.389  15.312  10.987 -0.2000 -0.1031  0.0357
27061W        W43535  13.818  15.927  10.903  0.2134 -0.1965 -0.1089
27062W        W43536   3.135  13.429   0.840  0.1498 -0.1350 -0.0879
27063W        W43537   7.741   1.040   5.374  0.2791 -0.0923  0.0719
27064W        W43538  12.194   2.452  11.976  0.0293 -0.1649 -0.1915
27065W        W43539  17.888  13.433  13.728 -0.2477 -0.0611 -0.1253
27066W        W43540   9.926  15.060  12.251 -0.1559 -0.2382 -0.1053
27067W        W43541   2.734   1.545   1.906  0.0668  0.0291 -0.2662
27068W        W43542   7.669   7.477   9.902 -0.0990 -0.2641  0.0266
27069W        W43543  15.863  10.913  11.059 -0.0357 -0.2237  0.2214
27070W        W43544   7.380  15.457   0.167 -0.2433  0.2038  0.1082
27071W        W43545  16.808   1.974   9.147 -0.0554  0.1445  0.0318
27072W        W43546   9.678   5.145  11.234 -0.2559 -0.1654  0.1117
27073W        W43547  14.308  16.489   2.458  0.2773  0.2169 -0.0705
27074W        W43548   9.751   8.425  12.686  0.0994  0.3081  0.1125
27075W        W43549  10.440   6.454  13.470 -0.3106 -0.2317  0.0761
27076W        W43550  19.228   6.718  12.568 -0.1462 -0.2255 -0.3023
27077W        W43551   4.069  15.668   3.534  0.3289 -0.1474  0.0547
27078W        W43552   9.558  11.802   0.771 -0.0294  0.1580  0.1365
27079W        W43553   9.294  19.586  14.041  0.0070  0.1646  0.2345
27080W        W43554   7.347   8.512  13.948  0.0345  0.0824  0.1337
27081W        W43555   6.329  14.551   3.547 -0.1155 -0.2264 -0.5403
27082W        W43556   9.378   4.302  11.248  0.1334 -0.1057 -0.2626
27083W        W43557   4.968   8.022   4.246  0.0098 -0.0152 -0.0896
27084W        W43558  18.267  12.729   0.052  0.1120 -0.2534 -0.1884
27085W        W43559  17.015  14.287  12.316  0.0689  0.1286  0.0552
27086W        W43560  14.297   0.713   4.402 -0.1371  0.0611 -0.2679
27087W        W43561  15.920   6.124  12.480 -0.1180 -0.0293  0.3387
27088W        W43562   5.640  10.112  13.122 -0.0470  0.0831 -0.1388
27089W        W43563  15.790  12.434  11.784 -0.1498  0.1562 -0.1217
27090W        W43564   2.224   5.400   4.716 -0.0572  0.0521 -0.0005
27091W        W43565  13.322  16.072   1.197 -0.1794 -0.0551  0.3218
27092W        W43566   7.690   8.754   2.461  0.0282 -0.2051  0.0952
27093W        W43567  15.732  11.871  14.092  0.1504  0.2529  0.0118
27094W        W43568   7.191   8.673   1.703  0.0325 -0.0039  0.2725
27095W        W43569   9.770  11.135   1.465  0.1129 -0.0222  0.1911
27096W        W43570   4.553   3.262  13.034  0.0573 -0.0041  0.0527
27097W        W43571  11.665   1.821   1.365 -0.0029  0.0289  0.2708
27098W        W43572  13.564  11.710   3.743  0.0608 -0.2325 -0.0239
27099W        W43573  10.687   8.971   4.969  0.2421 -0.0880  0.1211
27100W        W43574   8.686  17.171  12.553 -0.0386  0.2696 -0.0272
27101W        W43575   8.909   6.189   0.079  0.1000  0.0052 -0.0210
27102W        W43576  17.837  11.284   2.812  0.0099 -0.0577  0.0262
27103W        W43577   2.764   5.826   0.576 -0.3386 -0.2354  0.3755
27104W        W43578   7.968   9.181   4.171 -0.3491 -0.1597 -0.0815
27105W        W43579   8.359   2.072   1.579  0.0801  0.2495  0.1603
27106W        W43580   5.362  16.740  12.627 -0.1411  0.2254 -0.1287
27107W        W43581  17.959   1.802   1.354  0.1184  0.1985  0.3464
27108W        W43582   5.224   2.484  10.865  0.3966 -0.0043 -0.5419
27109W        W43583   4.860   6.195   1.300 -0.5369  0.3389  0.0900
27110W        W43584   9.166   4.969   1.965  0.1650  0.1927 -0.1162
27111W        W43585  12.904   3.076  14.154  0.0647  0.2307 -0.2404
27112W        W43586  14.846   6.349   3.665 -0.2131 -0.1155  0.0033
27113W        W43587   2.980  14.507   5.155  0.1546  0.0156 -0.1525
27114W        W43588  15.297   6.373  13.032  0.0875  0.0089 -0.0897
27115W        W43589  14.970   6.283   0.529 -0.0267 -0.3677  0.4992
27116W        W43590   3.823  19.214   4.663 -0.0807 -0.0493 -0.0006
27117W        W43591   6.843  19.131   0.568 -0.1482  0.4723  0.1723
27118W        W43592   7.493  14.186   0.303  0.0465  0.1903  0.0416
27119W        W43593   8.501   7.609  14.345 -0.1090 -0.1352 -0.0210
27120W        W43594   6.640   7.374   2.531  0.1795  0.0120 -0.0552
27121W        W43595   4.861  10.477   3.874 -0.1985 -0.1009 -0.2211
27122W        W43596   2.740   0.582   0.094 -0.0030 -0.0294  0.3144
27123W        W43597  15.679   9.348  13.267  0.1677 -0.1936 -0.3118
27124W        W43598   7.100   7.616   2.673 -0.0510 -0.1432 -0.1718
27125W        W43599  14.316  18.227  10.436  0.2780  0.1729 -0.3449
27126W        W43600  11.164   0.215   2.481 -0.0699  0.1737  0.1763
27127W        W43601  18.283  10.807  13.120 -0.3907 -0.1661  0.0991
27128W        W43602  19.289  10.633  12.991 -0.0457 -0.1509 -0.0641
27129W        W43603   7.589  11.014   8.982  0.4726 -0.1217 -0.1541
27130W        W43604   7.412  13.583   0.917 -0.1231 -0.0845  0.1483
27131W        W43605  11.249   0.343  12.639 -0.2617  0.0535  0.2092
27132W        W43606  10.601   3.246   1.902 -0.2683  0.1027 -0.2445
27133W        W43607   4.155  17.338   0.676 -0.3182 -0.0091  0.2387
27134W        W43608  10.441  10.066  11.025 -0.1543  0.4177 -0.0604
27135W        W43609   8.255   2.312   2.844 -0.1163  0.0177  0.1834
27136W        W43610   0.546   1.704  10.331 -0.3226 -0.5481 -0.0066
27137W        W43611  16.597  10.858   1.759  0.1505  0.0338 -0.2159
27138W        W43612   5.993   2.557  12.857  0.2205 -0.0952 -0.3068
27139W        W43613  11.358  15.952  10.736 -0.0822  0.1242  0.1189
27140W        W43614   2.133  11.567   1.453  0.1457 -0.1366  0.2440
27141W        W43615  15.564  18.416   2.122  0.0252 -0.0288  0.0858
27142W        W43616   6.845  18.908   2.558 -0.0437 -0.1442  0.2176
27143W        W43617   4.621  12.591   4.241  0.0932  0.1234 -0.0394
27144W        W43618  17.186  12.010   3.069  0.0990 -0.1795  0.3550
27145W        W43619   2.691  15.792   1.496 -0.2636  0.0372  0.0104
27146W        W43620   9.148   4.418   2.711  0.1673 -0.0216  0.0841
27147W        W43621  14.410   6.618   4.829  0.0610  0.1423 -0.3176
27148W        W43622   3.922  18.220   3.136  0.1316  0.0215  0.1564
27149W        W43623   2.263   5.723  13.485  0.3588 -0.2312  0.1581
27150W        W43624   0.421  11.768   3.708 -0.1325 -0.0542 -0.0294
27151W        W43625  14.062   5.425  12.772 -0.1645 -0.0463  0.3475
27152W        W43626   6.102  15.332   4.444  0.2901  0.2991 -0.0378
27153W        W43627  13.434   6.253   4.987 -0.0911 -0.5341  0.3994
27154W        W43628  19.167  14.467  11.559  0.2699  0.2387 -0.2112
27155W        W43629  14.258   0.101   3.588  0.0931  0.2384  0.1407
27156W        W43630  14.725   6.631   1.633  0.0235  0.2439 -0.2708
27157W        W43631   7.529   1.084   3.448  0.2910 -0.0588  0.1485
27158W        W43632  15.251  13.632  11.521  0.2627 -0.2704 -0.4359
27159W        W43633   1.487  11.170   5.005  0.0129  0.3294  0.3620
27160W        W43634  19.244  14.901  12.859  0.0236  0.3701  0.2114
27161W        W43635   2.046   7.208   1.382  0.1057 -0.2169  0.0503
27162W        W43636   8.663   8.735   1.028  0.0056 -0.0786  0.1453
27163W        W43637  11.089  12.136   1.146  0.0623  0.2066  0.1229
27164W        W43638   1.980   1.990   0.501 -0.3423 -0.2205 -0.0468
27165W        W43639   0.230   2.577   3.848  0.0664 -0.0227 -0.2519
27166W        W43640  19.330  10.925   1.283  0.1777 -0.0739 -0.1496
27167W        W43641   6.422  16.815   4.665 -0.2244  0.0243 -0.1881
27168W        W43642   6.428   3.078   4.064 -0.2223 -0.0401 -0.2391
27169W        W43643   3.682  18.801  12.924  0.1985  0.0387 -0.1493
27170W        W43644   6.803   9.279  10.967 -0.0665 -0.0607  0.0510
27171W        W43645   2.787  11.291   0.789  0.0759  0.2466  0.1292
27172W        W43646  12.326   1.414   1.910  0.0332 -0.1460  0.2581
27173W        W43647   7.902  10.191   2.833  0.1345 -0.2153 -0.0987
27174W        W43648   8.574  16.697   1.904  0.1376  0.0981  0.0148
27175W        W43649  19.252  11.541   4.817  0.4477  0.1413  0.1791
27176W        W43650   5.074   2.381  11.361  0.0333  0.0737  0.0669
27177W        W43651  19.226  16.538  13.874  0.2869  0.0015 -0.0285
27178W        W43652   2.893   6.261   1.666  0.0594 -0.0228 -0.2464
27179W        W43653   8.384   6.885   3.024 -0.0476 -0.3478 -0.0609
27180W        W43654   6.148  19.116   3.557  0.2045  0.1905  0.0704
27181W        W43655   5.212  18.691  14.187 -0.0127 -0.0797 -0.0527
27182W        W43656  12.412  13.806   4.329 -0.1737  0.0688  0.0116
27183W        W43657  14.381   2.337  13.299  0.2789  0.1314  0.1101
27184W        W43658  11.775  16.803   1.598 -0.2678 -0.0762  0.0156
27185W        W43659  11.400  10.893  10.778 -0.0766  0.0548 -0.0058
27186W        W43660  18.410  12.291   1.438 -0.1637 -0.0887 -0.2389
27187W        W43661  19.123   6.792   0.831  0.0315  0.0541 -0.0028
27188W        W43662  17.030  10.425  11.355 -0.0474 -0.0538 -0.1281
27189W        W43663   1.811  10.021  12.137  0.2085 -0.0158 -0.0404
27190W        W43664   6.107  13.218   3.089 -0.1411 -0.1787  0.1199
27191W        W43665  14.565  18.815   5.261 -0.0165  0.1904 -0.5541
27192W        W43666   1.744   8.150   9.083 -0.1509 -0.1077  0.1785
27193W        W43667  15.520   3.168  12.693  0.0896  0.1964  0.1968
27194W        W43668  19.416  19.196   4.376 -0.0485 -0.1520  0.1146
27195W        W43669   3.984   5.761   3.017 -0.0171 -0.1319  0.2086
27196W        W43670   0.956   2.235   1.357 -0.0821  0.2260 -0.0587
27197W        W43671  15.878  15.642   2.165  0.0810 -0.0248  0.0194
27198W        W43672  11.492   8.772   3.432 -0.1172  0.2130 -0.0498
27199W        W43673  10.214  16.293  13.270 -0.0484  0.1195 -0.1082
27200W        W43674  19.067   6.708   2.989  0.2211 -0.1513  0.0125
27201W        W43675   6.432  16.612   5.145  0.0609 -0.2858 -0.2304
27202W        W43676   5.472  16.260  12.370  0.1683 -0.2392  0.3389
27203W        W43677   4.766   8.834  10.713 -0.1294  0.0239 -0.0457
27204W        W43678  14.591  14.222   0.040 -0.0794 -0.3169 -0.1050
27205W        W43679  12.914  10.164  11.846 -0.2196  0.1160  0.3032
27206W        W43680   1.108  11.274  13.219  0.0105  0.1002  0.3329
27207W        W43681  12.046   4.180  12.922  0.1690 -0.2319  0.2064
27208W        W43682  15.165  17.062   1.083 -0.1117  0.0505 -0.2593
27209W        W43683  13.285  17.946   3.290  0.4115 -0.0225  0.3027
27210W        W43684   8.731   5.299   0.201 -0.3893 -0.3031 -0.1890
27211W        W43685  14.959  18.908  13.029 -0.2043  0.3100 -0.0184
27212W        W43686   3.848   5.275   1.133  0.4152  0.1828 -0.1324
27213W        W43687  17.874   4.377  10.206 -0.4138  0.0860  0.0997
27214W        W43688  14.164  19.463   4.100 -0.1050 -0.0912  0.1466
27215W        W43689   6.615   6.226   1.113  0.0564 -0.0443 -0.0345
27216W        W43690   7.309   3.942   1.446 -0.1308 -0.1893 -0.0791
27217W        W43691   5.394   7.597  10.732 -0.0941 -0.4366  0.0796
27218W        W43692   1.696   0.725   2.015 -0.1773 -0.2946 -0.4234
27219W        W43693  16.609  11.976   2.204  0.1263 -0.0229  0.1066
27220W        W43694   6.565   2.142  14.174  0.2924  0.2639  0.0154
27221W        W43695   9.694  16.168  14.651  0.0967 -0.2077 -0.2252
27222W        W43696   0.234  18.967  13.193  0.2713  0.4635  0.3940
27223W        W43697  16.763   2.369  13.219  0.0163 -0.0785 -0.0368
27224W        W43698  19.002  13.999   4.162 -0.0200  0.0320  0.1441
27225W        W43699   7.016  17.973  11.588  0.1947  0.2021  0.0029
27226W        W43700  15.300  17.016   2.691 -0.1822  0.2044 -0.1162
27227W        W43701   4.584  15.787   3.725  0.0140 -0.0761 -0.1972
27228W        W43702   0.402   4.818   1.525  0.1058 -0.0539  0.2672
27229W        W43703  15.689   4.035  13.966  0.1421  0.0551 -0.2801
27230W        W43704  15.670   4.257   0.716 -0.2425 -0.1337  0.0588
27231W        W43705   8.655   4.597  10.954 -0.2732 -0.1792  0.0043
27232W        W43706  16.433  19.436  12.742  0.1007 -0.1121 -0.1680
27233W        W43707  17.579   3.765   3.079 -0.5642 -0.1478 -0.1209
27234W        W43708  11.482  11.271   2.231 -0.2014 -0.0356 -0.1823
27235W        W43709  12.081  13.202   3.859  0.0515  0.1069 -0.2395
27236W        W43710  13.950   3.682   3.132 -0.0249 -0.2420  0.0429
27237W        W43711   5.925  11.569   2.745 -0.2788  0.0943  0.0410
27238W        W43712  17.061   1.618   0.091 -0.0682 -0.1917 -0.4544
27239W        W43713   7.390   1.021   2.956  0.0644 -0.0515 -0.0826
27240W        W43714  10.772  16.015  13.921 -0.0103  0.0768  0.1299
27241W        W43715   9.315  10.148  10.258  0.2815  0.0284  0.0005
27242W        W43716  18.635   9.867  14.063  0.2314 -0.1679  0.2150
27243W        W43717  12.785  15.662   1.539  0.0658 -0.2546  0.3188
27244W        W43718  13.974   6.532  12.710  0.3321  0.2354  0.1422
27245W        W43719  11.868   1.399   3.262  0.2874  0.1754 -0.4372
27246W        W43720  17.488  15.098  12.850 -0.4847  0.0977 -0.2304
27247W        W43721  10.617   8.931  13.559 -0.1528  0.3173 -0.1634
27248W        W43722  15.843  10.156   1.746  0.0328  0.0124 -0.1294
27249W        W43723  12.616   9.630   0.736 -0.0773  0.0837 -0.1405
27250W        W43724   3.034  16.907   0.633 -0.0170  0.3139 -0.0843
27251W        W43725  11.214   9.263  10.830 -0.3040  0.4569 -0.4044
27252W        W43726  11.302   8.740  13.399 -0.3322 -0.0880 -0.1487
27253W        W43727   2.619  10.357   3.426  0.2684 -0.1079 -0.3686
27254W        W43728  16.174  17.931   0.670  0.3104 -0.1507  0.0312
27255W        W43729  10.831   3.066   3.783 -0.0563 -0.0205  0.0538
27256W        W43730   0.969   3.812  13.581 -0.2876  0.0776 -0.2943
27257W        W43731   3.601   2.445  12.090 -0.0369 -0.2703  0.0987
27258W        W43732  19.171   0.662  10.352 -0.0331  0.1294  0.0937
27259W        W43733  17.030  18.070   2.076 -0.0486  0.3575 -0.1833
27260W        W43734  15.354  13.951   1.909 -0.2575  0.2059 -0.1731
27261W        W43735   5.449  18.798   0.564 -0.1055  0.1238 -0.3313
27262W        W43736   1.520  12.512   1.493  0.1766  0.1105 -0.1679
27263W        W43737  15.485  11.716   2.229  0.1167  0.0811 -0.0387
27264W        W43738   7.057  16.793   2.445  0.1464 -0.1757 -0.0939
27265W        W43739  12.061   3.664  10.750 -0.0627  0.0737 -0.1500
27266W        W43740  18.372   2.804  11.927 -0.2659  0.2776  0.2943
27267W        W43741  10.350   7.978   2.989  0.2280 -0.0733 -0.1629
27268W        W43742   0.030   5.030   3.973 -0.1393 -0.0847 -0.0430
27269W        W43743   5.698   3.294  11.212 -0.0925  0.0860 -0.0064
27270W        W43744   7.362   0.402  13.433 -0.2711 -0.0983 -0.1364
27271W        W43745  10.791   5.820   2.796 -0.0550  0.2143 -0.1790
27272W        W43746  17.425   5.863  14.256  0.3593  0.4101  0.3135
27273W        W43747  12.931  11.996  11.580 -0.4961 -0.0747  0.0067
27274W        W43748  18.475  17.757  14.245  0.1125 -0.0104  0.5657
27275W        W43749  13.622  16.328   5.221  0.4687  0.0887 -0.0620
27276W        W43750   5.475  13.957  14.484  0.1699  0.0351  0.1908
27277W        W43751  15.102   1.608  14.281  0.2089  0.1731  0.0671
27278W        W43752  19.335  12.933  12.464  0.2092 -0.1124  0.0307
27279W        W43753   1.019  17.758   5.294 -0.0043 -0.1372  0.2653
27280W        W43754   1.615   3.142  10.653  0.0750  0.2282 -0.1899
27281W        W43755   3.161  10.202   1.392 -0.2339 -0.1102  0.0576
27282W        W43756   2.721  16.432   4.538 -0.0562 -0.0884  0.0323
27283W        W43757  17.915   6.430  11.508  0.1992 -0.2555  0.3040
27284W        W43758   7.532   2.283  10.823 -0.2129 -0.0384 -0.2935
27285W        W43759   5.895   3.967   0.038 -0.2437  0.3511  0.0450
27286W        W43760   1.856  10.790  12.493 -0.3245  0.1173  0.1473
27287W        W43761  16.847  11.362   4.090  0.4604  0.2558  0.2365
27288W        W43762  18.783   6.010  13.099 -0.1369 -0.1827 -0.2136
27289W        W43763  11.647   6.299   0.629  0.1684 -0.1621 -0.1023
27290W        W43764   8.625   8.092  12.385 -0.1574  0.0988 -0.1691
27291W        W43765   5.042   6.095   0.032 -0.0304  0.1497  0.0298
27292W        W43766   2.863   8.942   2.154  0.1805  0.1144 -0.0124
27293W        W43767   5.355   1.818  13.802  0.0264  0.0506 -0.2288
27294W        W43768   5.095  19.597   9.791  0.1103  0.0762  0.2721
27295W        W43769  17.825  15.466  12.099 -0.0505  0.1664 -0.1932
27296W        W43770   7.296   7.183  14.609 -0.0834 -0.4225 -0.3029
27297W        W43771  13.574  10.132   4.367  0.1515 -0.0751  0.2384
27298W        W43772  11.734  10.177   3.986 -0.2136  0.2648 -0.1685
27299W        W43773  18.116   5.220  14.579 -0.0446  0.1624  0.3187
27300W        W43774  12.348   8.745   3.333  0.1211 -0.5385  0.3185
27301W        W43775  11.029   6.118   1.886 -0.1203 -0.0017  0.0278
27302W        W43776  10.643   9.616   4.349 -0.2990 -0.0021 -0.2043
27303W        W43777   9.466  11.440   4.220 -0.1011  0.1415  0.3683
27304W        W43778  19.204  13.121   9.706  0.0740 -0.0730  0.1758
27305W        W43779   2.381  16.190   4.189 -0.0885 -0.1655  0.3078
27306W        W43780  14.012   9.240   0.953  0.0487 -0.1686 -0.2542
27307W        W43781   8.242   8.161   2.469  0.0971  0.0875  0.0915
27308W        W43782  13.300  13.711  11.986  0.0970 -0.5919 -0.0026
27309W        W43783  12.800  13.239   2.443 -0.1669  0.1912 -0.1369
27310W        W43784  16.521   8.869   3.668  0.1042  0.2269 -0.0178
27311W        W43785   1.276   1.039  10.204  0.0401  0.0525 -0.0356
27312W        W43786   8.753   7.438  13.954  0.0974 -0.0329  0.0953
27313W        W43787  15.775  17.519   2.256 -0.5779  0.1710  0.0722
27314W        W43788  13.286   5.762   3.500  0.2096  0.0119  0.0043
27315W        W43789  18.300   4.747  12.487  0.1342  0.3116  0.1985
27316W        W43790   2.185   9.947   3.114  0.1896 -0.1404  0.1557
27317W        W43791  10.557  12.610  12.421  0.2852  0.1113 -0.0244
27318W        W43792  11.759   1.326  13.773 -0.2674  0.2634 -0.0679
27319W        W43793   1.795  11.643   3.567  0.1396 -0.3416 -0.0919
27320W        W43794   5.561   3.010   3.696 -0.0512 -0.1081 -0.1313
27321W        W43795  18.718  12.066   1.826 -0.2316 -0.0021 -0.1436
27322W        W43796  18.515  14.656   0.470  0.0696  0.2857 -0.1675
27323W        W43797   5.964  19.440   2.589 -0.0132 -0.1153  0.0502
27324W        W43798  14.176   9.489  11.971 -0.1070  0.0672  0.1199
27325W        W43799  16.998  12.611  11.882  0.4506 -0.3023 -0.1430
27326W        W43800   6.027  19.136   4.812  0.0056  0.1165  0.1406
27327W        W43801  18.091  10.176  14.186  0.0011  0.0438 -0.1996
27328W        W43802  13.317  12.917   5.132  0.2261  0.2114  0.0536
27329W        W43803  17.082  11.716   0.518 -0.1279  0.2093  0.0804
27330W        W43804   3.013  14.700  13.664 -0.1325  0.1318  0.2811
27331W        W43805   4.675  12.757  11.681  0.0357 -0.3542 -0.2447
27332W        W43806  13.790  10.363  10.233 -0.3696  0.1755 -0.3005
27333W        W43807  10.912  12.863  10.208  0.0234  0.2620  0.1478
27334W        W43808   1.041   1.690   3.136  0.2914  0.1221  0.2484
27335W        W43809   0.149   7.358   0.907 -0.2108  0.3101  0.2073
27336W        W43810  11.300  13.852   4.176 -0.1491  0.4442  0.4163
27337W        W43811  16.369  14.534  14.495  0.2347 -0.1870  0.2724
27338W        W43812  17.886  10.980   0.346 -0.4170 -0.0253  0.0214
27339W        W43813  16.211   1.144  13.660  0.1583  0.1339  0.0359
27340W        W43814  19.320   3.491   0.605 -0.2218  0.0327  0.0717
27341W        W43815  14.477  15.991  14.117  0.3288  0.2067  0.1384
27342W        W43816  16.462  17.828   5.472 -0.0541  0.0180 -0.0720
27343W        W43817  12.314  15.356   3.886  0.0131  0.2055  0.3579
27344W        W43818  11.706  16.465   0.900  0.0592  0.0774 -0.3204
27345W        W43819   8.730  10.629   5.068  0.1862 -0.0152 -0.0272
27346W        W43820  11.128   2.523  14.308  0.1569  0.0264  0.3164
27347W        W43821  17.387   9.116  12.313  0.0998 -0.1743 -0.1066
27348W        W43822   7.303   1.343   8.917 -0.0168 -0.3081 -0.2013
27349W        W43823  11.323  11.533   2.660 -0.3587  0.0840 -0.1611
27350W        W43824   1.192  17.293  11.449 -0.0773  0.2419 -0.0796
27351W        W43825   0.735  12.117  13.244 -0.1565  0.3738  0.2371
27352W        W43826   8.295   4.145  12.654  0.1327 -0.2088 -0.0775
27353W        W43827   8.742   4.552   9.967 -0.0695  0.1403  0.0054
27354W        W43828  12.908  11.492  12.326  0.2328  0.0429  0.0753
27355W        W43829   2.037   2.221   9.873  0.0724  0.1316  0.4651
27356W        W43830  17.207   9.768   3.555 -0.0433  0.0336  0.1759
27357W        W43831   2.216  13.028   4.133  0.3016  0.1303 -0.2175
27358W        W43832   5.636   5.831   2.530  0.2582  0.1900 -0.1904
27359W        W43833  13.267   0.372   2.877 -0.0492 -0.0145  0.0949
27360W        W43834   4.288   4.162  10.331 -0.1102  0.1668  0.0310
27361W        W43835   0.149  10.620  12.886 -0.6517  0.3805 -0.1629
27362W        W43836   3.223  18.778  10.918  0.0296  0.1095  0.0368
27363W        W43837  17.137  11.862   2.140  0.1128 -0.0229 -0.2936
27364W        W43838  15.478  15.608   1.873 -0.0977  0.1613  0.5022
27365W        W43839   6.108   9.524   0.333 -0.1708 -0.1676 -0.0038
27366W        W43840  19.505  10.794   0.005  0.1025  0.3706 -0.0757
27367W        W43841   3.845  14.066  14.592  0.0938  0.0138 -0.0282
27368W        W43842  12.575  17.466   4.769  0.4262  0.0649 -0.0385
27369W        W43843   2.993   5.744   1.385 -0.1895  0.1719 -0.1243
27370W        W43844  13.418  19.572   4.863 -0.0390  0.1129 -0.2829
27371W        W43845  13.333  16.423   4.084 -0.1554  0.0022  0.1484
27372W        W43846   4.618   6.868  13.533 -0.1632 -0.1562 -0.2520
27373W        W43847  16.819  18.074   1.078  0.1472  0.1014  0.2045
27374W        W43848  12.266   2.914   2.989 -0.0254  0.0906  0.1313
27375W        W43849  15.468  16.546   2.276 -0.0801 -0.0846  0.1158
27376W        W43850   8.441  17.776   1.755 -0.2132  0.2292 -0.2125
27377W        W43851   8.628  12.198  12.999 -0.0768 -0.2253  0.3730
27378W        W43852   5.767  16.533  10.500  0.0440 -0.0231 -0.0234
27379W        W43853  11.424   2.387  13.539  0.1228  0.0033  0.3982
27380W        W43854   7.913  14.466   5.327 -0.0058  0.0580 -0.0732
27381W        W43855   0.422   6.065  14.076  0.1985 -0.1668 -0.2520
27382W        W43856   7.630   8.998   0.875 -0.1177 -0.0413 -0.0482
27383W        W43857  18.234   4.784  10.982 -0.1273  0.1118  0.2384
27384W        W43858   7.576   7.857  11.625  0.0592  0.3638  0.1762
27385W        W43859   7.847  13.262   4.979  0.0585  0.0422 -0.3567
27386W        W43860   9.075   0.661  13.828  0.0674  0.1062 -0.4994
27387W        W43861   1.775   8.468   3.622 -0.0582  0.1208 -0.3219
27388W        W43862  16.397  18.722   4.798  0.0939 -0.0779  0.1082
27389W        W43863   2.934   1.974   2.094  0.0395 -0.0345  0.1980
27390W        W43864  19.438   6.495   2.800  0.1768 -0.4019 -0.0406
27391W        W43865   8.205   0.376   1.455  0.0464  0.0106 -0.0844
27392W        W43866  14.968  12.680   3.415  0.0336 -0.1570 -0.0562
27393W        W43867   1.025   6.078  11.195 -0.2226  0.3599 -0.2733
27394W        W43868   2.396  13.405  11.674  0.1236 -0.5247  0.0526
27395W        W43869   8.817   6.862  14.042  0.1116  0.0601 -0.0976
27396W        W43870  17.286   6.067   3.374  0.0829 -0.2354 -0.0505
27397W        W43871  11.038   7.483   2.290  0.1433  0.1044 -0.2611
27398W        W43872  18.992  17.213   2.235  0.0586 -0.2428  0.0217
27399W        W43873   8.363   8.747   3.987 -0.0813 -0.0966  0.0569
27400W        W43874  16.352  11.722  12.009  0.1179  0.1832 -0.1646
27401W        W43875   6.307   1.355   1.297  0.2657 -0.2594  0.1662
27402W        W43876  12.122  10.358   0.865 -0.0774  0.0416  0.0574
27403W        W43877   3.947   6.105   3.901  0.0744  0.0484  0.1942
27404W        W43878  10.987  13.684  12.890  0.1266  0.0643 -0.2031
27405W        W43879   0.487   2.680   3.393  0.4115 -0.0120  0.0660
27406W        W43880   5.124   6.586  12.911 -0.1084  0.2604 -0.4076
27407W        W43881   1.376   2.159  13.439 -0.1655  0.2343  0.1009
27408W        W43882  18.957  14.778  13.224  0.0798  0.1327  0.1523
27409W        W43883  10.148  10.343  11.933  0.0733  0.1271 -0.1791
27410W        W43884   6.601  18.380  12.150  0.0757 -0.2421 -0.0812
27411W        W43885   0.114  12.135   0.291  0.1788 -0.4139  0.0169
27412W        W43886   0.016   5.219  10.145  0.1584  0.0858  0.1660
27413W        W43887  11.470  17.829   5.225 -0.1808 -0.1702 -0.2832
27414W        W43888   0.797   0.725   2.203  0.0596  0.2189 -0.1068
27415W        W43889  10.837   8.419  11.186  0.1736  0.1276 -0.2409
27416W        W43890  15.392   8.866   4.007 -0.0087  0.3000 -0.2098
27417W        W43891   9.529  13.647  13.817  0.3149 -0.2109 -0.1652
27418W        W43892  17.443   7.845   4.532 -0.0560 -0.1385  0.0113
27419W        W43893   8.709  19.012  12.606 -0.2838 -0.0463 -0.1055
27420W        W43894   4.029  11.951  11.841  0.0299 -0.2069 -0.2838
27421W        W43895   1.794  17.843  13.981 -0.0459  0.1005  0.0671
27422W        W43896   9.146  10.435  13.596 -0.4801 -0.0818 -0.0679
27423W        W43897  12.018  13.570  14.126  0.2821  0.3190 -0.0176
27424W        W43898   7.681  11.489   3.962 -0.2297 -0.1039 -0.0939
27425W        W43899  16.393  13.496   4.323 -0.2157  0.3660  0.0747
27426W        W43900   3.965   2.958  13.742  0.2999  0.0158  0.1162
27427W        W43901  15.703  15.372  10.576 -0.1139  0.2005 -0.0228
27428W        W43902   7.935   5.612   1.535 -0.0414 -0.4586 -0.1984
27429W        W43903  12.923  10.429  14.166 -0.4731 -0.0464 -0.0281
27430W        W43904  12.796   5.647   3.891  0.2800 -0.2289 -0.2334
27431W        W43905   9.689  19.403  13.722 -0.0831 -0.0966 -0.0564
27432W        W43906   0.559  19.296   4.785 -0.0501 -0.1656 -0.1721
27433W        W43907  14.645  14.183   4.806  0.2959  0.1799  0.1593
27434W        W43908   8.723  12.514   1.468 -0.0366  0.2278 -0.0302
27435W        W43909   8.662  16.672  14.388  0.1389 -0.3078  0.0674
27436W        W43910  12.578  12.630  14.357 -0.0704 -0.1382 -0.0922
27437W        W43911  15.691  17.255   3.957  0.1214 -0.2669 -0.0596
27438W        W43912  10.413  12.909   4.642 -0.3163 -0.1922 -0.2492
27439W        W43913   8.143  11.231   0.404  0.5384 -0.1424  0.0434
27440W        W43914   7.257   0.107   1.788 -0.1490  0.0513 -0.0517
27441W        W43915  19.006  11.016  14.371 -0.6900  0.0565  0.0911
27442W        W43916  17.986  11.503   0.070  0.1191  0.0932 -0.5174
27443W        W43917   0.955   5.841   3.094 -0.3703 -0.1839  0.3401
27444W        W43918  18.200   3.662  12.223 -0.2064  0.0742  0.0422
27445W        W43919   9.114  14.354   5.886  0.0959  0.1175 -0.0865
27446W        W43920   6.203  16.858  11.457 -0.1715 -0.0593  0.2596
27447W        W43921   7.327   0.627   1.029  0.2999 -0.1367  0.1499
27448W        W43922  13.244  17.417  12.675 -0.1413 -0.1551 -0.1151
27449W        W43923  13.803   0.460  13.987  0.2872 -0.1633  0.0308
27450W        W43924   3.071  17.737  13.774 -0.3418 -0.2448 -0.0085
27451W        W43925   7.122   2.324   1.535 -0.0027  0.3028 -0.2139
27452W        W43926  14.253  12.183  11.884  0.1442  0.2322 -0.0579
27453W        W43927  17.715  18.804   4.573  0.0070  0.0838  0.0541
27454W        W43928  19.037  10.303   2.519  0.1304  0.1468  0.1044
27455W        W43929   6.668  10.112  10.533  0.0371  0.1206  0.3142
27456W        W43930   4.837  10.042   4.183  0.0650 -0.0682  0.1608
27457W        W43931   7.301  14.171  13.512 -0.1110  0.1448  0.1266
27458W        W43932  18.085  12.823   3.314  0.2014 -0.1198 -0.3106
27459W        W43933  12.880  11.074   3.479 -0.0654  0.1566  0.1461
27460W        W43934  15.241   2.893  13.221 -0.0471 -0.1156 -0.0963
27461W        W43935  13.129   8.696  11.611  0.0851 -0.2033 -0.2914
27462W        W43936   7.551   1.472   0.063 -0.1475 -0.2110  0.1709
27463W        W43937   4.289   3.443  13.426  0.0540  0.1691 -0.0787
27464W        W43938  14.073  14.153  13.569  0.0944 -0.1901 -0.1188
27465W        W43939  17.741   7.692  13.894  0.2768  0.2917  0.0271
27466W        W43940   2.889   3.882  13.422  0.0863 -0.1396  0.0628
27467W        W43941  17.131  12.730   4.087  0.1428 -0.0842 -0.1248
27468W        W43942  13.952  18.954   3.233 -0.0119 -0.1744  0.1211
27469W        W43943  11.353  17.784  11.004  0.2266 -0.1019 -0.0401
27470W        W43944   4.319  17.185   3.127  0.2433  0.2897 -0.0719
27471W        W43945  13.026   3.162   3.199  0.2362 -0.3766 -0.1882
27472W        W43946  18.128  17.751  10.693 -0.0096  0.2664  0.0164
27473W        W43947  17.901   3.637   0.741  0.2470 -0.1659  0.3344
27474W        W43948   5.382   4.245   9.704 -0.3415  0.1572  0.2087
27475W        W43949  14.145   2.135   0.868  0.3493 -0.1470  0.1096
27476W        W43950  14.536   5.601   1.587 -0.0619 -0.1366 -0.2807
27477W        W43951   4.709  17.880   1.325  0.3637  0.1467  0.3525
27478W        W43952  13.983   1.207   2.105  0.4191  0.0059  0.0849
27479W        W43953   0.713   9.477   4.464 -0.2015  0.4220 -0.2251
27480W        W43954  19.381  15.759  10.392  0.3254 -0.1618 -0.0802
27481W        W43955   5.400  17.074   4.329 -0.1557 -0.1127 -0.0343
27482W        W43956   9.577  13.444   2.444 -0.4201  0.3282  0.1908
27483W        W43957  17.063  19.111   3.216  0.3086  0.1466  0.0940
27484W        W43958  13.868  15.910  12.228  0.0767  0.0565 -0.4820
27485W        W43959  17.127  14.090   0.328 -0.2016 -0.0094 -0.2275
27486W        W43960  10.867  17.917   4.978  0.0209  0.1982  0.1920
27487W        W43961  14.518   7.526  12.981 -0.2266  0.1333  0.0659
27488W        W43962  16.096  16.740  10.740  0.0252 -0.2303  0.3258
27489W        W43963  17.471  13.878  14.665  0.1933  0.0097 -0.1252
27490W        W43964  10.922  11.769   4.129  0.1783  0.1120  0.1326
27491W        W43965  17.725   2.471   2.820  0.1668 -0.1122  0.0982
27492W        W43966  13.592  14.471  11.300  0.1472 -0.1758  0.1979
27493W        W43967  17.101   5.504  10.502 -0.0301  0.0340 -0.2954
27494W        W43968   9.411  15.210   2.112  0.2770  0.1277 -0.1544
27495W        W43969  10.268  17.347  10.923  0.0988  0.3213  0.2098
27496W        W43970  12.685   4.136   4.348  0.0199  0.1163  0.1921
27497W        W43971   9.492   9.466   3.598  0.3152  0.0367 -0.2319
27498W        W43972  19.447   7.963  13.753 -0.2131  0.0623 -0.2068
27499W        W43973  15.021   8.702   4.288 -0.2968 -0.2206  0.1564
27500W        W43974  15.302   4.861  14.644  0.0690 -0.1121  0.0258
27501W        W43975   3.537  17.998   1.743  0.0576  0.0279  0.2441
27502W        W43976  10.827   2.019   0.726 -0.1449  0.1908  0.3315
27503W        W43977   7.241   1.945  13.789  0.3238  0.0375 -0.3151
27504W        W43978  12.272   9.870  14.614  0.1298  0.0703  0.1708
27505W        W43979  14.188  17.197   1.161  0.1277 -0.0400 -0.2282
27506W        W43980  13.853  12.364  13.648  0.1591 -0.0041  0.4174
27507W        W43981  13.435   2.403  13.560 -0.0917 -0.1066  0.0825
27508W        W43982   4.222  19.012   4.194 -0.1379 -0.1107  0.0152
27509W        W43983  17.531   0.809  13.235  0.1088  0.1115  0.0499
27510W        W43984   3.315   4.982  13.741 -0.0294 -0.3354 -0.0068
27511W        W43985  11.755  17.517   2.595 -0.0044  0.0492  0.0739
27512W        W43986  11.636   9.784   2.577  0.2333  0.0127  0.0773
27513W        W43987  10.441   5.431   3.778  0.0401  0.1123 -0.5147
27514W        W43988  17.588  11.833  11.539  0.3708 -0.0833 -0.0816
27515W        W43989   7.126   5.396  11.480 -0.0626  0.1905 -0.0356
27516W        W43990   1.186  12.741   4.254 -0.1845 -0.2040 -0.2956
27517W        W43991   1.270  15.573   3.382  0.1892 -0.3018 -0.1230
27518W        W43992   2.166   5.905  12.024  0.0739  0.3399  0.0279
27519W        W43993  13.576  13.785   5.769  0.2108 -0.0971  0.1950
27520W        W43994  11.026  19.264   2.274  0.0487 -0.0548  0.2149
27521W        W43995  13.418  13.439   3.675  0.0972  0.3285  0.0599
27522W        W43996  13.965  15.996   4.914  0.3329 -0.1333  0.1038
27523W        W43997   0.943   0.370  11.244 -0.1265  0.0142  0.0416
27524W        W43998   1.819  14.434   3.522  0.0804  0.2568  0.3882
27525W        W43999   8.435  10.526  12.035  0.2282  0.3070  0.1333
27526W        W44000  11.877   7.424   4.424 -0.2635  0.1403  0.2786
27527W        W44001   2.944   9.313   0.444  0.1054 -0.3323 -0.1904
27528W        W44002   2.908  14.799   1.412 -0.1586 -0.2934  0.1959
27529W        W44003  14.519  17.553  12.553 -0.4145 -0.1693 -0.3120
27530W        W44004  10.212   8.139  12.424 -0.2348 -0.1975  0.1288
27531W        W44005  17.266  13.317   2.715  0.0919  0.0841 -0.2302
27532W        W44006   5.139  16.970  13.644  0.1043 -0.1266  0.0093
27533W        W44007  17.319   9.348   4.454 -0.1125 -0.0823 -0.2130
27534W        W44008   9.814  17.851   4.211 -0.4677  0.0959  0.1644
27535W        W44009   2.804  10.749  14.635  0.1887 -0.5569 -0.1319
27536W        W44010  16.719   7.287   4.530 -0.0849  0.0187  0.1922
27537W        W44011   5.204  13.624   2.975 -0.2504  0.3592 -0.1969
27538W        W44012  18.145  16.666  10.978  0.1792 -0.2169 -0.3074
27539W        W44013  11.016   6.941  12.761  0.1524  0.0257 -0.0758
27540W        W44014  13.688   2.639  13.960  0.0819 -0.1340 -0.2228
27541W        W44015  13.628  12.784   0.859 -0.0094  0.2140  0.2368
27542W        W44016  17.470   0.996  11.037 -0.0798  0.2004  0.2531
27543W        W44017   0.733   2.451  11.070 -0.0241 -0.0334  0.2923
27544W        W44018  17.378  18.860   2.685  0.2262  0.0932 -0.1649
27545W        W44019  14.606  17.776   4.966 -0.0755  0.1767  0.2621
27546W        W44020  13.612  16.432   2.877  0.1307 -0.0389 -0.0990
27547W        W44021  13.963   1.033   4.655 -0.0838 -0.2728  0.1311
27548W        W44022   7.283  10.438  14.287 -0.0391 -0.2409 -0.1766
27549W        W44023   2.293  15.654  11.566 -0.2083  0.3206  0.0348
27550W        W44024   7.913  10.279   4.791 -0.2416 -0.0093 -0.0543
27551W        W44025  18.228   2.680  14.439 -0.4249 -0.1256  0.1672
27552W        W44026  13.751   3.424   2.139  0.4409 -0.1281 -0.0085
27553W        W44027   6.331   4.316  11.251  0.0283  0.2604  0.3475
27554W        W44028   9.534  14.626  13.220 -0.0409  0.0602  0.0078
27555W        W44029   2.608   9.201  11.735 -0.2959  0.2095  0.3066
27556W        W44030  19.155   6.682   4.608  0.3073 -0.2378  0.0862
27557W        W44031  18.941  10.998  11.328  0.0007  0.1646 -0.0581
27558W        W44032   0.816   1.476   0.149  0.0963 -0.1417 -0.1613
27559W        W44033  12.059  10.480   2.616 -0.1060 -0.1210 -0.2077
27560W        W44034   9.254   3.712   3.137  0.2733 -0.2473 -0.3591
27561W        W44035  17.861  19.386   0.947  0.3161 -0.1155  0.1170
27562W        W44036   1.341   9.837   5.567  0.0042  0.0759 -0.0091
27563W        W44037  18.419   3.894   0.046  0.0763  0.1043  0.0606
27564W        W44038  18.036  10.002   4.509 -0.0777  0.0021  0.1336
27565W        W44039   8.517  14.084   2.710 -0.1350 -0.1588 -0.1092
27566W        W44040   0.012  16.856  12.700 -0.2567 -0.1377 -0.0573
27567W        W44041   2.445  18.136   0.860 -0.1292 -0.3811 -0.0833
27568W        W44042  11.125   3.782  10.947  0.0464  0.1760 -0.0609
27569W        W44043   1.673   1.550  11.951 -0.1345 -0.2048  0.1819
27570W        W44044   7.044  17.173   0.079 -0.0042 -0.1401  0.0754
27571W        W44045   6.220  12.564   0.443 -0.0778  0.1902 -0.2215
27572W        W44046  13.475  18.159  12.248 -0.0306 -0.3051  0.3898
27573W        W44047   9.123  17.887   2.535 -0.2159 -0.1315 -0.3194
27574W        W44048  11.737  19.110   1.699  0.0657  0.1400  0.1665
27575W        W44049  17.004   3.386   2.801  0.1130  0.1485 -0.1814
27576W        W44050  17.127  15.334   5.813 -0.1081 -0.3560  0.3420
27577W        W44051   2.723   1.041   1.132 -0.1806  0.1637  0.1438
27578W        W44052   1.365   0.139  14.209 -0.0650 -0.0099  0.0734
27579W        W44053   0.192   8.032   3.575  0.0382 -0.0550  0.2331
27580W        W44054  13.368   8.280  12.330  0.3143  0.0238 -0.2991
27581W        W44055   4.382  18.421   4.319 -0.1048  0.0685  0.2054
27582W        W44056   2.564  11.794  10.559 -0.1173 -0.1491 -0.1570
27583W        W44057  14.934  13.039   2.297  0.1895  0.0564  0.0154
27584W        W44058   3.029   5.279  14.464  0.0914  0.0621  0.4135
27585W        W44059  16.226  15.241   2.148  0.0342 -0.1853  0.2649
27586W        W44060  10.550   9.918  10.476  0.1522  0.0795  0.2876
27587W        W44061   3.879  14.569   0.488  0.0294 -0.3263  0.0230
27588W        W44062  11.586  15.877  14.397  0.1479  0.1226  0.1237
27589W        W44063   5.824   9.789   4.549  0.1315  0.0133  0.1168
27590W        W44064  17.640   6.465  13.144  0.2421 -0.0123 -0.0860
27591W        W44065  12.236  18.457   1.238  0.3090 -0.2271  0.1432
27592W        W44066   3.546  10.040   4.396 -0.0037  0.2640 -0.3618
27593W        W44067   8.933   9.351  11.963  0.2901 -0.1042 -0.0471
27594W        W44068   2.106  18.309   4.617 -0.3028  0.1895 -0.0235
27595W        W44069   3.241   8.737  12.382  0.1255 -0.0605 -0.4287
27596W        W44070   5.484  12.107   0.985  0.1242  0.3697 -0.0877
27597W        W44071   7.289  16.052  13.788 -0.0884  0.1129 -0.2710
27598W        W44072  11.999  14.304   0.161  0.0803 -0.1016 -0.1261
27599W        W44073  11.107   3.030  10.367  0.3045 -0.0002 -0.3730
27600W        W44074  18.627  14.408  14.000 -0.1299 -0.1126 -0.1287
27601W        W44075   1.824   2.378  13.239  0.1721  0.2062  0.2556
27602W        W44076   3.912   3.274  10.241  0.1906 -0.1873  0.2003
27603W        W44077   0.354   6.891  12.870 -0.0069 -0.3581 -0.0485
27604W        W44078  18.121  17.822  11.730  0.0922 -0.0915 -0.0902
27605W        W44079   0.707   9.800  14.350  0.1205  0.1395 -0.0743
27606W        W44080   1.404  10.219   4.927 -0.2477  0.0232  0.1358
27607W        W44081  12.155   9.228   3.997 -0.1591  0.2156  0.1325
27608W        W44082   2.047   0.523   2.348  0.1774 -0.0371  0.0794
27609W        W44083  11.392   4.882   2.701  0.0068 -0.1047 -0.1720
27610W        W44084   4.303  10.532  13.318  0.1050  0.1485 -0.0394
27611W        W44085  16.583  16.216   5.581  0.0279 -0.0106 -0.1467
27612W        W44086   5.725   6.905   4.512  0.2788  0.1579  0.2097
27613W        W44087   9.405  18.803   4.929 -0.2341 -0.4779  0.2199
27614W        W44088   8.016  17.868   1.574  0.2960  0.0951 -0.0540
27615W        W44089  12.907   4.408  14.179 -0.1015  0.1312  0.1092
27616W        W44090   9.741   2.568   3.066 -0.0129 -0.0856  0.0232
27617W        W44091  16.337  15.555   4.257  0.1382 -0.5060 -0.1702
27618W        W44092  16.904   7.720   4.384  0.3649 -0.0773 -0.1814
27619W        W44093   6.735   7.490  10.200 -0.1093  0.3716 -0.0316
27620W        W44094   2.643   5.079   0.090 -0.0724 -0.2214  0.3849
27621W        W44095  18.307   6.637  12.377  0.1740  0.2315 -0.1081
27622W        W44096   5.806  10.681  11.559  0.0475 -0.1334 -0.2579
27623W        W44097  18.033   8.593   3.146 -0.2097 -0.1089 -0.2511
27624W        W44098  18.658  18.766  12.268 -0.0651 -0.5073  0.0558
27625W        W44099   9.326  17.818  10.887  0.1500  0.0050  0.1134
27626W        W44100  13.171   9.685   3.979 -0.2100  0.0164  0.3019
27627W        W44101  10.395  17.283  14.187 -0.3442  0.0620  0.1610
27628W        W44102   0.078   9.398  10.888 -0.1269 -0.1273 -0.2521
27629W        W44103  10.671   9.403   1.251  0.2520  0.0298 -0.3682
27630W        W44104   3.457   7.087  11.908  0.0472  0.2011  0.2273
27631W        W44105  15.711  11.616   0.700 -0.3202 -0.1014  0.0411
27632W        W44106  15.010   8.335  13.160  0.2146 -0.0621  0.1950
27633W        W44107   4.740  18.269  11.828 -0.1143  0.1643  0.1229
27634W        W44108   3.333   7.749   2.879  0.1162  0.1919 -0.0994
27635W        W44109  14.008   5.139   3.204  0.4517 -0.1358  0.1390
27636W        W44110  16.546   3.383  13.280 -0.2073  0.2282  0.1423
27637W        W44111  11.023  14.392   2.343  0.2922  0.0512 -0.2528
27638W        W44112  18.574   1.690  11.964 -0.1782  0.1510 -0.0707
27639W        W44113   6.385  10.083   2.974  0.1737 -0.0277  0.2589
27640W        W44114  13.834  10.614   1.570 -0.0448  0.1575  0.1162
27641W        W44115   7.186   1.647   3.185  0.3015  0.0645 -0.1015
27642W        W44116  17.392   9.284   9.928  0.0841  0.2506 -0.0407
27643W        W44117   5.914   4.731   4.301 -0.4974  0.1478  0.0231
27644W        W44118  11.199  11.508   0.293  0.2007  0.0507 -0.3016
27645W        W44119   2.267  11.342   3.382 -0.2381  0.1002  0.0574
27646W        W44120  11.229   7.238   1.833  0.1475 -0.2465 -0.2716
27647W        W44121  12.085  19.545   1.930  0.0691  0.0358 -0.0474
27648W        W44122   9.926   5.194   9.374 -0.3451 -0.1017  0.2022
27649W        W44123   6.376   0.156   0.705 -0.0112  0.4554  0.0514
27650W        W44124  13.315   7.874   2.179  0.1876 -0.0993 -0.0801
27651W        W44125  16.364   2.523  11.542 -0.0327  0.0825  0.1391
27652W        W44126  17.216  18.038   2.871  0.4958  0.0979 -0.1703
27653W        W44127   9.658  10.437   0.597 -0.0105 -0.4554 -0.2171
27654W        W44128   5.142  10.963   0.087 -0.1242 -0.0786 -0.0365
27655W        W44129   7.225   8.008  11.309  0.1203  0.3342 -0.1372
27656W        W44130  19.201  13.299  10.692  0.0005 -0.0192 -0.1530
27657W        W44131  13.333   9.854   0.323 -0.1305  0.2693  0.3245
27658W        W44132  16.395   3.826   0.367  0.1714  0.0177  0.1647
27659W        W44133   5.773  17.973   1.829  0.1264  0.2804 -0.1869
27660W        W44134  13.577  15.379  13.837  0.1174 -0.0513  0.0057
27661W        W44135  17.373   0.717   3.732 -0.1986 -0.1872 -0.1552
27662W        W44136   2.551  13.909   3.516  0.2221 -0.3520 -0.5138
27663W        W44137   8.225  18.415  13.169 -0.4107  0.3808  0.1258
27664W        W44138  16.513   6.366   2.496 -0.1276  0.1043 -0.0643
27665W        W44139  18.222   2.682   1.600 -0.0534 -0.1487 -0.0284
27666W        W44140  13.685   1.478   3.477 -0.1626 -0.2428  0.0833
27667W        W44141   5.607  15.304   1.429 -0.1504  0.4289 -0.2203
27668W        W44142   8.665   4.354  12.331 -0.2041 -0.1371  0.1753
27669W        W44143  17.674  12.807   1.883  0.0550  0.2335 -0.0801
27670W        W44144  15.078   2.693   3.845 -0.2176 -0.1962  0.0050
27671W        W44145  17.620  11.350   1.148  0.3407 -0.1586 -0.0928
27672W        W44146   5.328  16.218  11.420 -0.0409  0.0982 -0.0098
27673W        W44147  12.258   7.441  12.800  0.2697 -0.4167 -0.0190
27674W        W44148   4.473  10.768   4.064  0.1417 -0.0740 -0.0467
27675W        W44149  12.939  16.968   1.637  0.0568  0.1793  0.0673
27676W        W44150  10.315  12.306  12.090  0.1823  0.0643  0.0240
27677W        W44151  10.048   5.535  10.614  0.0972 -0.1938  0.1785
27678W        W44152  17.752  12.017   0.055 -0.0622  0.1037 -0.0991
27679W        W44153  11.479  18.159  12.568  0.0531  0.3248  0.0736
27680W        W44154  17.281  18.584   5.075  0.0451  0.0629 -0.2912
27681W        W44155   3.702   9.894   3.880  0.3745  0.0282  0.0915
27682W        W44156   0.650  11.846  11.815 -0.2327  0.1277  0.0843
27683W        W44157   3.541   7.423   0.019  0.3240  0.0479  0.0373
27684W        W44158   6.282  13.047   1.483 -0.0826  0.5190  0.0841
27685W        W44159   8.357   4.826   3.617  0.1760  0.0980  0.0855
27686W        W44160   8.878   8.398  12.869 -0.0715  0.0106 -0.2706
27687W        W44161  15.721   4.391   5.035 -0.2249  0.0238 -0.2454
27688W        W44162  13.075  16.959   2.817 -0.0433 -0.0084  0.1208
27689W        W44163   6.050   7.622  11.360  0.1240  0.0712 -0.1034
27690W        W44164  15.746  16.716  12.084 -0.1008  0.3058 -0.3027
27691W        W44165  15.481   2.408   1.222  0.1153 -0.0853  0.1258
27692W        W44166   0.239   4.702  14.137 -0.2349  0.0678  0.1807
27693W        W44167   3.648  10.508   3.145 -0.0536 -0.2139 -0.0760
27694W        W44168   4.277   3.549  10.037 -0.3274  0.2443  0.1468
27695W        W44169  18.718  13.809   0.572 -0.2222  0.0016 -0.3507
27696W        W44170  19.504   9.270   3.130  0.0812 -0.0183 -0.2172
27697W        W44171   9.789  10.029   2.708  0.4920  0.1402 -0.1633
27698W        W44172  14.040   6.910   4.623  0.0878 -0.3605  0.5611
27699W        W44173   8.146   1.581  12.012  0.2052  0.0574  0.0771
27700W        W44174  18.297  15.623   0.491 -0.0212  0.2421  0.0683
27701W        W44175   9.784  17.341   0.184  0.0678 -0.0250 -0.1641
27702W        W44176  18.298   3.518  13.317 -0.2466  0.1039  0.2246
27703W        W44177  19.438  12.608   3.407 -0.1015 -0.1890  0.1403
27704W        W44178   6.846   2.781  13.534 -0.0386  0.0268 -0.1120
27705W        W44179   8.919   3.803   0.807 -0.0718  0.2027  0.0833
27706W        W44180   4.008  12.543  10.018  0.0419 -0.3840  0.1994
27707W        W44181  10.117  18.806   0.630  0.2811 -0.0565 -0.0804
27708W        W44182  16.625   7.120   2.221 -0.0654 -0.3152  0.0071
27709W        W44183   1.151   3.435   1.590 -0.5027  0.0492 -0.0381
27710W        W44184   5.389   2.705   2.800 -0.1806 -0.4977  0.1615
27711W        W44185  14.817   6.430   5.051 -0.0124 -0.0325  0.0157
27712W        W44186   0.444  12.988   3.031 -0.0582  0.2162 -0.2975
27713W        W44187   3.870   7.929   2.856  0.0788  0.2108  0.1803
27714W        W44188   6.251   0.714  11.831  0.0856 -0.2898  0.1875
27715W        W44189   3.873   7.244  13.234 -0.2622  0.2215  0.1367
27716W        W44190   9.803  18.624  13.283  0.4651  0.3475 -0.0238
27717W        W44191  14.984   3.210   2.777  0.1965 -0.1174  0.6011
27718W        W44192  13.195  12.100   3.068 -0.0296 -0.1754 -0.0859
27719W        W44193  19.001   3.653   1.870  0.0665 -0.2000  0.0686
27720W        W44194  15.245   7.184  13.926 -0.1615  0.0123  0.2163
27721W        W44195  19.310  18.429   1.627  0.1196 -0.2229 -0.1573
27722W        W44196  13.156   4.947  12.826 -0.3715 -0.2493 -0.1359
27723W        W44197   0.580  16.601  13.579 -0.4976  0.1715  0.1737
27724W        W44198  14.333   4.745  11.736  0.5835  0.0691 -0.1668
27725W        W44199   7.577  18.033   1.379  0.1341  0.2150  0.1369
27726W        W44200  18.750   8.085   4.859 -0.0342  0.0881 -0.0896
27727W        W44201  19.091  17.948   4.824 -0.1181 -0.0417  0.0930
27728W        W44202   7.156   5.462   9.265 -0.0378 -0.0727  0.1013
27729W        W44203  13.341  19.071  12.419  0.2302  0.1318  0.1538
27730W        W44204  13.803   8.283   1.831  0.2244 -0.0437 -0.1758
27731W        W44205  10.382  15.681   3.675 -0.2250  0.2440  0.0720
27732W        W44206  12.378  11.440   4.579  0.0375 -0.1462  0.0113
27733W        W44207   4.497  16.300   2.401  0.0422  0.1867 -0.2374
27734W        W44208   9.082  12.291   4.134 -0.1482  0.2973  0.1827
27735W        W44209  12.398   7.041   0.535 -0.0498  0.0548 -0.3906
27736W        W44210   9.207   6.629   1.588 -0.2199 -0.0817 -0.2712
27737W        W44211  14.826  10.680  10.794 -0.2115  0.0207  0.0282
27738W        W44212  15.543   1.405  14.065 -0.2179  0.1523  0.1006
27739W        W44213  14.563  14.792  12.835  0.0620  0.1226 -0.2875
27740W        W44214  12.228  18.989   0.787  0.0298  0.2899 -0.3372
27741W        W44215  13.167   1.677   1.669 -0.1593 -0.1153 -0.0047
27742W        W44216   2.396   2.587   3.127  0.2135  0.0228 -0.0803
27743W        W44217   8.581   6.098   0.941  0.0432 -0.2212  0.2152
27744W        W44218   3.188  11.185   1.068  0.4097  0.0596  0.2533
27745W        W44219   9.073  19.025   3.661  0.3169 -0.0201 -0.0173
27746W        W44220  13.806  19.615   4.524 -0.4952  0.2080 -0.0478
27747W        W44221  16.942   4.431   2.964  0.1621  0.4625  0.0379
27748W        W44222   3.592   6.169  11.971  0.1821  0.2478 -0.1266
27749W        W44223  13.810  13.346   2.274  0.1154 -0.0273  0.1086
27750W        W44224   4.146  13.751  10.735  0.0413  0.4047 -0.4934
27751W        W44225   7.320  14.987   2.718  0.1424  0.3429 -0.0835
27752W        W44226   7.467   7.222  10.532 -0.2418 -0.1300  0.1392
27753W        W44227  18.557   5.522  12.930  0.3071 -0.1457 -0.1468
27754W        W44228   6.960  10.800   1.937 -0.2773 -0.1046  0.1576
27755W        W44229  15.934  11.041  12.032  0.1947 -0.1413  0.1370
27756W        W44230   7.464  10.717   1.659  0.1646  0.1321 -0.3571
27757W        W44231  17.479  12.984  14.084 -0.2568 -0.3256 -0.0069
27758W        W44232  15.681  10.459  12.559  0.1034 -0.4606 -0.0135
27759W        W44233   8.677   3.740  13.512 -0.0611 -0.0509  0.0274
27760W        W44234   4.450  17.528   1.608 -0.3733 -0.0328  0.1927
27761W        W44235  12.015   1.080  11.956 -0.1751 -0.0099 -0.2176
27762W        W44236  13.775  10.586  12.992 -0.0428 -0.1235  0.0489
27763W        W44237  11.344  15.930  12.801  0.1366  0.3362 -0.0262
27764W        W44238  17.508  15.997   0.633  0.2075 -0.1815 -0.2244
27765W        W44239  13.339  16.858   2.417  0.1967  0.2175  0.0088
27766W        W44240  13.181   3.064  12.509  0.0406  0.4634 -0.2235
27767W        W44241  13.730  13.918  13.975  0.2774  0.0196  0.0519
27768W        W44242   0.779   9.906  12.146  0.3870  0.0381 -0.2562
27769W        W44243   8.471  15.632   2.253  0.0720 -0.1116  0.1776
27770W        W44244   7.130  19.552   0.244 -0.3595  0.0882  0.1278
27771W        W44245   1.928   4.983  13.059  0.1029  0.2637 -0.0132
27772W        W44246  13.704   0.605   3.033  0.0513 -0.0850  0.1985
27773W        W44247   8.978  13.609   4.109  0.1631  0.1735 -0.0510
27774W        W44248   3.469  13.101  12.421 -0.1130  0.1412  0.3328
27775W        W44249   3.789   4.128  13.258 -0.2758 -0.2218 -0.0318
27776W        W44250   2.722  16.243  14.598  0.1421 -0.0091 -0.0182
27777W        W44251   6.864  13.674   0.909 -0.0969  0.1271 -0.1644
27778W        W44252  15.332   4.727   2.960  0.0166  0.1942 -0.2778
27779W        W44253   1.614  10.550   1.730  0.3106  0.1544  0.2510
27780W        W44254   6.406   0.365  12.178 -0.0290  0.0262  0.1551
27781W        W44255   6.558  18.463   0.469 -0.0490  0.1627 -0.2422
27782W        W44256  13.346   2.712   0.910 -0.1956  0.1092 -0.0623
27783W        W44257   1.169   4.050   2.308  0.2618 -0.1299  0.1449
27784W        W44258  10.139  13.987  10.750 -0.0288  0.2858 -0.0028
27785W        W44259   9.304   3.667  10.054 -0.0157  0.1828 -0.2555
27786W        W44260  13.794   4.526  11.789  0.1370 -0.1416 -0.1909
27787W        W44261   6.310   4.293   1.720 -0.2194  0.0702  0.1505
27788W        W44262  10.438  15.826  12.983 -0.2674  0.0668  0.3088
27789W        W44263  13.987   7.788  12.804  0.1861  0.1809 -0.0080
27790W        W44264  10.189  18.518   3.365  0.4041  0.1697 -0.2740
27791W        W44265   3.028   7.384  10.114 -0.0918  0.3935  0.2414
27792W        W44266  15.960  12.310   5.090  0.0425 -0.4519 -0.0800
27793W        W44267   8.730   2.970   0.253  0.2229 -0.0758 -0.0809
27794W        W44268  11.795  16.539   2.460  0.2109  0.0125  0.1021
27795W        W44269   0.266   3.043  12.404  0.1985 -0.3999 -0.1481
27796W        W44270   6.459   4.253   3.757  0.0078 -0.1024 -0.3640
27797W        W44271   0.614   2.842   4.573 -0.0432 -0.0946 -0.2168
27798W        W44272  14.269   0.605  10.403  0.0875  0.5184 -0.2877
27799W        W44273   2.058   7.445   3.253 -0.2803  0.1165  0.1182
27800W        W44274  16.542   6.698   0.910  0.1233  0.0087  0.2404
27801W        W44275   6.652   2.191   1.161  0.2742  0.2464  0.0960
27802W        W44276   6.186  12.648   2.989 -0.0929 -0.1547  0.2169
27803W        W44277   5.707   9.836   0.897 -0.3423 -0.0154  0.0243
27804W        W44278  11.263  13.218  12.985 -0.0607 -0.0900  0.3345
27805W        W44279   6.349   2.889  11.912  0.2131 -0.0319  0.0271
27806W        W44280  10.813  11.036  13.213  0.3924 -0.2755  0.0388
27807W        W44281   3.015  11.221  10.498  0.0908  0.5339 -0.5042
27808W        W44282  14.312   9.543  14.044 -0.0844  0.1143 -0.6062
27809W        W44283   8.316   8.191   1.087  0.0529 -0.1824  0.0615
27810W        W44284   5.427   0.629   0.917  0.0437  0.1455 -0.0605
27811W        W44285   0.627   2.165   0.605 -0.0117  0.1137 -0.1328
27812W        W44286  11.356   1.376   4.144 -0.2981  0.1012  0.1031
27813W        W44287  15.110   1.343  11.562  0.0995  0.1318  0.0143
27814W        W44288  17.482  13.958  11.723 -0.0823  0.1277 -0.0494
27815W        W44289   0.039  17.726  12.853 -0.1211 -0.0345 -0.2398
27816W        W44290  19.011  17.795   0.410  0.2336  0.2061 -0.1139
27817W        W44291  17.610  18.912  12.747 -0.0715 -0.3500  0.1449
27818W        W44292   8.790   3.193   2.090 -0.1194  0.0035 -0.1122
27819W        W44293   2.799  16.600  10.095  0.1982  0.3962 -0.2111
27820W        W44294  18.946  14.532   9.627 -0.0390 -0.3064  0.1075
27821W        W44295   0.863   3.591  11.175  0.1490  0.2527 -0.0575
27822W        W44296  19.196   4.510  13.498  0.1084 -0.2076 -0.0970
27823W        W44297   3.415  18.984   4.638 -0.2224  0.3323  0.1914
27824W        W44298   6.231  18.497  13.245  0.1335 -0.0396  0.0986
27825W        W44299  14.610  14.350   3.117  0.3516 -0.2189  0.1456
27826W        W44300  16.325  14.615   3.714 -0.0043 -0.0992 -0.1429
27827W        W44301   6.413   5.277   0.828  0.0359 -0.0091 -0.3407
27828W        W44302  19.539   8.683   4.317 -0.0886  0.0372 -0.1673
27829W        W44303  18.816   4.320   1.243  0.1008 -0.2352 -0.2782
27830W        W44304   0.805  12.607  12.533  0.0106 -0.1300  0.1009
27831W        W44305   0.350   2.258  11.430 -0.0814  0.0646  0.1243
27832W        W44306   9.264  13.768   4.572 -0.2236 -0.2361  0.0158
27833W        W44307  11.419   8.756   9.204  0.4732 -0.1492  0.0109
27834W        W44308   8.691   4.021  10.923 -0.1075 -0.1593 -0.0295
27835W        W44309   2.327  13.502  13.601 -0.0647  0.1424 -0.4776
27836W        W44310  15.528  13.499   4.645 -0.0421 -0.2345  0.1984
27837W        W44311   7.113  18.776   9.966  0.2031  0.0197  0.3209
27838W        W44312  19.333  11.459   1.515 -0.0521  0.3309 -0.4277
27839W        W44313   6.862  10.277  13.942  0.0259 -0.1169  0.0087
27840W        W44314   4.866  14.438  13.346 -0.0888  0.1277 -0.1357
27841W        W44315   0.005  15.024   0.109  0.0691  0.1853 -0.0197
27842W        W44316   0.245   9.765   5.275 -0.0998  0.1428  0.0136
27843W        W44317   6.921   5.770  10.415  0.2961 -0.1602  0.0961
27844W        W44318  19.148   6.451  12.151  0.0526 -0.0053 -0.2880
27845W        W44319   3.106  13.864   1.241 -0.1514 -0.1431  0.0250
27846W        W44320   7.596   3.436   2.566  0.2742  0.0112  0.5160
27847W        W44321  13.837   5.391  10.281 -0.2853 -0.0477  0.2647
27848W        W44322   3.636  16.021  11.028  0.1084  0.3824  0.2125
27849W        W44323   5.307  11.548  11.078 -0.0358  0.2028 -0.0029
27850W        W44324  16.510  14.909   1.847  0.0215 -0.1203  0.0993
27851W        W44325   7.773   5.233   0.309  0.1863  0.2394  0.2448
27852W        W44326   0.064   6.934   2.886  0.1800  0.1047  0.0538
27853W        W44327  19.016   2.856  12.664  0.0495 -0.0177 -0.2312
27854W        W44328   2.060  17.902  11.308 -0.3179  0.4007  0.2511
27855W        W44329   0.616  15.310  13.144 -0.0818 -0.1417  0.2639
27856W        W44330  11.466   0.202   1.017  0.1871 -0.5198 -0.3187
27857W        W44331   1.157  17.521   1.397  0.0699  0.0089  0.1006
27858W        W44332  13.122   4.936  10.774 -0.2004  0.2802 -0.3800
27859W        W44333   1.344   9.001  14.271 -0.0630  0.0738 -0.1644
27860W        W44334  14.020   5.661   2.169  0.2526 -0.3063  0.0882
27861W        W44335   3.582   3.400   2.415  0.1337  0.1473 -0.0679
27862W        W44336  13.684  10.311  12.595 -0.1124 -0.1859  0.0147
27863W        W44337  13.192   2.697  14.293 -0.1320 -0.1897 -0.0147
27864W        W44338  17.730  17.561  11.075  0.0885 -0.0724  0.0307
27865W        W44339  13.773  18.697   5.219 -0.4268  0.1540 -0.3219
27866W        W44340   4.796  11.793  11.551  0.1568 -0.3011  0.1461
27867W        W44341  11.566   0.950  12.096  0.0880  0.0510 -0.5982
27868W        W44342  16.052   4.021  14.417 -0.0275 -0.0284  0.1722
27869W        W44343  14.974  13.340  13.001 -0.0883  0.2112 -0.1949
27870W        W44344  14.355  16.635  12.350 -0.1074  0.5118 -0.2120
27871W        W44345  15.945  11.680  10.161 -0.2432  0.1648 -0.0394
27872W        W44346  10.169  17.556  12.205  0.2877  0.0105 -0.0477
27873W        W44347   5.748   3.479  13.009  0.3369  0.0703 -0.0959
27874W        W44348  17.176   4.338  13.765 -0.0839  0.0485  0.1828
27875W        W44349  10.147   3.879  13.734 -0.2297 -0.1581 -0.1478
27876W        W44350  14.228  10.957   3.717 -0.1880  0.0532 -0.2180
27877W        W44351  12.538   8.013   2.383 -0.1585  0.3518  0.0786
27878W        W44352  16.487   8.038  13.470  0.0237 -0.1092 -0.0143
27879W        W44353   3.894  12.814   2.710  0.4127 -0.0745  0.0672
27880W        W44354   4.603  12.046  13.741 -0.0652  0.0536 -0.0307
27881W        W44355  18.309  19.128  14.151 -0.6496 -0.1804  0.0132
27882W        W44356   8.932   5.087   3.609 -0.0985  0.0657  0.0489
27883W        W44357  11.795  12.899   2.768  0.3487  0.1213 -0.1585
27884W        W44358  18.722  18.321  13.706 -0.1702  0.0142 -0.0500
27885W        W44359  10.605   3.263  12.576  0.1430 -0.0406  0.1542
27886W        W44360   6.681   0.165   4.185 -0.2599  0.0493 -0.0643
27887W        W44361  18.495  18.722   3.177  0.0206 -0.0711 -0.0526
27888W        W44362   0.728  17.385   2.932  0.0359  0.4242  0.1261
27889W        W44363  16.183   4.519   1.571 -0.2766  0.0758 -0.0272
27890W        W44364  18.859  12.711  12.607  0.1198  0.0823  0.0315
27891W        W44365   5.569  12.782   2.201 -0.3508  0.0450 -0.0265
27892W        W44366  19.066  11.393   1.082  0.6151 -0.1308  0.1686
27893W        W44367  15.998   6.595   2.537 -0.2072  0.4858 -0.0328
27894W        W44368  17.282   1.408   1.748  0.0964 -0.3306 -0.3416
27895W        W44369  14.916   8.346   3.011  0.2706  0.0857  0.2444
27896W        W44370  19.101  18.246  11.680 -0.3254  0.2090  0.0584
27897W        W44371   4.148  18.406   0.614  0.1263  0.0625 -0.1111
27898W        W44372  15.295   2.817   4.335  0.3217 -0.3311 -0.1961
27899W        W44373  14.883  15.374   4.301  0.0111  0.1298 -0.2391
27900W        W44374  12.268  12.506   4.218  0.2354 -0.0416  0.0102
27901W        W44375   7.164  10.430   2.920  0.1350  0.0973 -0.1611
27902W        W44376   9.525  15.757   3.914  0.1121  0.2031 -0.3580
27903W        W44377  11.019   5.188   4.264  0.0084 -0.1666  0.2277
27904W        W44378  13.365   5.584  10.331  0.0148 -0.2828 -0.0697
27905W        W44379  18.342   3.365  11.573 -0.0056 -0.1218  0.1974
27906W        W44380   8.251   4.815   0.965  0.1809 -0.0012  0.0131
27907W        W44381   8.977   1.340   4.634 -0.1098  0.2347 -0.0978
27908W        W44382  12.583   2.460   0.465 -0.4982  0.3035  0.2178
27909W        W44383   5.053   3.577  12.338 -0.0971 -0.0950  0.3242
27910W        W44384  19.341  13.453  11.948  0.0909 -0.3786 -0.2347
27911W        W44385   1.046  13.499  12.959  0.2021 -0.1925  0.1543
27912W        W44386  11.977   0.507   1.969  0.0333  0.1464  0.1141
27913W        W44387   0.962  14.236   0.635  0.2767  0.0479  0.0877
27914W        W44388  10.954  13.301  12.520  0.3968  0.0045  0.1658
27915W        W44389   0.786  11.425   2.456  0.0621  0.1094 -0.3975
27916W        W44390  15.362  17.943   2.442  0.2739 -0.1955 -0.2506
27917W        W44391   1.053   3.296   2.394 -0.2845 -0.0335 -0.2214
27918W        W44392   5.259  12.235   0.050  0.0508 -0.0061  0.1757
27919W        W44393   9.317  17.275  10.693  0.1159  0.1419  0.0722
27920W        W44394   7.188   5.283   4.187 -0.2580 -0.2267  0.1733
27921W        W44395  19.230  11.338  12.414  0.0691  0.1441  0.0541
27922W        W44396   9.618   5.701   2.374  0.1013  0.0158  0.3382
27923W        W44397   8.558  13.958  13.585  0.2399  0.4550  0.0015
27924W        W44398   0.683   0.731  11.547  0.1663 -0.3996 -0.0382
27925W        W44399   8.628  19.515  11.756 -0.0362  0.1536  0.1249
27926W        W44400   2.422  13.975  11.880 -0.0699  0.2494  0.2971
27927W        W44401  12.064   0.757  10.965 -0.0865 -0.1649 -0.0492
27928W        W44402   8.859  19.176   9.850 -0.3547 -0.0154 -0.4615
27929W        W44403  11.011   6.238   3.987  0.1672  0.0211 -0.1979
27930W        W44404   0.432   4.515   3.841  0.0763  0.3877  0.1414
27931W        W44405  14.370   3.235  12.819 -0.2526 -0.3732  0.0403
27932W        W44406   6.813   1.855   3.970 -0.1121  0.0319  0.1496
27933W        W44407  13.659   4.107  10.408  0.0347 -0.2888 -0.2332
27934W        W44408  11.622  17.169   4.140  0.0657 -0.0620 -0.1613
27935W        W44409   4.401  16.562  11.653 -0.0143  0.2287  0.1998
27936W        W44410  16.307  14.298   5.271  0.1545  0.1389  0.2512
27937W        W44411   2.409  14.989   3.003 -0.2385 -0.0061 -0.1561
27938W        W44412  19.595  10.936  13.411  0.2791  0.4072  0.2740
27939W        W44413  13.002  13.756   2.948 -0.1559  0.2541  0.2212
27940W        W44414   3.552   8.683   2.823  0.2852 -0.0035 -0.2035
27941W        W44415  16.628   6.005  13.181 -0.0260 -0.1242  0.0017
27942W        W44416   4.250  11.429   1.869 -0.2082 -0.2368 -0.2936
27943W        W44417   9.146   2.055  12.268 -0.1498  0.1074  0.0478
27944W        W44418  16.306  16.950   5.045  0.2134 -0.1041  0.1760
27945W        W44419   0.878  12.146   1.410  0.2309  0.1993  0.0795
27946W        W44420   7.885  10.953   4.052  0.1495  0.1173  0.1049
27947W        W44421   1.712  14.581   0.248 -0.1623  0.1304 -0.1366
27948W        W44422  14.805   4.989  13.024  0.2176  0.1668  0.1963
27949W        W44423  16.646   9.839  11.526  0.0990  0.0463 -0.3568
27950W        W44424  18.258  17.992   9.995  0.1642  0.3079 -0.2529
27951W        W44425  15.279  16.612  11.793 -0.1364  0.2314  0.0162
27952W        W44426   0.610   9.282   3.613 -0.1480  0.3703  0.0346
27953W        W44427   5.220   1.429  10.550 -0.0866  0.0548 -0.0950
27954W        W44428  14.771  18.732   3.856  0.1340 -0.3340 -0.1249
27955W        W44429  14.413   4.383   1.994  0.2945 -0.1322  0.5158
27956W        W44430   1.531  14.186   3.917  0.1992  0.0929  0.3917
27957W        W44431   2.169   4.025   3.749 -0.1136 -0.0070 -0.0646
27958W        W44432   0.526   9.013   4.586 -0.0657  0.0991 -0.2047
27959W        W44433  14.472  14.805   3.440  0.1974 -0.2825 -0.0968
27960W        W44434  14.913  16.137  14.267 -0.1935 -0.0391 -0.0441
27961W        W44435  14.272   6.860  12.458  0.0098  0.0285  0.0915
27962W        W44436  10.619  16.189   4.514 -0.2685  0.2747  0.1235
27963W        W44437   3.773   9.322  12.462  0.1618 -0.1880 -0.2324
27964W        W44438   3.023   6.788   9.986 -0.4626 -0.0225  0.0241
27965W        W44439  17.444  17.494   4.113 -0.2283  0.0442 -0.3669
27966W        W44440  13.506  17.855  12.861 -0.0130  0.0034 -0.0837
27967W        W44441  15.260  12.343  10.789 -0.2803 -0.0962  0.0962
27968W        W44442  16.588   5.052   0.429 -0.0040  0.3175 -0.0665
27969W        W44443   4.871   4.144  13.931 -0.1628  0.2513  0.0458
27970W        W44444   3.124   9.162  10.511  0.2574  0.0499  0.0320
27971W        W44445  18.550   0.620  10.924  0.0914 -0.3803  0.0118
27972W        W44446   6.866  19.207  13.545  0.2447  0.2384 -0.4776
27973W        W44447  10.228   3.446   0.410 -0.1283 -0.1579 -0.1803
27974W        W44448   9.287  10.826   0.751 -0.0363  0.2368  0.2211
27975W        W44449  15.572   1.611   2.856 -0.1911 -0.1875 -0.0308
27976W        W44450   1.672   9.763   1.354 -0.0284 -0.1908 -0.1515
27977W        W44451   6.699  15.804  11.439  0.2586  0.0805 -0.0564
27978W        W44452   0.271   3.610  12.377  0.1200  0.1729 -0.2709
27979W        W44453   5.407   0.537   0.293  0.1591 -0.2694  0.0171
27980W        W44454   6.685   0.828  10.699  0.0120 -0.4062  0.2096
27981W        W44455  13.260  14.746  10.475  0.1939  0.1816 -0.0756
27982W        W44456  13.622   3.971  11.872  0.0703 -0.1975  0.2252
27983W        W44457  12.097  14.727  12.427 -0.2456  0.1016 -0.0883
27984W        W44458   3.874   8.929   9.953  0.0674 -0.3472 -0.0247
27985W        W44459   1.709   2.904   3.950  0.3405  0.0421  0.1929
27986W        W44460   0.346   0.705   2.913  0.1634 -0.0937  0.2361
27987W        W44461  18.721  11.357  10.897 -0.1716  0.3363  0.2999
27988W        W44462   2.799   0.851   5.094 -0.0010  0.0603  0.0343
27989W        W44463  14.438  10.960  11.360 -0.0292 -0.1598 -0.0818
27990W        W44464   2.227  12.256   3.018  0.1150 -0.1264  0.0296
27991W        W44465   1.812   8.976  14.001 -0.1266  0.1759 -0.2918
27992W        W44466  19.054   7.188   3.001 -0.1712 -0.1437  0.2296
27993W        W44467   3.715  10.286   1.298 -0.1131  0.0438 -0.0840
27994W        W44468  11.872   0.125  12.946  0.1132 -0.0617 -0.1603
27995W        W44469   7.027   7.188   3.908  0.1252 -0.3685 -0.4245
27996W        W44470   8.364   1.296  12.830 -0.0306 -0.1747 -0.1261
27997W        W44471  15.580   7.810   4.613 -0.1582  0.1159 -0.1361
27998W        W44472   0.757   6.939  13.183  0.2391 -0.2116  0.3530
27999W        W44473   8.696  14.498   2.903  0.0718 -0.0026  0.0625
28000W        W44474   7.301  19.510  10.890  0.1837  0.2179  0.2696
28001W        W44475  11.716  12.205  14.244  0.1080  0.0119  0.2142
28002W        W44476  14.255  12.210   2.752 -0.3532 -0.1145  0.2957
28003W        W44477   0.226  14.309  12.121  0.3471  0.2306 -0.0366
28004W        W44478  11.769   5.970   3.201  0.0955  0.1512  0.0081
28005W        W44479   8.085  12.769   4.834  0.2123 -0.3675  0.3632
28006W        W44480   0.377  12.239   1.772  0.3345  0.0802 -0.2291
28007W        W44481   8.706  18.778   5.395 -0.2716 -0.3587 -0.1434
28008W        W44482   2.060  18.834   1.401  0.0915 -0.1360 -0.1803
28009W        W44483   4.762  14.517   1.056  0.2267  0.0193  0.3398
28010W        W44484  12.625  19.578  14.026  0.0410  0.1310 -0.0403
28011W        W44485   6.727  18.551   2.884  0.1081 -0.0791 -0.1470
28012W        W44486  10.504  18.136  13.374 -0.1098 -0.1382 -0.1515
28013W        W44487  10.475   6.161  14.369  0.2391 -0.0131 -0.1486
28014W        W44488   5.018   7.744   4.751  0.0034 -0.1040 -0.1681
28015W        W44489  14.784   8.599   2.569 -0.3130  0.1664  0.4282
28016W        W44490   9.336   7.374  14.207 -0.0387  0.1851 -0.0057
28017W        W44491  10.281   5.066  14.376 -0.0615  0.2061  0.0310
28018W        W44492   6.010  19.044   5.308 -0.0408 -0.0547  0.0335
28019W        W44493   1.046  11.354   3.089 -0.0224  0.3435 -0.0342
28020W        W44494  12.711   6.800   4.447 -0.0568 -0.1913  0.0214
28021W        W44495  11.035   3.296   3.333 -0.2290 -0.1865 -0.3063
28022W        W44496   7.042   5.805   8.936 -0.2455 -0.0643  0.1369
28023W        W44497   2.827   4.425  13.367 -0.0107 -0.2367 -0.0284
28024W        W44498   3.865   2.191   2.058  0.2419 -0.1661 -0.0707
28025W        W44499  10.254   7.835   2.177 -0.1885  0.1883  0.4128
28026W        W44500  13.796  14.117   4.329  0.0265  0.4605 -0.1008
28027W        W44501   8.293  17.977  12.953  0.0856 -0.0353 -0.0712
28028W        W44502  11.864   6.644  13.252  0.1699 -0.2912  0.0859
28029W        W44503   2.958   1.525   1.187  0.0347 -0.2432  0.0516
28030W        W44504   2.210   4.053   2.598 -0.0972  0.0784  0.2026
28031W        W44505   0.250  10.223   4.627 -0.0791  0.5162  0.0527
28032W        W44506  18.514  19.322   4.338  0.1516  0.1313  0.0386
28033W        W44507   7.793   3.667   1.129 -0.1938  0.1190 -0.2529
28034W        W44508  10.308  19.581   3.790 -0.1288 -0.0886  0.1968
28035W        W44509  12.649   6.807  10.777  0.0091  0.2036 -0.1489
28036W        W44510  16.043  10.176   2.780  0.3397  0.2301 -0.2549
28037W        W44511   4.201   2.754   3.800 -0.3174 -0.2989 -0.2154
28038W        W44512  19.014   9.179   0.156 -0.1262  0.2805  0.2290
28039W        W44513   7.646  11.370   0.516  0.0705  0.4433 -0.3379
28040W        W44514   6.073   3.281   9.984 -0.0685  0.0751  0.2460
28041W        W44515  11.216  12.641   1.180  0.1866  0.1969  0.2293
28042W        W44516   6.878  12.859   4.601 -0.2191  0.2502 -0.0903
28043W        W44517  13.130   5.859  11.292  0.3385  0.1477 -0.1959
28044W        W44518   7.078  16.610  11.991 -0.0202  0.4333 -0.2694
28045W        W44519   5.392   7.739   1.664  0.0091  0.0239  0.1377
28046W        W44520   1.599   3.241   0.661  0.1412 -0.1969 -0.1444
28047W        W44521   1.091   2.579   0.861  0.1180  0.1991 -0.2846
28048W        W44522   0.285  11.921   0.874 -0.0682  0.0079  0.4140
28049W        W44523   6.472   2.722   8.640 -0.1204 -0.3130  0.1997
28050W        W44524   0.557  11.250  10.400 -0.1280 -0.1634  0.1649
28051W        W44525  14.106   5.199   2.427  0.2232 -0.0324  0.0757
28052W        W44526  19.464   1.468  14.665 -0.5386  0.2276 -0.1034
28053W        W44527   4.506  14.710  13.162 -0.1605 -0.0727 -0.1713
28054W        W44528   5.203  15.243   2.176 -0.1386  0.2281 -0.1954
28055W        W44529   2.232  16.429  14.177 -0.0786  0.1770 -0.2928
28056W        W44530  11.476   7.260   2.364  0.3146 -0.3375  0.0347
28057W        W44531   3.343  18.162   0.560 -0.4470 -0.0815  0.1406
28058W        W44532  18.596  13.536   4.188 -0.1350  0.0551 -0.0585
28059W        W44533   7.530   5.064   0.735  0.1563 -0.1606 -0.1861
28060W        W44534   2.368  11.645  11.794 -0.0303 -0.2190  0.0266
28061W        W44535   8.120  13.648  10.772 -0.0082 -0.2085 -0.2524
28062W        W44536  18.948  11.053   3.910  0.0228 -0.1559 -0.2616
28063W        W44537   6.849  14.972   4.975 -0.0401 -0.2191  0.3145
28064W        W44538  10.634   8.433  14.462  0.1442  0.0095  0.0218
28065W        W44539   1.550   7.008  10.161  0.0576 -0.0788 -0.3993
28066W        W44540   4.762  11.760   3.026  0.0247 -0.0049 -0.0845
28067W        W44541  12.859  17.936  12.919 -0.1128 -0.1537 -0.2667
28068W        W44542   4.645  19.489  12.546  0.2050  0.1992  0.1330
28069W        W44543  15.679   5.940   3.454  0.2692 -0.1123  0.0748
28070W        W44544  18.913   3.746   2.366 -0.2137  0.5820 -0.1470
28071W        W44545  17.874   6.485   0.999  0.2793  0.4294  0.0309
28072W        W44546   5.392  14.520  10.827  0.0975  0.0945  0.0093
28073W        W44547   3.906  12.768   1.554 -0.1498  0.0665  0.1368
28074W        W44548   3.377   2.630  12.630  0.2803 -0.0205 -0.2351
28075W        W44549   2.115  14.749   2.574  0.2233  0.1231  0.1730
28076W        W44550  14.626  17.155   0.839  0.1625  0.0867  0.1409
28077W        W44551   8.608  10.180   4.236 -0.2226 -0.0520  0.4112
28078W        W44552  14.560  18.802  11.710 -0.2217  0.3339  0.2228
28079W        W44553  15.059  16.552   2.865 -0.1106  0.0596  0.2328
28080W        W44554   6.465  13.988  13.505  0.0408 -0.0184  0.2142
28081W        W44555   4.933  12.975   1.730 -0.2592 -0.2938 -0.0755
28082W        W44556  15.388  13.567   1.636 -0.2554  0.2626  0.3922
28083W        W44557   8.056   7.888  14.376 -0.1298  0.0146 -0.1525
28084W        W44558   8.461  14.936   1.409  0.0202 -0.1061 -0.0732
28085W        W44559  10.444  16.149   2.239  0.2233  0.0417 -0.3870
28086W        W44560   4.763   8.593  10.210  0.2803 -0.0274 -0.0552
28087W        W44561   5.007   6.757   2.766 -0.1492 -0.0833  0.1100
28088W        W44562  18.780   2.129  14.210 -0.1716 -0.0121 -0.0022
28089W        W44563  12.329  17.911   4.992 -0.1259  0.1009 -0.3348
28090W        W44564   2.564  14.071   4.826 -0.0257  0.0270 -0.0715
28091W        W44565  18.350  17.544   3.806 -0.1846  0.1325 -0.1588
28092W        W44566  11.911  11.439  10.111 -0.1667  0.0231 -0.2226
28093W        W44567   2.674   4.364   2.563 -0.0444 -0.3370 -0.0325
28094W        W44568  13.804  17.884   3.263 -0.4627 -0.0158  0.0304
28095W        W44569  13.129   1.436  12.167  0.0832  0.6229 -0.2650
28096W        W44570   2.965  11.931   5.323  0.1704  0.0568  0.0305
28097W        W44571  19.262  15.710  11.665  0.0689  0.1402  0.0226
28098W        W44572  19.180  18.011   1.968 -0.1204  0.3166  0.2229
28099W        W44573  12.658  11.026  13.217  0.1078  0.2131 -0.0591
28100W        W44574  10.628   3.902  13.887  0.4458 -0.0142 -0.3409
28101W        W44575  17.306  13.461  14.415  0.3339 -0.2870  0.1372
28102W        W44576   9.311  12.868   4.716  0.4385 -0.0961  0.1634
28103W        W44577  14.035   8.880   1.308 -0.1775 -0.0668  0.2824
28104W        W44578  12.625   7.135   0.052  0.3137 -0.0895 -0.2609
28105W        W44579   7.618   7.495   3.914  0.0894  0.0281 -0.0637
28106W        W44580  16.646  19.620   1.462 -0.2912 -0.1032  0.1937
28107W        W44581   0.117  12.094  13.464 -0.0415 -0.0951 -0.0357
28108W        W44582   4.521  11.968  12.086 -0.0718 -0.2266 -0.3178
28109W        W44583  19.266   2.479   4.490  0.2131 -0.1216 -0.1102
28110W        W44584   8.306   6.921   3.553  0.1410 -0.1591  0.3247
28111W        W44585  17.225   9.456  12.941  0.2281  0.1654 -0.0746
28112W        W44586  12.849   0.170   1.519 -0.0831  0.1399 -0.0021
28113W        W44587  18.877  16.102  11.715  0.2426 -0.0784 -0.4347
28114W        W44588   9.713   4.045  13.506  0.2028  0.4408  0.1151
28115W        W44589  13.119  15.134   4.335  0.0425 -0.2411  0.0910
28116W        W44590   1.681   0.666  13.046  0.0774 -0.1720  0.1416
28117W        W44591   4.024  11.238   2.940  0.2693  0.1232  0.1437
28118W        W44592   9.889  18.666   5.171 -0.2803 -0.2008 -0.3040
28119W        W44593   3.159  12.766  14.158 -0.0350 -0.1732  0.0771
28120W        W44594  16.888  18.499  11.368  0.0614  0.2170 -0.1964
28121W        W44595  15.305  17.451  12.226  0.3153  0.2175  0.0913
28122W        W44596  11.610  18.607   3.787 -0.3075 -0.2894  0.1955
28123W        W44597  10.819   6.046   0.539 -0.1032  0.1320  0.2104
28124W        W44598   9.517   7.376  13.715 -0.2574 -0.1623  0.1456
28125W        W44599  10.769  18.366  13.758  0.0754  0.2875  0.0306
28126W        W44600   0.441  17.612   5.236  0.1376 -0.1759  0.3381
28127W        W44601  18.991  10.372  14.195 -0.0613  0.2289 -0.2976
28128W        W44602  10.714   7.671   2.604 -0.2396 -0.3094 -0.2542
28129W        W44603  13.139   8.483   2.914 -0.2826 -0.0352  0.0640
28130W        W44604  17.123   1.922  10.912 -0.4019 -0.4466 -0.2700
28131W        W44605  10.308   2.595   3.140 -0.2211  0.2941  0.3393
28132W        W44606   7.283  10.364   4.913  0.3216  0.2846  0.0498
28133W        W44607   2.956   1.962   3.076  0.0439  0.0085  0.1676
28134W        W44608  16.175  14.163   3.614 -0.5804  0.1048 -0.0948
28135W        W44609   5.284   7.014  10.430  0.0958 -0.3104 -0.1099
28136W        W44610  11.088   3.694  11.452 -0.0858  0.2128 -0.1987
28137W        W44611   5.427  15.728  13.118  0.3385 -0.0427  0.2327
28138W        W44612  19.451  14.757  13.849  0.1532  0.1535 -0.1241
28139W        W44613   7.009  15.709   4.378 -0.2098 -0.0243  0.2254
28140W        W44614  14.956   0.881  13.053 -0.0866  0.0272  0.0567
28141W        W44615   1.204   2.934   1.747  0.1380  0.0098  0.2707
28142W        W44616   8.436   7.847   4.940  0.0109 -0.0447  0.1897
28143W        W44617  11.196  10.712   2.400  0.3889  0.1130 -0.1327
28144W        W44618   6.664   6.951  10.086  0.0839 -0.0109 -0.1477
28145W        W44619  14.847   4.106  12.059 -0.0659 -0.1350 -0.0026
28146W        W44620   9.535  19.351   4.418  0.0508  0.0847 -0.0379
28147W        W44621   7.221   1.175   5.080  0.2033 -0.0472 -0.1698
28148W        W44622  10.906  16.851  13.214  0.5618  0.0987  0.3300
28149W        W44623  17.352  10.059   3.995  0.0862  0.1668  0.0499
28150W        W44624   5.956   7.940  13.737 -0.0415  0.2109 -0.2361
28151W        W44625  17.557  14.793   1.505 -0.2299  0.2158  0.5165
28152W        W44626  19.010   4.302  14.252 -0.0050 -0.2239 -0.0191
28153W        W44627   0.402   9.504  12.040 -0.2921  0.1038 -0.0003
28154W        W44628  18.615  10.758  11.672  0.0269  0.2630  0.3139
28155W        W44629  15.363  17.051   2.048 -0.2335  0.5664 -0.1237
28156W        W44630  15.227   0.062  10.971 -0.4686  0.1028 -0.1548
28157W        W44631   5.394  18.094  10.525  0.0286 -0.0021 -0.0798
28158W        W44632  11.658   5.745   4.552 -0.1817 -0.0142  0.0802
28159W        W44633   6.432   8.324  11.776 -0.2671  0.0090 -0.2816
28160W        W44634  12.214  16.409   0.850 -0.2715 -0.1733  0.1175
28161W        W44635  15.147  18.015   5.272  0.5287 -0.0545 -0.0252
28162W        W44636   0.049   8.419  12.092  0.2715  0.1378  0.1631
28163W        W44637   0.970   5.592  11.054  0.1704  0.0768  0.3189
28164W        W44638  17.583   2.207   2.355 -0.2483 -0.0311 -0.1094
28165W        W44639  10.144   9.216   0.775 -0.0248  0.2490 -0.0245
28166W        W44640   9.691   6.369  11.116 -0.1274 -0.2495 -0.0227
28167W        W44641  11.837  17.552   0.473  0.2106  0.0452 -0.0784
28168W        W44642   6.666   3.099  13.951 -0.1610  0.0929 -0.2915
28169W        W44643   7.933  19.072  11.041  0.0388 -0.1319 -0.2672
28170W        W44644  18.309   0.027  12.477  0.0688  0.1705  0.1042
28171W        W44645  18.918   7.605  11.514 -0.2246  0.1553  0.0517
28172W        W44646  16.787   3.249   1.134  0.1193  0.1934 -0.0572
28173W        W44647  17.470   0.395   3.044  0.3123  0.1892  0.3288
28174W        W44648  12.890   0.285   2.013 -0.0251 -0.3136 -0.3697
28175W        W44649  13.800  12.508   4.254  0.0153 -0.1951  0.2532
28176W        W44650  15.132  10.763  14.643 -0.2914 -0.1732  0.1024
28177W        W44651   1.166  19.021   2.564 -0.3387 -0.2703 -0.0399
28178W        W44652  12.024  12.079   0.096 -0.1301 -0.0430  0.3961
28179W        W44653  17.137   4.944   3.591 -0.0856 -0.1967  0.1280
28180W        W44654  12.696  14.366  12.685  0.1918 -0.0724  0.0532
28181W        W44655   8.018  15.865   1.789 -0.2407 -0.1385  0.0306
28182W        W44656  13.833   9.024  12.394 -0.2380 -0.2191  0.2464
28183W        W44657   8.662  11.651   1.751  0.0082  0.4521 -0.3553
28184W        W44658   0.094   8.962  10.202  0.1300 -0.0797  0.0448
28185W        W44659   9.151   7.613   3.572 -0.1664  0.3129  0.0697
28186W        W44660  18.159  13.678  14.012  0.1244 -0.1196  0.0534
28187W        W44661   3.343   4.427   0.081 -0.2285  0.1206  0.0869
28188W        W44662   1.222  12.480   1.064 -0.0593 -0.4100 -0.0040
28189W        W44663   0.891  12.160   5.504 -0.2498  0.0462  0.3214
28190W        W44664   7.261   1.334   2.103 -0.1479 -0.0221 -0.3962
28191W        W44665  16.806   1.941  13.862  0.3812  0.0310  0.0368
28192W        W44666  14.290   9.654  10.503  0.0394 -0.1696 -0.3001
28193W        W44667  12.624   7.516   0.401 -0.1545  0.1991 -0.0995
28194W        W44668  15.764  15.862   3.379  0.1387  0.1105  0.4984
28195W        W44669   9.634  11.860  13.493  0.1281 -0.0131  0.2296
28196W        W44670   4.666  16.323  12.048 -0.0217 -0.1025  0.1237
28197W        W44671   6.109  14.956   1.963  0.2233  0.1102 -0.1499
28198W        W44672   3.843  15.726  12.517 -0.3769  0.1642 -0.0901
28199W        W44673  18.764   2.602   1.915  0.0726  0.1070  0.1480
28200W        W44674   5.453   8.606   3.802  0.1122  0.0613 -0.1639
28201W        W44675   8.613  18.831   2.389  0.0718 -0.2188  0.0278
28202W        W44676  15.562  13.265   3.107  0.1168 -0.1893  0.1217
28203W        W44677   9.376  10.926   2.909 -0.1512 -0.0142  0.2810
28204W        W44678  14.465   7.030   3.309  0.2231  0.2256 -0.2537
28205W        W44679  19.249  15.146   4.975  0.1830  0.3604 -0.1091
28206W        W44680   9.405   4.082   1.785  0.1143  0.0297 -0.2070
28207W        W44681   4.173  11.249   4.181  0.2519  0.0191 -0.0771
28208W        W44682   7.887   1.226  11.258 -0.3361  0.0831  0.0921
28209W        W44683  18.608   1.427   0.113  0.0997 -0.2766 -0.1095
28210W        W44684   4.341   3.238   3.412 -0.2104  0.0973  0.1552
28211W        W44685  10.186  16.655   0.534  0.3451 -0.1357 -0.0716
28212W        W44686   5.033   7.538  10.365 -0.2840 -0.2283 -0.1271
28213W        W44687   5.368  12.362   2.528 -0.0989  0.0003  0.2133
28214W        W44688  13.355   0.143   1.508 -0.1861  0.1929  0.1729
28215W        W44689  11.406   1.274   0.111 -0.3372 -0.1504  0.2026
28216W        W44690   4.399  12.526  14.017 -0.3852 -0.0662 -0.1439
28217W        W44691   0.738  10.261  14.587 -0.2602  0.0660  0.0096
28218W        W44692   3.359   4.086   4.518  0.2623  0.1209  0.1827
28219W        W44693  17.981   8.366  12.159  0.2471 -0.2217  0.0293
28220W        W44694   6.913   8.762  13.749 -0.0850 -0.1180  0.1157
28221W        W44695  15.937  14.847  11.750  0.1924  0.1894  0.0369
28222W        W44696  13.291   3.049   0.477  0.1690  0.3291 -0.2241
28223W        W44697   9.402   5.912  11.256 -0.0048  0.1328 -0.2695
28224W        W44698   8.724  18.120   1.543  0.3126 -0.0445  0.1386
28225W        W44699   2.490   5.994  14.391 -0.1369 -0.2745 -0.0022
28226W        W44700  13.507   4.180  11.015  0.1447  0.0836  0.3048
28227W        W44701  16.299  16.044   1.899  0.2133 -0.3245  0.2134
28228W        W44702  13.716   3.159  10.210 -0.2786 -0.0530  0.0331
28229W        W44703   5.525   2.581   0.779  0.2278  0.0395  0.2446
28230W        W44704  18.207   5.019   1.597 -0.1799  0.3038 -0.0193
28231W        W44705  11.630   6.435  12.306 -0.1996  0.4787 -0.0035
28232W        W44706   7.403   7.043  10.990  0.3286 -0.1233 -0.4482
28233W        W44707   2.857  14.283   3.635  0.0124 -0.2153 -0.1860
28234W        W44708   5.960   0.065  10.204 -0.0394  0.4153  0.1040
28235W        W44709  10.672  15.083   2.987  0.0969 -0.2786  0.2728
28236W        W44710  17.801  17.274   1.337  0.0710 -0.1512  0.0666
28237W        W44711  12.118  15.883  11.502 -0.0785 -0.1742  0.0794
28238W        W44712  16.696  12.539   0.740 -0.2621 -0.2389  0.3713
28239W        W44713   9.508   8.323   0.870 -0.1873  0.3353 -0.3105
28240W        W44714   1.672   4.287  12.635 -0.1943  0.2340 -0.1030
28241W        W44715   8.919   2.404   4.083 -0.2686 -0.0050  0.2061
28242W        W44716  19.293  16.819   4.569 -0.1402  0.2301 -0.4936
28243W        W44717   9.175   3.769   2.171 -0.3335  0.0356  0.1971
28244W        W44718   0.502   4.747  13.125  0.0559  0.1520  0.1348
28245W        W44719  14.045  14.092  11.784 -0.3812 -0.2401 -0.0163
28246W        W44720   4.132   4.196   3.104  0.0506 -0.0868  0.0862
28247W        W44721   4.900  13.878  11.162 -0.0662  0.0972  0.3191
28248W        W44722   5.099   8.823   1.018  0.0473 -0.2682  0.0686
28249W        W44723   7.806   0.071   9.853  0.1356 -0.0806  0.1734
28250W        W44724   4.630   5.748  10.467  0.1486 -0.2196 -0.4031
28251W        W44725   1.438   4.312   1.508 -0.0499 -0.1487 -0.4210
28252W        W44726   4.676  17.086   9.341 -0.0001 -0.0831  0.0201
28253W        W44727  18.558  15.179  13.606 -0.1680  0.0642 -0.1474
28254W        W44728   7.010   0.723   3.208  0.0121 -0.1118  0.2093
28255W        W44729  15.035  10.157   5.462 -0.0921  0.3391 -0.3235
28256W        W44730   1.291  12.489   5.537 -0.1098  0.2528 -0.1155
28257W        W44731   7.569  17.025  13.671 -0.1028 -0.0536 -0.0834
28258W        W44732  14.166   3.120   2.252  0.0869 -0.1840  0.1079
28259W        W44733   1.299   8.514  13.160 -0.1571 -0.1607 -0.0052
28260W        W44734  18.436  18.760   4.412  0.2448  0.0274 -0.0367
28261W        W44735   9.873  17.954  10.080  0.0703 -0.2314  0.2860
28262W        W44736   2.775  14.233   2.053  0.4053 -0.4772 -0.0336
28263W        W44737  12.864   9.257  10.916 -0.1262  0.2169  0.0959
28264W        W44738   5.099   6.427   3.230 -0.2024 -0.1655  0.0410
28265W        W44739   0.484  13.618  10.601 -0.3520 -0.4537 -0.4270
28266W        W44740  11.650  17.313   4.678  0.2708  0.1817  0.1284
28267W        W44741   4.112   4.624  11.388  0.0253 -0.4635 -0.0702
28268W        W44742  16.531   3.283   0.406  0.3107  0.3330 -0.1643
28269W        W44743   1.703   0.729  12.558 -0.0845 -0.1657  0.0490
28270W        W44744  10.005  13.496   2.071  0.2237  0.2043  0.2023
28271W        W44745   8.102  16.024   3.570  0.0467  0.1342  0.0595
28272W        W44746  18.912   1.269   3.712  0.3286 -0.1397  0.1057
28273W        W44747   9.729   5.165  12.769  0.0768  0.1730  0.1180
28274W        W44748   6.524   6.699  13.580 -0.0215  0.1633  0.0550
28275W        W44749   8.791   6.341  13.879 -0.1828  0.1911  0.0403
28276W        W44750  19.301  11.007  10.510  0.1478  0.2066  0.0048
28277W        W44751  11.452   4.018  10.060  0.1199 -0.0162  0.2381
28278W        W44752  14.542  10.018  12.894  0.1903 -0.0396 -0.0898
28279W        W44753   0.786  18.452  11.057 -0.0830  0.1068  0.0182
28280W        W44754  19.552   7.742   1.563  0.1906 -0.3100  0.3341
28281W        W44755  11.608  18.569   5.999 -0.2833 -0.1334  0.0652
28282W        W44756   2.586   3.067   1.078 -0.0196 -0.4847 -0.0422
28283W        W44757   0.363  17.839   3.701  0.0624 -0.1964 -0.1112
28284W        W44758  13.267   7.319  13.916  0.0145 -0.1979 -0.0008
28285W        W44759   0.583  15.582   4.930  0.0394  0.2244 -0.1364
28286W        W44760  15.210  13.592   3.783  0.1320 -0.4446 -0.0778
28287W        W44761   7.728  17.547   9.780  0.1054  0.1844  0.1117
28288W        W44762  13.117  11.925   0.658 -0.3562 -0.0749  0.1562
28289W        W44763   1.210  14.031  12.889  0.3349  0.0069 -0.2992
28290W        W44764  10.258   8.496  11.099  0.1326 -0.0439  0.3677
28291W        W44765  12.433   3.577  10.303 -0.0862  0.1400 -0.0951
28292W        W44766   6.551   0.604   1.332 -0.0707  0.1249 -0.0865
28293W        W44767   0.062   8.847  11.190  0.1172  0.0004 -0.2859
28294W        W44768  10.828  17.298  12.494  0.0821 -0.0479  0.0927
28295W        W44769  11.068  18.740   1.768 -0.0345  0.1955  0.1040
28296W        W44770   3.702  11.548   0.939 -0.0382 -0.0808  0.1276
28297W        W44771   6.907   7.960   9.254  0.1630 -0.0376 -0.2212
28298W        W44772   5.791   0.387   2.598 -0.0492  0.0907  0.1069
28299W        W44773   1.210   7.021   1.723 -0.0352 -0.3156 -0.1033
28300W        W44774   0.214   9.688   1.529  0.3270  0.0334 -0.0751
28301W        W44775  11.918   4.785  10.472 -0.0358  0.1784 -0.0131
28302W        W44776  18.114  13.569   1.219  0.0252  0.2797  0.2381
28303W        W44777  13.936   4.917   4.617 -0.0548  0.0461  0.1543
28304W        W44778   4.574  11.351  10.509  0.0986  0.1720  0.2502
28305W        W44779  12.151   2.950  11.990  0.0079  0.1942 -0.1847
28306W        W44780   7.398   0.141  14.413 -0.2029  0.0265 -0.0272
28307W        W44781   0.087   4.950   3.394  0.0582 -0.2757 -0.2198
28308W        W44782  16.068   4.742  11.100 -0.1491 -0.0640 -0.0157
28309W        W44783  14.078   7.343  13.591 -0.2957  0.1262  0.1172
28310W        W44784  18.648  10.529  12.434 -0.1759 -0.0432  0.3581
28311W        W44785   5.707  15.278  13.380 -0.2090  0.2083 -0.1398
28312W        W44786  12.467   4.264   5.283  0.2404 -0.3929  0.0750
28313W        W44787  18.251  18.322   0.101 -0.0212  0.0143 -0.1680
28314W        W44788  15.568  16.760  13.318 -0.4514 -0.0959  0.3990
28315W        W44789  13.145  18.855   3.840  0.1901 -0.0150 -0.3551
28316W        W44790  10.419  11.946  13.814  0.0656 -0.0098  0.3915
28317W        W44791   0.553   8.961   2.121 -0.2938 -0.0178  0.0056
28318W        W44792  13.555   9.063   4.045 -0.0585  0.1315  0.2022
28319W        W44793  10.979   3.857   1.471 -0.1569 -0.2596  0.0652
28320W        W44794  12.570  13.109   4.613 -0.1208 -0.0460 -0.1144
28321W        W44795   1.880   8.179  11.386 -0.2269  0.1013  0.1919
28322W        W44796  12.372   4.750   1.129  0.2040  0.1221  0.0024
28323W        W44797  17.593   2.949  12.760 -0.1303  0.2945 -0.0793
28324W        W44798   1.541   9.547   1.813 -0.0096 -0.1832  0.1925
28325W        W44799  18.944  13.400  13.426  0.3045 -0.1837  0.1991
28326W        W44800  16.263  13.875  11.169 -0.2229 -0.0420  0.2324
28327W        W44801   4.072   7.299   2.664  0.0056 -0.0458  0.1999
28328W        W44802   9.652   2.948  11.354  0.1512 -0.0710 -0.1351
28329W        W44803  13.179  10.387   1.919  0.0828  0.2565 -0.1456
28330W        W44804   1.713   1.879  13.807  0.1710 -0.0582 -0.0894
28331W        W44805   2.143   1.609  13.587 -0.0697 -0.0480 -0.4327
28332W        W44806   3.971  19.398  11.741 -0.0898  0.0995  0.0420
28333W        W44807  17.771   9.066  12.594  0.3047 -0.0083 -0.3195
28334W        W44808   1.721  11.825  10.590  0.3227 -0.2751 -0.1407
28335W        W44809  10.258  14.637   9.372 -0.2664 -0.1824 -0.0918
28336W        W44810   5.325   4.273   2.979  0.0118 -0.0289  0.2246
28337W        W44811  10.075   5.467   4.186 -0.1139  0.0447  0.0076
28338W        W44812  14.434  18.494  14.599 -0.0198 -0.2140 -0.0209
28339W        W44813  18.505  14.086  10.110 -0.1159 -0.0939 -0.0815
28340W        W44814   9.624   2.108   2.798  0.1233 -0.2500  0.1670
28341W        W44815   3.375   0.245  11.217  0.2165 -0.0693 -0.1988
28342W        W44816  12.062   3.905   4.570 -0.0277 -0.1909 -0.2647
28343W        W44817   1.640  18.683   1.159 -0.0944 -0.1518 -0.2083
28344W        W44818   8.821  16.315  11.914 -0.0977 -0.0090  0.0624
28345W        W44819  12.274   3.506   9.837  0.1326 -0.1170 -0.1675
28346W        W44820  15.298   0.855   1.323 -0.1887 -0.0911  0.0248
28347W        W44821  19.061   6.879  11.704  0.0628 -0.1473  0.2355
28348W        W44822  16.932   8.177  12.566 -0.1088 -0.4393 -0.3485
28349W        W44823   0.334   6.552  10.705 -0.4174  0.0823 -0.1847
28350W        W44824   9.864   0.773  13.132 -0.1577 -0.0456 -0.2017
28351W        W44825  11.438  15.433   3.073 -0.0915  0.1756 -0.0865
28352W        W44826  15.430   6.271  13.591 -0.1331  0.2480  0.3039
28353W        W44827  14.235   3.101  11.147  0.0811  0.1450  0.0152
28354W        W44828   1.241   7.285   4.664  0.0685 -0.0531  0.1745
28355W        W44829  14.069  11.377  13.292 -0.4026 -0.0792 -0.2098
28356W        W44830   9.386   1.336   0.493 -0.0813 -0.1479  0.2053
28357W        W44831   5.905   4.894  13.658 -0.1579 -0.1025 -0.1213
28358W        W44832  16.326  13.039   2.563 -0.0510  0.0542  0.2552
28359W        W44833  18.765   5.506   0.680 -0.0993 -0.1878  0.0170
28360W        W44834   9.787  10.132  13.548  0.1170 -0.1325  0.1669
28361W        W44835  13.261  11.629  10.802 -0.3448 -0.0131  0.2718
28362W        W44836   3.014   8.336   0.933  0.0580 -0.1029  0.0541
28363W        W44837   2.033  14.261  11.523  0.1831 -0.1220 -0.2659
28364W        W44838  10.608   9.997  12.030 -0.0023  0.1721  0.0980
28365W        W44839  13.028   0.602   4.442  0.1098 -0.3287 -0.0822
28366W        W44840  15.031  17.974  13.387  0.1216  0.0185  0.1166
28367W        W44841   1.703   0.954   5.066  0.1389 -0.0218 -0.0469
28368W        W44842   5.528  19.253   3.002  0.0866  0.0976 -0.0062
28369W        W44843   8.832  16.191   1.424 -0.2236 -0.2860 -0.0232
28370W        W44844   3.860   8.941   5.366  0.1954 -0.3038  0.1822
28371W        W44845   9.139   5.014  13.104  0.1507  0.0075  0.0509
28372W        W44846   6.372  18.530   0.021  0.1290  0.0357  0.2470
28373W        W44847   3.080  13.777  13.112 -0.0058  0.0029 -0.0299
28374W        W44848  17.114   1.582  14.223 -0.1185 -0.1212 -0.1329
28375W        W44849  13.071   6.784   9.763  0.1059  0.1364  0.6096
28376W        W44850  15.003  19.540  13.130  0.0748 -0.1871 -0.3084
28377W        W44851   5.172  16.754   0.054 -0.1709  0.2813 -0.0347
28378W        W44852   6.480   6.362  11.536 -0.1000  0.1553  0.2047
28379W        W44853   2.047   1.209   3.404  0.0740 -0.0173 -0.2416
28380W        W44854  10.143   6.232  13.968 -0.2342 -0.0069  0.3528
28381W        W44855   4.382  14.194   5.295  0.0631  0.3699  0.3276
28382W        W44856   3.384   8.665  14.302 -0.0375  0.0302 -0.0800
28383W        W44857   5.110  13.699   5.045  0.0806  0.4268  0.1397
28384W        W44858  11.638   4.727  13.743  0.1214 -0.1156  0.0326
28385W        W44859   8.642   1.286  13.944 -0.1258 -0.1523  0.3299
28386W        W44860  16.724  11.657  12.870 -0.2711 -0.1209 -0.1365
28387W        W44861  15.952  13.842   0.509  0.1944 -0.0968  0.1543
28388W        W44862   3.916  19.518  13.943 -0.1644  0.1625 -0.1241
28389W        W44863   6.438  11.873   4.082  0.1648  0.1510  0.0940
28390W        W44864  18.710   6.296  13.947 -0.0389 -0.1628  0.3543
28391W        W44865  13.046   8.073   4.078 -0.2831  0.0937 -0.1557
28392W        W44866   1.543   6.736  12.750 -0.1749 -0.2652 -0.1917
28393W        W44867   9.932  11.041  12.017 -0.0638 -0.4086 -0.1482
28394W        W44868   9.257  13.007  12.193  0.0945 -0.1168  0.1652
28395W        W44869  12.222  11.727   3.404 -0.2112  0.2914 -0.3644
28396W        W44870  12.052  17.250  11.652 -0.0306 -0.2529 -0.1906
28397W        W44871  15.434  18.121  14.204  0.1328  0.2899  0.0585
28398W        W44872  14.148   9.663   3.144  0.1954  0.3453 -0.1272
28399W        W44873  13.337   0.698  11.680  0.0410  0.2136 -0.0818
28400W        W44874  13.781   7.836   1.390  0.0478  0.2342  0.0419
28401W        W44875  17.730   4.942  13.545 -0.0616 -0.4150 -0.2282
28402W        W44876  16.609  14.549  11.435  0.5986  0.2083 -0.1198
28403W        W44877   3.880  13.228   0.412 -0.0718 -0.0512  0.0672
28404W        W44878  18.006   6.590  12.819  0.3159  0.1819  0.0217
28405W        W44879  18.546  10.141   2.354  0.0364  0.3503 -0.0130
28406W        W44880  16.810   0.625   2.591  0.2949  0.1793  0.0256
28407W        W44881   1.189  11.689   0.039  0.1094  0.0746 -0.0319
28408W        W44882  12.267  14.532  13.405  0.1373 -0.1463 -0.4011
28409W        W44883   9.270   8.431   1.606  0.0947 -0.2968 -0.1483
28410W        W44884  12.135   4.173  10.517 -0.0068  0.2057  0.0450
28411W        W44885   3.497   4.580   0.954 -0.1915 -0.1533  0.1677
28412W        W44886   4.084  12.776   0.244  0.0962  0.0672 -0.0506
28413W        W44887  14.272  14.554  10.542 -0.1293 -0.0706 -0.1449
28414W        W44888   3.929  10.065  12.481 -0.1176 -0.1897  0.0738
28415W        W44889   1.003  16.713   5.021  0.4345  0.0301  0.1674
28416W        W44890   0.084  17.540   2.406  0.0291  0.0762  0.2215
28417W        W44891   3.021   1.057  14.649 -0.0410 -0.0091  0.3566
28418W        W44892  17.752   0.519  10.024  0.2803  0.4786  0.0258
28419W        W44893   2.284   5.514   0.444  0.1185  0.0210 -0.1517
28420W        W44894   4.271  12.454  12.087 -0.2381 -0.0983  0.2614
28421W        W44895  12.682  11.317   0.955 -0.0251 -0.0295 -0.2182
28422W        W44896  18.163   2.223   0.855 -0.0494  0.2337  0.2102
28423W        W44897   5.009   9.522   9.782 -0.6309 -0.1955  0.0395
28424W        W44898  11.490   2.157  11.368 -0.1545  0.1494 -0.2927
28425W        W44899   8.235   3.867   1.303  0.0132 -0.2069 -0.3179
28426W        W44900   0.349  14.254  11.317  0.1278  0.2307  0.0033
28427W        W44901  15.998  10.055  12.421  0.0140  0.0093  0.1014
28428W        W44902   9.929  11.234   3.782 -0.0601 -0.2055 -0.2038
28429W        W44903  19.519   8.428  14.050  0.2531 -0.1388  0.0850
28430W        W44904  10.927   4.147   0.588  0.0453 -0.2122  0.0127
28431W        W44905   4.819   9.029   3.145  0.3725  0.1573  0.0066
28432W        W44906   6.723  16.120   5.191 -0.0315  0.0084  0.2964
28433W        W44907   2.668  11.406  14.493  0.2368 -0.1251 -0.1327
28434W        W44908  15.795  18.951   9.998  0.1055  0.0141  0.0303
28435W        W44909  10.991   6.535   1.232  0.2631  0.2109  0.0700
28436W        W44910  15.904   0.856  11.757 -0.0561 -0.0160  0.1385
28437W        W44911  16.854   1.382   1.421 -0.0313 -0.2044 -0.0780
28438W        W44912   1.223   8.628   4.159  0.2107 -0.1420  0.3776
28439W        W44913   2.038  10.116   2.073  0.2988  0.4011 -0.1020
28440W        W44914  11.098   5.065  13.441 -0.1127  0.0285 -0.0659
28441W        W44915  17.720   8.773  12.054 -0.0781  0.0538 -0.0295
28442W        W44916  16.529  13.486   1.596  0.2732  0.0686 -0.0591
28443W        W44917  12.987   7.259   3.233  0.0843  0.3513  0.1569
28444W        W44918  13.989  13.693   1.058 -0.1429  0.0463  0.2726
28445W        W44919  16.930  16.159  12.162 -0.0095 -0.1407  0.2064
28446W        W44920  17.073   7.632   3.475  0.2190 -0.0894  0.2016
28447W        W44921  17.059   4.592   1.199 -0.2224  0.0212  0.1163
28448W        W44922  12.950   1.039  10.905 -0.1137  0.3132  0.5121
28449W        W44923   3.579   2.405   3.441 -0.2089 -0.0592 -0.4036
28450W        W44924  14.512   8.351   5.107  0.0129  0.1643  0.2858
28451W        W44925   7.407  17.389   3.895 -0.0652  0.3068 -0.0985
28452W        W44926   8.111  19.588  10.923  0.1213  0.0596 -0.1232
28453W        W44927   0.812   9.606   3.967  0.2045 -0.0638  0.4002
28454W        W44928  12.299  16.311   0.126 -0.1432  0.3261 -0.0347
28455W        W44929  16.028  10.049   0.002  0.0651  0.0017 -0.3033
28456W        W44930   9.479   0.661  12.841  0.1600 -0.4866  0.1631
28457W        W44931  14.019   7.450   4.861  0.5500  0.0695  0.0497
28458W        W44932  12.091   6.198   0.936 -0.0864  0.4364  0.0173
28459W        W44933  16.547   6.490   4.486 -0.2044  0.0380 -0.1324
28460W        W44934   1.612  19.015   0.645 -0.1523 -0.0329  0.1330
28461W        W44935  10.729   4.350   4.333  0.1251 -0.1037  0.0407
28462W        W44936   8.679  18.585   0.590  0.1505 -0.0858  0.0397
28463W        W44937  11.835   2.055  12.190  0.3234  0.0128 -0.2341
28464W        W44938   3.773  10.477  10.754 -0.0543 -0.1233 -0.1215
28465W        W44939  12.543  17.731  12.272 -0.0666 -0.2879 -0.2154
28466W        W44940  18.480   8.571  14.568 -0.1007 -0.1431 -0.1151
28467W        W44941   8.805   4.055   1.375 -0.0122 -0.3001 -0.0116
28468W        W44942  16.293   8.874  13.084 -0.0026 -0.5561  0.1989
28469W        W44943  12.373   0.667  11.306  0.1376  0.0727 -0.2631
28470W        W44944  16.130   4.030  12.246 -0.1175  0.2222  0.0743
28471W        W44945  19.133  11.526   2.472 -0.0080 -0.1166 -0.1994
28472W        W44946  11.027  16.907  11.283 -0.3243 -0.2476 -0.2580
28473W        W44947   1.439  17.600   2.410  0.2393 -0.0451  0.2431
28474W        W44948   3.119   4.683  10.754  0.3944 -0.1545 -0.2249
28475W        W44949  18.314   4.667  13.746 -0.1917  0.0547  0.0959
28476W        W44950  18.783   7.085   3.441 -0.0593 -0.0374 -0.1934
28477W        W44951  19.583   1.005   3.059 -0.4122  0.2239  0.3343
28478W        W44952   5.226   5.671   4.141  0.0572 -0.3986 -0.1016
28479W        W44953  19.558  15.675   2.283  0.1009  0.1001  0.0149
28480W        W44954  16.860  12.618   1.303  0.0485 -0.1370 -0.0456
28481W        W44955  11.010   2.625   2.651 -0.3697  0.0278  0.1581
28482W        W44956   5.188  12.001  14.270 -0.1336  0.0812  0.0161
28483W        W44957  16.465  18.631  11.677 -0.3754  0.0742 -0.0274
28484W        W44958   8.884  19.203  10.967  0.0444 -0.0547 -0.3200
28485W        W44959  18.961  19.127  12.665  0.0388 -0.1237 -0.1297
28486W        W44960   6.953  19.300   4.560  0.0031  0.1631 -0.0218
28487W        W44961  17.209   5.158  12.608  0.1909  0.1379  0.0772
28488W        W44962  15.261   7.015   9.979 -0.1436 -0.2321 -0.1350
28489W        W44963   4.327   9.071   9.608 -0.3833  0.0524  0.2864
28490W        W44964   6.565  19.588   9.050 -0.1811 -0.0449 -0.1583
28491W        W44965  10.422  16.840  12.147 -0.1139 -0.1387  0.2072
28492W        W44966  16.286   8.464   4.475  0.0791 -0.1191  0.1897
28493W        W44967  10.368   1.465  11.759 -0.2653 -0.2553 -0.2414
28494W        W44968   7.210   3.100   0.033 -0.1740  0.0291 -0.3262
28495W        W44969   5.140  11.502   4.391  0.0922 -0.2007 -0.1973
28496W        W44970   0.119  12.842   5.156  0.0664  0.0806 -0.0099
28497W        W44971   7.360   5.632  10.624  0.3143 -0.1305  0.0832
28498W        W44972   6.471   8.136   1.039  0.0905  0.0896 -0.1443
28499W        W44973  18.371  18.670   3.765  0.1267  0.0620 -0.1553
28500W        W44974  19.287   4.791   1.075  0.0019 -0.1350  0.2132
28501W        W44975  16.640  13.447   0.080  0.0414 -0.0748  0.3673
28502W        W44976   3.439   9.384  12.805 -0.1841 -0.1470 -0.4175
28503W        W44977   1.090  17.205   1.780  0.0285 -0.0404 -0.0252
28504W        W44978  12.222  19.169   3.623 -0.2117  0.1800 -0.0423
28505W        W44979   2.215   7.077   4.618 -0.0759 -0.1030  0.1449
28506W        W44980  11.281   5.513   2.632 -0.0127 -0.0908  0.1938
28507W        W44981  19.029  13.399  14.480 -0.1453  0.2272  0.0551
28508W        W44982  18.082  11.753  10.232  0.1084  0.0682 -0.1306
28509W        W44983   2.825   5.778  12.951  0.1295 -0.0042  0.0936
28510W        W44984   0.371   5.792   3.131  0.1591  0.1795  0.4542
28511W        W44985   4.222  13.002   2.333 -0.1094  0.1873 -0.1177
28512W        W44986  15.200  13.191   4.933  0.1120  0.0956  0.2448
28513W        W44987   6.474  16.281   4.785  0.0429  0.0738  0.2278
28514W        W44988   1.004  12.347  13.607  0.0123  0.0697 -0.2234
28515W        W44989   0.946   5.160   4.380  0.2597 -0.0420 -0.3298
28516W        W44990   1.471   4.690  13.369  0.0118 -0.0460 -0.0114
28517W        W44991   7.288   1.663  10.631  0.1526  0.1400  0.3918
28518W        W44992  10.899  12.572   0.733  0.2537  0.0287 -0.0036
28519W        W44993  16.035   5.948  14.165  0.1590  0.1364  0.1306
28520W        W44994  13.810   4.823  13.961  0.0371 -0.1687  0.1515
28521W        W44995   9.065   5.777   2.415 -0.2086  0.1559 -0.5007
28522W        W44996  18.484  11.963   9.575  0.0452 -0.1840  0.1015
28523W        W44997  14.511   4.334  11.518 -0.1690  0.0418  0.0950
28524W        W44998  12.504  16.751   0.956 -0.0025  0.1978 -0.1521
28525W        W44999   9.154  16.069   4.112 -0.4359 -0.0830  0.2846
28526W        W45000   7.409  16.591  10.887 -0.0131 -0.1670  0.0070
28527W        W45001  10.441  17.004   2.571  0.2527 -0.1232  0.0452
28528W        W45002   7.613  14.968   2.235 -0.3677  0.3368 -0.0408
28529W        W45003   5.927  12.203   3.138 -0.0070  0.0224  0.4091
28530W        W45004  17.994  14.355  11.714  0.0450 -0.2737 -0.3581
28531W        W45005  13.704  16.886   2.103 -0.0884 -0.2484 -0.1916
28532W        W45006   4.104  17.081   9.166 -0.0446  0.0397  0.1174
28533W        W45007   8.940   8.414   5.060 -0.2832 -0.0185 -0.1658
28534W        W45008   9.692   5.796   1.042 -0.1261  0.2246  0.1056
28535W        W45009   0.472   2.581  12.573  0.3384 -0.0516  0.1220
28536W        W45010  17.888  11.051  13.324  0.1110  0.2307  0.0435
28537W        W45011  18.755  17.357   0.192 -0.4077 -0.2343  0.2215
28538W        W45012  15.410  16.286  14.296  0.0258  0.2205 -0.2438
28539W        W45013  15.145  13.511   3.299  0.2476 -0.2352  0.0756
28540W        W45014   2.992   2.714  10.255 -0.1060  0.0019  0.1162
28541W        W45015  10.673   6.356   1.604 -0.2138  0.1253  0.3237
28542W        W45016  14.253   8.177  11.296 -0.2395 -0.1228 -0.0148
28543W        W45017   3.602  19.210   3.178  0.1971  0.3951 -0.0678
28544W        W45018   7.392   3.883   2.756  0.0393 -0.0236 -0.4729
28545W        W45019  15.980   5.424  10.203  0.0573 -0.0390 -0.0550
28546W        W45020   5.090  10.843  13.794  0.2184  0.2769 -0.0529
28547W        W45021  14.808   4.004   0.588 -0.1480  0.0707  0.1663
28548W        W45022   4.728  14.185   0.667  0.2599 -0.1442 -0.0497
28549W        W45023   2.093   1.131   1.634  0.0149  0.6452 -0.0500
28550W        W45024   2.893  14.529  11.065  0.1760  0.2117 -0.1563
28551W        W45025   0.294  12.067  11.453  0.0680  0.3519 -0.0699
28552W        W45026  10.451   4.357  12.451  0.1326  0.0221  0.2523
28553W        W45027  12.640   7.336   0.902  0.1336  0.1137  0.3922
28554W        W45028   6.519   0.761   0.016 -0.3225 -0.0533  0.0267
28555W        W45029  12.436  13.075  12.460  0.3133  0.0624 -0.2518
28556W        W45030  10.955   2.637   4.077  0.0749  0.0363 -0.1512
28557W        W45031   6.056  18.881   2.749 -0.0153  0.1298 -0.1773
28558W        W45032  19.226   4.095  14.652 -0.2179  0.2736  0.1721
28559W        W45033  16.381   7.728  11.092 -0.1283 -0.2362  0.1128
28560W        W45034  16.701  17.761  10.731  0.1457 -0.3513  0.4128
28561W        W45035  19.218  11.783   2.956 -0.3992  0.1531 -0.2178
28562W        W45036   2.779  12.580   0.869  0.1352 -0.1344 -0.1896
28563W        W45037  14.742   6.858   1.047 -0.3389 -0.0032  0.2115
28564W        W45038   9.779   7.064   2.770  0.0186  0.1168 -0.0945
28565W        W45039   6.074  10.612   0.888 -0.2120  0.1735 -0.1081
28566W        W45040   5.882   4.519   0.522  0.1241 -0.0137 -0.1001
28567W        W45041   0.660   4.090  13.915 -0.1699 -0.0615  0.2519
28568W        W45042  11.416  19.499  12.817 -0.1768  0.1723 -0.0593
28569W        W45043   3.019   0.729   0.915  0.0764 -0.1272  0.2705
28570W        W45044   0.735  17.502   3.793  0.0727  0.2257 -0.3591
28571W        W45045   5.643   4.540  13.885  0.0105 -0.0046 -0.0893
28572W        W45046  10.417   8.110  11.948  0.0540  0.1379  0.0677
28573W        W45047  18.013  16.440   4.751  0.3519 -0.0708  0.0367
28574W        W45048  13.986  12.893   2.393 -0.5022 -0.2747 -0.0673
28575W        W45049   2.809  14.818  12.700  0.1657 -0.4000 -0.1795
28576W        W45050  17.907   0.774   3.782 -0.1198  0.0351  0.2309
28577W        W45051   4.796  11.819   4.492  0.2078  0.0504 -0.0336
28578W        W45052   4.071   0.297  11.817  0.0427 -0.0451  0.3850
28579W        W45053  11.900   5.429   3.048 -0.0762  0.2172  0.3388
28580W        W45054   9.744   7.506   0.105  0.1860  0.0220  0.2209
28581W        W45055   9.222   7.808   0.930 -0.1124 -0.5273  0.1099
28582W        W45056   8.561   7.354   0.155 -0.1341  0.0573 -0.1916
28583W        W45057   9.591   8.819   3.010  0.2004  0.3405 -0.0577
28584W        W45058   3.038   4.859   4.201 -0.0627  0.1248  0.1610
28585W        W45059  13.406   0.869  12.204  0.1498 -0.1030 -0.2798
28586W        W45060  10.638   1.710   0.052 -0.0725  0.2057  0.1040
28587W        W45061   6.176  13.835   3.180 -0.1065  0.2402 -0.0829
28588W        W45062   1.867   4.972  11.017  0.0841  0.1722  0.4526
28589W        W45063  10.904   0.321  12.928  0.1350  0.1700 -0.0826
28590W        W45064   2.515   0.670   0.881  0.0661  0.2858  0.2576
28591W        W45065  18.622   8.265   5.313 -0.0318  0.2021 -0.1502
28592W        W45066  13.740   7.585   2.365 -0.0767 -0.1704 -0.1062
28593W        W45067   7.048   1.621   9.284  0.1788  0.1622  0.1367
28594W        W45068   9.323   8.138  10.937 -0.0042  0.0312  0.0897
28595W        W45069  12.603   4.402  13.671  0.0540  0.0724 -0.2691
28596W        W45070  17.960  16.103   3.622  0.1311  0.2643  0.2939
28597W        W45071  18.595  12.928   1.705  0.0797  0.3288  0.1964
28598W        W45072   8.165   6.856  10.222 -0.0477  0.0647  0.0050
28599W        W45073  17.105   0.593  14.465 -0.2156 -0.2475  0.2906
28600W        W45074   6.827   1.231   3.083  0.2181 -0.0443  0.1076
28601W        W45075  10.918  16.192   0.681 -0.2876 -0.0524 -0.3739
28602W        W45076   4.379  15.646   4.127 -0.0260  0.1285 -0.3102
28603W        W45077  16.486  12.964   4.358 -0.0032 -0.0251  0.1333
28604W        W45078  14.898  13.990   2.170 -0.0621 -0.2173 -0.1981
28605W        W45079   7.970   4.411   9.623 -0.2723 -0.3571 -0.0136
28606W        W45080   2.794  13.435  12.941 -0.2271 -0.0244  0.3846
28607W        W45081   4.637   0.741   0.761 -0.1259  0.0588  0.1508
28608W        W45082  16.681  17.992   2.562 -0.1970  0.2200  0.0262
28609W        W45083   9.519   8.111  11.681 -0.2098 -0.2210 -0.0649
28610W        W45084  16.529  13.914   0.349  0.1664  0.0304 -0.1918
28611W        W45085   1.399   2.076  11.813 -0.0965 -0.1222 -0.0350
28612W        W45086   2.492   2.297  10.777  0.0476 -0.3060  0.0134
28613W        W45087   1.781   2.181   9.350  0.4141 -0.0974 -0.1469
28614W        W45088   9.532  18.503  12.714  0.0934 -0.1657  0.1746
28615W        W45089  16.759   4.851  13.744  0.0483 -0.1133  0.1160
28616W        W45090  15.138  12.471   2.941  0.2691 -0.1741 -0.2917
28617W        W45091  17.021   2.922  10.188  0.0935  0.1389 -0.0010
28618W        W45092   1.428  10.013   3.489  0.2689  0.1380  0.2263
28619W        W45093   1.129   8.500  14.190  0.0517  0.0917  0.1106
28620W        W45094  11.063  12.879   3.230  0.0436 -0.2470  0.2980
28621W        W45095   0.496   3.252  11.308  0.1340  0.0273  0.0790
28622W        W45096   9.706  14.968  14.025  0.1472 -0.0118 -0.0096
28623W        W45097   5.855   0.138   1.685 -0.1113 -0.1273  0.0542
28624W        W45098  13.856   3.668   0.993  0.0134 -0.2869  0.1555
28625W        W45099   2.442  18.913   1.089 -0.1952 -0.0563  0.1161
28626W        W45100  11.443   6.658   3.422 -0.0192  0.1490  0.1182
28627W        W45101  18.106  14.127   1.090  0.3254  0.2896 -0.1759
28628W        W45102   7.767  19.305   3.397  0.0414  0.1110 -0.0384
28629W        W45103  18.867  10.520   0.524 -0.0542  0.0773  0.1780
28630W        W45104  16.507   8.679  10.612 -0.0050  0.2647 -0.2752
28631W        W45105   9.575  17.350   1.010  0.1433 -0.0353  0.1616
28632W        W45106   7.246   3.442  11.991 -0.0867  0.0838 -0.1450
28633W        W45107  12.664   3.067  11.998 -0.0089 -0.2222  0.2952
28634W        W45108   1.341   9.155   4.185  0.1373  0.3055  0.3345
28635W        W45109   2.248  12.972  11.176  0.0895 -0.2604  0.0088
28636W        W45110   9.293   3.274   2.340 -0.0382  0.0026  0.0445
28637W        W45111   2.434  16.268  11.555  0.0084  0.1248 -0.0543
28638W        W45112  17.613  11.208  14.627  0.0854  0.0506  0.1356
28639W        W45113  18.894   7.558   1.456 -0.0564 -0.3456  0.1888
28640W        W45114   5.722  14.057   3.134 -0.0414  0.1165 -0.2646
28641W        W45115  12.545  15.417   0.700  0.1715 -0.3078 -0.1165
28642W        W45116  10.009   4.454  12.610  0.0464  0.1612 -0.1203
28643W        W45117   4.651   5.918   1.638 -0.3586 -0.1985  0.0788
28644W        W45118   2.067  10.993  14.042  0.0567  0.2175  0.0983
28645W        W45119  15.188   3.842  13.371  0.0311 -0.0770  0.0498
28646W        W45120   3.541   0.808  10.243  0.0915 -0.0987  0.1674
28647W        W45121   6.866  19.408   2.359  0.1910 -0.1518 -0.1053
28648W        W45122  16.745   8.627  11.056 -0.1611  0.1829 -0.0984
28649W        W45123  15.099   3.878   3.312 -0.0792 -0.0328  0.1411
28650W        W45124   6.472   0.326   1.932 -0.1747  0.0133  0.0549
28651W        W45125   3.901   7.420  10.626 -0.1725  0.1500 -0.1867
28652W        W45126   8.301   1.325  13.428 -0.0855 -0.0773 -0.4146
28653W        W45127   0.957  10.607  11.861 -0.0099  0.1155 -0.1787
28654W        W45128   8.478   8.940   2.056  0.0443 -0.1228 -0.3899
28655W        W45129   0.171  14.329   2.938  0.4370  0.2669 -0.0320
28656W        W45130   0.767  18.024  13.844 -0.2915 -0.2917 -0.1484
28657W        W45131   6.058  13.190   4.272 -0.1954 -0.2900 -0.1472
28658W        W45132  14.009   0.326   4.127  0.1533  0.0424  0.1841
28659W        W45133   4.550   1.868   1.500  0.0776 -0.0733  0.2654
28660W        W45134  15.458   8.453  10.622 -0.1248 -0.0478  0.1701
28661W        W45135  10.775   5.578   3.401  0.0980 -0.1415  0.2881
28662W        W45136   0.730   0.721  12.664 -0.1158  0.3614  0.1782
28663W        W45137   1.066   1.427   3.681 -0.0965 -0.2233 -0.4889
28664W        W45138   0.317   6.527  13.229  0.0820 -0.4968  0.1125
28665W        W45139   5.737  14.029  11.000 -0.6331  0.2173  0.0816
28666W        W45140   2.611  12.682   4.230  0.0564 -0.2927 -0.1009
28667W        W45141  14.557  14.303  11.721  0.1444 -0.2029  0.2719
28668W        W45142  19.127   4.364   3.101 -0.1469  0.0952 -0.0353
28669W        W45143   4.483   8.387  12.642  0.1631 -0.1219 -0.2340
28670W        W45144  19.093  12.563  10.004 -0.0424 -0.0884  0.0077
28671W        W45145  16.778   1.267  12.232  0.0263 -0.1549  0.2230
28672W        W45146  15.097   5.550  10.626 -0.1658  0.0426  0.1970
28673W        W45147  14.153  15.872   0.778 -0.1749 -0.1055 -0.1337
28674W        W45148  11.120  17.388   9.809  0.1371  0.0188  0.1074
28675W        W45149  13.646  19.472  13.333  0.0637 -0.1080  0.2204
28676W        W45150   7.541  13.010  10.574  0.1422  0.0679  0.4114
28677W        W45151   3.349  13.365  14.505 -0.0869  0.0666  0.3642
28678W        W45152  17.832  14.887   3.290  0.1639  0.7258  0.0412
28679W        W45153  10.755  19.094  12.332  0.0896 -0.3383  0.1073
28680W        W45154   4.598  12.163   5.969 -0.1455 -0.0907 -0.0187
28681W        W45155  14.759   3.079  13.127 -0.4173 -0.0130 -0.0703
28682W        W45156  16.920   3.858  10.463  0.3266 -0.0867  0.1677
28683W        W45157  14.552   5.326   2.287 -0.1198  0.1421 -0.2054
28684W        W45158   8.066  14.350  14.373  0.3405 -0.0045  0.0130
28685W        W45159   0.479  15.709  11.384 -0.1078  0.0466  0.2500
28686W        W45160  12.550  16.615   3.355 -0.1604  0.3088 -0.1916
28687W        W45161  19.573  12.577  10.243  0.3007  0.2585 -0.0578
28688W        W45162   4.742   1.471   2.884 -0.1600  0.2651  0.2819
28689W        W45163   7.161   1.861   1.778  0.1732 -0.2841  0.3877
28690W        W45164  13.942   2.290   1.351 -0.2660  0.1890  0.1609
28691W        W45165  17.562   3.914   2.534 -0.2235  0.2198  0.1329
28692W        W45166   6.031  16.075  10.955 -0.2215  0.3461  0.0019
28693W        W45167   9.748   2.376  10.590 -0.2859 -0.0674 -0.2000
28694W        W45168  11.939  16.553   3.064  0.1120 -0.0506 -0.0198
28695W        W45169   3.606  16.378   3.558  0.3671 -0.0944 -0.0702
28696W        W45170  11.732   7.309   3.445  0.0168  0.4007 -0.2295
28697W        W45171   0.838   3.312  11.681  0.0694  0.0154 -0.1256
28698W        W45172  17.994  19.052   4.269  0.0027 -0.0939  0.3880
28699W        W45173   6.455   1.842  11.034 -0.1222  0.1139  0.1628
28700W        W45174  19.568   2.662  12.561  0.0959  0.3910  0.1003
28701W        W45175  14.056   3.988   2.170  0.2445  0.0580  0.0597
28702W        W45176  14.904  14.126  10.823 -0.3406 -0.3497 -0.5303
28703W        W45177  17.163  14.746  12.136  0.2293  0.0668 -0.0594
28704W        W45178  14.909  17.561  10.903  0.0349  0.1118  0.2215
28705W        W45179   2.045   5.817   3.901  0.0087  0.1306 -0.3704
28706W        W45180  17.671  16.145  14.380 -0.2089 -0.1393 -0.3760
28707W        W45181   1.273   0.831  14.014  0.1070  0.2059 -0.1095
28708W        W45182   3.483  13.629  11.662  0.1723 -0.2234 -0.3646
28709W        W45183   1.249  17.933  13.807 -0.0520 -0.0504  0.1610
28710W        W45184   0.867  17.679   0.531  0.1109 -0.1139 -0.2549
28711W        W45185  17.630   3.636  10.840  0.1023 -0.1397 -0.1764
28712W        W45186  13.948   5.953   3.210 -0.2168  0.0101  0.1108
28713W        W45187   6.210  10.336  11.716 -0.2499  0.2376 -0.0039
28714W        W45188   6.006  14.916   3.426 -0.0269  0.0975 -0.1621
28715W        W45189  14.885   6.851   0.427 -0.1801 -0.0858  0.0301
28716W        W45190   2.415   7.291   2.218 -0.2426  0.1538 -0.2875
28717W        W45191  15.473  12.083   4.638  0.1114  0.1004  0.1369
28718W        W45192  11.911  10.028  11.509  0.0030  0.0049 -0.1391
28719W        W45193   7.833  19.171   1.674  0.4383  0.0131 -0.2180
28720W        W45194   8.352   4.245  10.066 -0.0436 -0.0578 -0.1189
28721W        W45195  18.454  17.697   0.363 -0.2059  0.0218 -0.0588
28722W        W45196  18.009   6.627   0.009  0.1648 -0.0273 -0.3136
28723W        W45197  14.524  11.168  11.862 -0.1861 -0.3188 -0.2690
28724W        W45198  18.049  11.001   1.832  0.0386 -0.0266 -0.0206
28725W        W45199   1.947   4.784   3.038 -0.1062  0.0768 -0.2696
28726W        W45200  16.467  16.096  13.519  0.1602 -0.2691 -0.1432
28727W        W45201   1.765  18.109  11.999 -0.0334 -0.2515  0.2827
28728W        W45202  13.727  10.053  13.090 -0.0252 -0.1873  0.4334
28729W        W45203  18.782   1.179   4.173 -0.1926  0.1766  0.2693
28730W        W45204  17.705  16.548   4.019 -0.2202 -0.1631  0.0020
28731W        W45205  13.952  13.557   3.128 -0.3423  0.0992  0.0520
28732W        W45206  16.451  14.397   4.172  0.1220  0.1489 -0.0700
28733W        W45207  12.765   1.392   5.039  0.1054 -0.0751  0.2963
28734W        W45208  11.466   1.188   1.481  0.2098 -0.2079  0.2572
28735W        W45209   2.080   9.731  10.828  0.3127 -0.0337 -0.0394
28736W        W45210   1.482   8.712   0.648 -0.0041  0.0850 -0.2942
28737W        W45211  17.826  15.940   3.119 -0.0807 -0.1024 -0.1511
28738W        W45212  19.125   8.274   0.330  0.1699 -0.0912  0.0773
28739W        W45213  19.072  16.687   0.764  0.1460  0.2023 -0.0500
28740W        W45214   3.962  19.591   9.909  0.0555 -0.1765 -0.0259
28741W        W45215  11.062   5.528  14.241 -0.2029  0.0750 -0.2140
28742W        W45216  13.805  13.984   0.577  0.0283 -0.3014 -0.1772
28743W        W45217   4.132   8.670  14.569  0.0834 -0.0022 -0.2602
28744W        W45218  14.096   0.781   2.317 -0.1317  0.2728 -0.1044
28745W        W45219   9.601  18.217  13.117  0.0855 -0.0074 -0.1122
28746W        W45220   2.646   9.079  10.227 -0.0322  0.2525  0.3942
28747W        W45221   3.400   3.060  11.652  0.2498  0.4383 -0.1552
28748W        W45222  11.716   4.437  12.535  0.1417  0.0103  0.0492
28749W        W45223  13.169   3.038  12.012  0.0290  0.0274  0.2089
28750W        W45224  12.404   1.235  11.663 -0.1857 -0.0913  0.0376
28751W        W45225  14.941   8.213   4.988 -0.1379 -0.1433 -0.1856
28752W        W45226   6.755   7.917  10.430  0.1673 -0.2525 -0.0027
28753W        W45227  12.217   0.786  14.174  0.3473  0.2292  0.0464
28754W        W45228   4.873   4.535  12.301 -0.1376  0.0163 -0.0650
28755W        W45229  12.734   1.706   2.596  0.3576 -0.2049 -0.1625
28756W        W45230   3.620  11.326   4.796  0.0268 -0.3861 -0.0439
28757W        W45231   5.893  18.509   4.105  0.5423  0.0007  0.4109
28758W        W45232  18.738   7.975  13.675 -0.1943  0.3508 -0.4911
28759W        W45233  14.563   6.060  12.745 -0.0873  0.2479 -0.0548
28760W        W45234   5.150   1.740   2.731  0.2849 -0.1993  0.1650
28761W        W45235   5.483   8.706  14.625  0.2394 -0.0708 -0.1410
28762W        W45236   8.883  17.190   0.377 -0.0158 -0.1634 -0.1800
28763W        W45237   7.659   2.038  11.248 -0.3827  0.0967 -0.0378
28764W        W45238   8.234   3.171   8.862 -0.0787 -0.0448 -0.0491
28765W        W45239   8.428  18.650  13.547 -0.0059  0.0100  0.0848
28766W        W45240  11.732  12.692   1.823  0.1687  0.0475  0.2149
28767W        W45241   0.664   6.590   1.562 -0.3973 -0.0134 -0.0419
28768W        W45242  15.294  12.195   1.764 -0.1073  0.2592 -0.1084
28769W        W45243  15.012  17.183   3.086 -0.1207  0.2777  0.1031
28770W        W45244  11.300   2.538  11.657  0.0774 -0.2200  0.1049
28771W        W45245   4.211   4.356  10.959 -0.0556  0.1728 -0.0863
28772W        W45246  11.706  13.844  12.221 -0.2173  0.0223  0.1669
28773W        W45247  14.265  12.720   1.785  0.1657  0.0855  0.0779
28774W        W45248  14.974  14.507  13.913  0.0043 -0.0417  0.0422
28775W        W45249   3.522   0.423  12.724  0.0663 -0.0058  0.1630
28776W        W45250   5.674  19.038  12.829 -0.1071 -0.1571 -0.0834
28777W        W45251  17.435   6.932  11.689 -0.2339  0.1227  0.1910
28778W        W45252  10.239   5.101  13.661  0.1111  0.2840  0.1985
28779W        W45253  19.557  15.644   3.161  0.0857 -0.0538 -0.2475
28780W        W45254   4.451   2.429  12.677  0.0883  0.0996  0.2153
28781W        W45255  17.992  14.422   0.565 -0.0995  0.1120  0.1196
28782W        W45256  14.129   2.731   2.638  0.0289  0.1665  0.0844
28783W        W45257   2.384  11.263   3.905 -0.1942 -0.2012  0.4833
28784W        W45258   1.571  13.135   2.868  0.1275 -0.2240 -0.1278
28785W        W45259   9.993   1.700   2.700  0.1247 -0.2686 -0.2880
28786W        W45260   8.693  18.440  13.890  0.1368  0.3519 -0.1604
28787W        W45261  10.554  14.658  11.578  0.1882  0.1257 -0.1573
28788W        W45262  13.176   8.575   1.008 -0.1554  0.0465  0.1026
28789W        W45263   0.133  16.208   3.107 -0.0265  0.1640 -0.0301
28790W        W45264   7.450  11.209  11.746  0.3695  0.0814  0.3715
28791W        W45265  19.281   0.221   3.907 -0.0488  0.0618 -0.1642
28792W        W45266  15.903   2.547  11.105  0.1488 -0.0131 -0.0823
28793W        W45267  13.231   4.945  14.339  0.3670  0.3104 -0.1995
28794W        W45268   2.905  18.355  12.582  0.0711 -0.0138  0.0744
28795W        W45269   0.769   6.857   1.159 -0.0419  0.0808 -0.0938
28796W        W45270  15.322   6.172   3.846 -0.0841 -0.0845  0.0818
28797W        W45271   4.114   1.795   2.218  0.0949 -0.3700  0.1300
28798W        W45272  14.326   1.645   9.758 -0.2629 -0.2609 -0.0804
28799W        W45273  16.433  14.991   0.786  0.1994  0.1475  0.1318
28800W        W45274   2.923  19.473  10.279  0.0335  0.1189  0.0185
28801W        W45275  12.803  12.651  12.386  0.0713 -0.1301  0.1659
28802W        W45276  11.499   5.285  11.725  0.3139  0.0314  0.3108
28803W        W45277   0.142  11.984  12.007 -0.1617 -0.1004 -0.1042
28804W        W45278   6.801   6.775   2.835  0.0445  0.0408  0.1430
28805W        W45279   3.802  12.532   1.006 -0.0619  0.2638  0.0540
28806W        W45280   8.239   9.265  10.867 -0.2316  0.1247 -0.0296
28807W        W45281  14.091   4.030   9.549  0.1724  0.2579 -0.2497
28808W        W45282  19.011   9.819   2.067  0.2218  0.2045  0.2495
28809W        W45283  13.423   9.580   4.444 -0.0913 -0.0610 -0.2457
28810W        W45284  14.438   1.259  14.085  0.0549  0.0924  0.1214
28811W        W45285  13.556  11.775   2.895 -0.3148 -0.2206 -0.0920
28812W        W45286   4.056   6.278   5.263 -0.4394 -0.1464 -0.0764
28813W        W45287  14.369   9.842  13.691  0.1095  0.2863  0.1805
28814W        W45288   6.874  14.004   3.400 -0.1826  0.0755  0.2620
28815W        W45289  18.637  19.021  10.300  0.1039 -0.1404 -0.1073
28816W        W45290   3.992   0.252   0.486 -0.0456  0.1425 -0.0799
28817W        W45291  14.593   0.380   2.864 -0.1748 -0.2906  0.1124
28818W        W45292   7.996   3.432  14.583 -0.0511 -0.0514 -0.0295
28819W        W45293  17.008  19.185   2.710 -0.0881  0.0433  0.2118
28820W        W45294  15.491  18.834   2.821 -0.0370 -0.1672  0.2384
28821W        W45295   6.877  10.218  10.036 -0.0991  0.3140  0.1773
28822W        W45296   7.144  13.884   3.842  0.0566  0.1661 -0.0035
28823W        W45297  12.733   3.064   0.421  0.1743 -0.1348  0.3116
28824W        W45298  13.410   8.748  12.604  0.2904  0.0235  0.0005
28825W        W45299   5.534   8.230   1.471  0.1312  0.0296 -0.1290
28826W        W45300   2.875   1.655   2.643 -0.0327 -0.0744 -0.1441
28827W        W45301  16.449  14.902   3.250 -0.0500 -0.0126  0.1597
28828W        W45302   2.265  13.227   2.255 -0.0845 -0.1514  0.0379
28829W        W45303   0.576  15.080  10.550 -0.1671  0.1190 -0.0029
28830W        W45304   7.583   7.377   2.811  0.0182  0.1244  0.1686
28831W        W45305   7.293  16.664   0.875  0.2335  0.2690 -0.0547
28832W        W45306   9.076  15.851  14.282  0.4043 -0.0248  0.1420
28833W        W45307   3.823  17.790   4.031  0.0569 -0.2509  0.0440
28834W        W45308  12.858   9.391   2.756 -0.0505 -0.1919 -0.0840
28835W        W45309   4.104   3.373  12.842  0.1657  0.0550 -0.0510
28836W        W45310  12.616   9.842  12.131  0.1048 -0.0887 -0.0861
28837W        W45311   0.779   7.425   1.080 -0.1507  0.3055 -0.2513
28838W        W45312   5.813  12.014   4.300  0.1115  0.1397  0.2000
28839W        W45313   7.797  15.607  14.656 -0.0339 -0.0831  0.0563
28840W        W45314   7.103   5.557  12.388 -0.0558 -0.4601 -0.2062
28841W        W45315  18.421  13.451  13.614 -0.0899 -0.0604  0.0617
28842W        W45316   8.930   6.856   4.296 -0.1310 -0.0491 -0.1941
28843W        W45317   0.559   6.262  11.116  0.1335 -0.3463 -0.1425
28844W        W45318   8.073   7.474  14.636 -0.1520 -0.3059 -0.0311
28845W        W45319   1.060   8.197   2.778 -0.1330  0.2509 -0.0086
28846W        W45320   9.396   7.501   4.032 -0.0292  0.5011  0.1253
28847W        W45321   8.577   3.103  11.387  0.0946  0.2295 -0.0763
28848W        W45322   5.834  13.709   1.491  0.0539  0.2367  0.2555
28849W        W45323  13.356   5.401   2.027  0.0288 -0.2620 -0.0738
28850W        W45324   8.178   8.656  11.337 -0.0376 -0.0680  0.3090
28851W        W45325  11.894  16.470   0.486 -0.1669 -0.0914  0.1484
28852W        W45326   7.863  16.773   5.300 -0.0073  0.2933  0.2096
28853W        W45327  17.546  10.261  13.475  0.0846  0.0840 -0.0575
28854W        W45328  12.089   8.986  11.410  0.2730 -0.0370 -0.2296
28855W        W45329  16.299   0.833   4.628 -0.0284  0.0375  0.0363
28856W        W45330   6.487   7.373   3.161  0.0741  0.3375  0.2499
28857W        W45331   9.524  19.588  14.524 -0.3155  0.0370  0.0126
28858W        W45332  14.969   3.864  10.406  0.0132  0.2988 -0.0760
28859W        W45333  12.032   7.398   0.609  0.5256  0.0646 -0.3376
28860W        W45334   3.228  10.001   1.921 -0.2432 -0.1924 -0.0250
28861W        W45335  10.384   2.614  11.078 -0.1523  0.0868 -0.1206
28862W        W45336  19.571   5.900   2.496  0.2337 -0.1948 -0.0550
28863W        W45337  17.794   7.186   3.257  0.0025 -0.0308 -0.0151
28864W        W45338   2.761  15.991  12.437 -0.0978 -0.2563  0.1134
28865W        W45339  15.235  17.630   4.696 -0.1935 -0.3625  0.1490
28866W        W45340  17.600  17.293   1.897  0.2354  0.0157  0.1245
28867W        W45341   8.079   0.048  10.445  0.0190  0.0088  0.1975
28868W        W45342   6.110   7.801   1.293  0.0364 -0.1032 -0.0809
28869W        W45343  13.713   2.263  12.609 -0.1312 -0.0560 -0.2281
28870W        W45344  12.726   3.583  13.319 -0.1871 -0.0369 -0.0972
28871W        W45345   4.034  16.118  13.586  0.1696  0.0291 -0.1830
28872W        W45346   4.251   6.076   3.520 -0.0228 -0.0353  0.4241
28873W        W45347  16.230  12.158  11.804 -0.0207 -0.3207 -0.5031
28874W        W45348   7.927   4.288  14.581  0.0091  0.3616  0.2031
28875W        W45349   5.324   9.631  13.119  0.0078  0.2595  0.0836
28876W        W45350  16.348   1.384   2.375  0.0539 -0.1161  0.3692
28877W        W45351   5.319  16.339   2.651 -0.0134  0.3294  0.0071
28878W        W45352   9.812   7.783   4.478  0.1753 -0.0398 -0.0228
28879W        W45353  19.326  13.243   1.277  0.0406 -0.0068  0.2077
28880W        W45354   3.033   4.725   3.732  0.1170 -0.3221  0.0975
28881W        W45355   7.086  11.527   1.536 -0.0202 -0.2685  0.1071
28882W        W45356   1.199  18.015   0.180 -0.0899 -0.3466  0.3374
28883W        W45357  19.088  16.102  12.244 -0.0990 -0.3743  0.1839
28884W        W45358  17.493  10.483   3.090 -0.2879  0.0314  0.1096
28885W        W45359   7.215   5.071   2.542 -0.0834 -0.1608 -0.2948
28886W        W45360   2.736   6.048  13.444 -0.0167  0.0511  0.4623
28887W        W45361   5.790  14.268   0.060  0.1048  0.0546 -0.1077
28888W        W45362   2.221   0.857  13.883  0.3014  0.0696 -0.1406
28889W        W45363  11.309   0.593  14.066 -0.0876 -0.0286  0.1717
28890W        W45364  18.747  13.096   3.976  0.0105  0.1879 -0.0353
28891W        W45365  17.044   4.130  12.306  0.1382 -0.1015  0.1559
28892W        W45366   5.939  12.085   0.641  0.2439 -0.1404  0.2969
28893W        W45367  14.648   0.819   3.052 -0.0392  0.3212 -0.0226
28894W        W45368  17.508  17.030   0.587  0.0857  0.1893 -0.0365
28895W        W45369   8.847  14.752   0.108 -0.1549 -0.0467  0.1684
28896W        W45370   1.340   9.198   2.971  0.1380 -0.3088  0.1808
28897W        W45371   3.200   3.004   2.254  0.0637  0.1164  0.0204
28898W        W45372   7.520  13.157  13.115  0.2010 -0.1502 -0.1965
28899W        W45373  15.614  12.826  13.127  0.0191  0.0896  0.1580
28900W        W45374  18.536   1.847   2.281 -0.1844 -0.0460 -0.2852
28901W        W45375  18.478   8.796  13.970 -0.1689  0.0154 -0.0537
28902W        W45376   7.517  10.754  13.057 -0.3045  0.3134 -0.4645
28903W        W45377   3.871   1.658  13.118  0.0578  0.2641  0.1426
28904W        W45378   3.391   3.596   4.289  0.0404  0.1481  0.1059
28905W        W45379  16.480  19.477   0.823  0.0221 -0.1080  0.1046
28906W        W45380   7.135  15.518   2.862  0.3193 -0.0031  0.0302
28907W        W45381   8.842   6.182   2.615 -0.1948 -0.0908 -0.2497
28908W        W45382  14.165   2.264   3.456 -0.0329  0.0258 -0.0792
28909W        W45383   6.998  15.217  10.707 -0.0443  0.2722  0.2223
28910W        W45384  18.177   2.974   1.195  0.0152 -0.3535  0.1462
28911W        W45385  13.856   3.818  10.802 -0.0593 -0.0889  0.0805
28912W        W45386  15.987   9.713   2.094 -0.0796 -0.3694 -0.1337
28913W        W45387   9.933  10.322   4.230  0.0300 -0.1272  0.1530
28914W        W45388   5.828   2.138  13.761 -0.2521 -0.3713  0.0076
28915W        W45389   3.228  13.199  12.906  0.0446 -0.3964  0.1421
28916W        W45390   8.519  10.314  10.470  0.0612  0.2113  0.1259
28917W        W45391  18.070   7.056  12.744 -0.0354 -0.0148 -0.0365
28918W        W45392   1.864  17.867   9.602 -0.0977 -0.2153 -0.0942
28919W        W45393   1.067  17.159   3.635 -0.0332  0.0240  0.1732
28920W        W45394   4.662  10.235  13.057 -0.0141 -0.0045 -0.3128
28921W        W45395  17.837  10.387  10.723  0.1389  0.2226  0.0046
28922W        W45396   4.335   8.797  11.430  0.0102  0.0289  0.1132
28923W        W45397  16.043  17.084  11.833 -0.0196 -0.2588  0.1608
28924W        W45398  11.267  17.593  14.468 -0.0616 -0.3265 -0.1945
28925W        W45399  11.057   4.168  13.685 -0.3503 -0.1824  0.1344
28926W        W45400  17.387   3.526  13.928 -0.3135  0.1710 -0.0325
28927W        W45401   8.893  16.932   5.200  0.3078 -0.1681 -0.1494
28928W        W45402   9.866   9.237  10.412  0.1959 -0.0501  0.1456
28929W        W45403   5.540   4.988   3.437  0.1921 -0.5147  0.2352
28930W        W45404  13.765  17.381   3.320 -0.1243  0.0046  0.3035
28931W        W45405  12.693   5.967  11.845 -0.1090  0.1717  0.0101
28932W        W45406  17.127  13.812  13.541 -0.3730 -0.1092  0.2923
28933W        W45407  12.697  10.666   3.238  0.0334  0.2470  0.1785
28934W        W45408   2.557   1.626   4.029  0.5723 -0.0767 -0.1279
28935W        W45409   8.783  16.879  11.225 -0.1345  0.0624 -0.3620
28936W        W45410   7.970   9.614  14.311  0.0607  0.3076 -0.3459
28937W        W45411  14.015  15.554  13.515  0.0249  0.0195 -0.0246
28938W        W45412  12.630   3.672   0.697 -0.0050  0.0864 -0.0515
28939W        W45413  14.718  11.811   4.442  0.0876 -0.0996 -0.0313
28940W        W45414  12.584  11.588   4.145 -0.1587 -0.1024 -0.1076
28941W        W45415   3.707   8.864  12.557 -0.4664  0.2324 -0.1411
28942W        W45416  10.641  17.456  12.077  0.0019 -0.1986  0.1760
28943W        W45417   2.280   8.572   3.421 -0.0025 -0.2548 -0.0549
28944W        W45418   3.638  14.982  14.304  0.0570  0.3208 -0.0696
28945W        W45419  13.637   2.993  11.824 -0.1560  0.1675 -0.1202
28946W        W45420  11.022   0.577   1.749  0.1937  0.2296 -0.1752
28947W        W45421  11.107   2.107  12.786 -0.1841 -0.1330  0.2926
28948W        W45422  13.968   7.178   5.503 -0.4151  0.0120  0.1100
28949W        W45423  17.404   3.206  11.765  0.1735  0.1236 -0.0967
28950W        W45424  16.394   0.526   2.332  0.2570  0.1787  0.0070
28951W        W45425   1.254   7.595  14.629  0.2596 -0.3272 -0.0372
28952W        W45426  18.396   8.318   4.453  0.1972  0.0466  0.1262
28953W        W45427  17.893   4.032   5.019  0.2538 -0.2372 -0.2105
28954W        W45428  17.628  10.034   2.639 -0.0256 -0.3670  0.1847
28955W        W45429  11.592  11.551   0.829 -0.0715  0.0152  0.2721
28956W        W45430   5.849  12.163   2.638 -0.0318 -0.0383  0.2446
28957W        W45431  16.835   7.717  10.482  0.1951  0.0080 -0.0147
28958W        W45432  16.055  13.232   4.722  0.1546 -0.0022  0.2204
28959W        W45433   0.159  12.560   3.033 -0.0779 -0.0569  0.1052
28960W        W45434   6.260   3.232   4.719  0.2550  0.1529  0.1810
28961W        W45435  18.533   3.957  13.619 -0.2254  0.1481 -0.0497
28962W        W45436  17.131   4.815   4.826  0.0875 -0.0452 -0.0513
28963W        W45437  10.791   9.828   0.423  0.0220  0.3774  0.1469
28964W        W45438  15.429   3.343  11.166 -0.0365  0.1088  0.1377
28965W        W45439   1.034   6.709   4.071 -0.1571 -0.3432 -0.1264
28966W        W45440   3.094   4.416   9.642 -0.3617  0.1503 -0.0427
28967W        W45441  13.904  18.053  10.811  0.1325  0.1504 -0.0344
28968W        W45442  13.525  13.771   0.954  0.3285 -0.1183  0.2104
28969W        W45443  14.377   4.742   5.273  0.1082  0.1707 -0.1814
28970W        W45444   1.897  17.840  14.467 -0.2240 -0.0337 -0.0439
28971W        W45445   9.659   5.435   9.881 -0.0194 -0.0958  0.2136
28972W        W45446  14.206  10.446  12.180 -0.0221 -0.3142  0.2238
28973W        W45447   5.808   7.772   9.861 -0.2241  0.4055  0.3022
28974W        W45448  13.240  18.459   5.337 -0.3139 -0.0013 -0.4316
28975W        W45449   8.778   2.388  10.990  0.1684  0.3259  0.2687
28976W        W45450   4.814  13.905   3.769  0.1348 -0.1021  0.1720
28977W        W45451  18.977   9.423  10.506  0.0807  0.0370  0.0177
28978W        W45452   4.795   7.930  10.402  0.3480 -0.3242 -0.1596
28979W        W45453   4.434  10.037   4.678  0.2031  0.1055 -0.1328
28980W        W45454  11.537   0.421   3.574  0.1669  0.1886  0.0233
28981W        W45455   7.766   0.926  11.646 -0.3971 -0.2211  0.3415
28982W        W45456  14.139   6.788   3.587  0.1958  0.0691  0.2696
28983W        W45457  12.619  18.910   2.720  0.3016  0.2801  0.0242
28984W        W45458  17.658   1.774   0.929  0.0687 -0.2977  0.0046
28985W        W45459   6.063  15.579  13.756  0.1027  0.1130  0.0881
28986W        W45460   6.119   0.485  14.309 -0.5041 -0.0376  0.1465
28987W        W45461  18.286  19.329  10.472 -0.1335  0.0050 -0.0352
28988W        W45462  13.031  16.269  14.379 -0.0310 -0.0488 -0.0454
28989W        W45463   2.804   8.473   2.249 -0.1449  0.0714  0.1385
28990W        W45464   8.580   9.683  13.299  0.4368  0.0996  0.2063
28991W        W45465   7.407  14.409  10.899  0.0108  0.1669  0.2275
28992W        W45466  15.484   9.976   3.524 -0.0140 -0.0038 -0.2687
28993W        W45467   5.598  11.717   3.544 -0.0668 -0.0196  0.0893
28994W        W45468   9.716  10.594  12.129 -0.2575  0.1209 -0.2041
28995W        W45469   8.405   3.968  14.617 -0.1221 -0.0637 -0.0749
28996W        W45470  14.247   5.361  14.571  0.1639  0.1262  0.0882
28997W        W45471   1.008  13.960  14.072  0.2639  0.1833  0.2775
28998W        W45472   4.813  10.874   0.651  0.0175 -0.0710  0.2405
28999W        W45473   4.485   3.136  13.760 -0.1412  0.0397 -0.2357
29000W        W45474  11.493  16.547  14.288 -0.0709 -0.0056 -0.4832
29001W        W45475   9.183   3.717  12.671  0.1067 -0.1541  0.0470
29002W        W45476   4.564  16.104  13.521 -0.1079  0.1122  0.2286
29003W        W45477   1.087  10.449   1.696 -0.1257 -0.2534 -0.1620
29004W        W45478   8.710   0.466  11.750 -0.4737 -0.3810  0.1553
29005W        W45479   9.189  13.352   0.855  0.0811 -0.1029  0.0546
29006W        W45480  11.532   3.620   1.605  0.1060  0.0211 -0.1812
29007W        W45481  11.809   4.962  12.213 -0.3754  0.1052  0.3502
29008W        W45482   4.661  18.053   2.493  0.1991  0.1534  0.0546
29009W        W45483  11.842  11.508   2.478 -0.0463 -0.2129  0.1084
29010W        W45484  10.125  19.063   3.306 -0.2135 -0.4310  0.0149
29011W        W45485   2.835   6.047   1.035 -0.0322  0.1086  0.1505
29012W        W45486  12.948  18.693  13.958  0.0413 -0.1933 -0.2028
29013W        W45487  13.235  16.686  11.128 -0.1978  0.0512 -0.1384
29014W        W45488   4.192   6.582   2.558  0.2214  0.0740 -0.0238
29015W        W45489   5.143   8.959  11.073  0.2058 -0.1947 -0.2943
29016W        W45490   7.902   6.150  11.391  0.0692  0.0404 -0.1314
29017W        W45491   2.206  18.303  12.125  0.0585  0.1894  0.4929
29018W        W45492  14.047   5.497   1.405 -0.1252  0.0942  0.2985
29019W        W45493  15.924   9.118   1.305  0.1331 -0.0791  0.4006
29020W        W45494   3.171  19.348   2.813 -0.1647  0.3420  0.1381
29021W        W45495   7.895  16.395   2.606 -0.2492 -0.0602 -0.1147
29022W        W45496  17.130  10.567   0.963  0.1043  0.1318  0.1692
29023W        W45497   7.733  14.076  13.851 -0.1916  0.0003  0.0039
29024W        W45498  11.352  16.735  13.262 -0.3107  0.2268 -0.1462
29025W        W45499   8.682  14.838   0.928 -0.0737 -0.0156  0.1967
29026W        W45500   7.660   7.097  14.202 -0.0147 -0.0098 -0.0173
29027W        W45501  12.807  16.370  10.794 -0.0787 -0.1831 -0.1082
29028W        W45502  10.557   6.104  11.540 -0.0527 -0.0130 -0.0611
29029W        W45503   9.819  17.108  13.420  0.1796 -0.1590  0.0425
29030W        W45504  12.383  14.551   2.689 -0.1127  0.1024  0.0837
29031W        W45505   3.315   6.199   3.270 -0.0114 -0.3027  0.0576
29032W        W45506   4.480   1.015  10.560 -0.0111 -0.0060 -0.0522
29033W        W45507  17.297  16.524  14.644 -0.1292 -0.2793  0.2817
29034W        W45508  15.096   7.714   2.440 -0.2289 -0.1825  0.0204
29035W        W45509  18.960   4.309   4.542  0.0976  0.1783  0.2272
29036W        W45510  18.155  13.336   4.418 -0.0092 -0.2043  0.3151
29037W        W45511   3.882   9.379  11.860  0.0713  0.1979 -0.1651
29038W        W45512   3.323   5.447  12.087 -0.1491 -0.1904  0.2268
29039W        W45513  12.417   5.018   2.102  0.0605 -0.3065 -0.0080
29040W        W45514   1.110   6.193   4.063 -0.0709  0.0910 -0.0892
29041W        W45515  10.317  14.929   3.908 -0.0290  0.0693  0.0131
29042W        W45516   6.126   1.140  12.859  0.2340  0.3822  0.0023
29043W        W45517  11.155   3.271  11.107  0.1777  0.0938  0.3672
29044W        W45518  12.924  19.225  12.086  0.1130 -0.2689 -0.3013
29045W        W45519  18.474   3.840   0.634 -0.0614 -0.2194  0.0316
29046W        W45520   0.460   7.617  10.877 -0.0852  0.1065  0.1760
29047W        W45521   6.532  11.828  14.015  0.0803  0.1673 -0.1453
29048W        W45522   3.528   1.968   9.344 -0.2482 -0.2041 -0.1923
29049W        W45523   9.800   4.213   0.603 -0.3862  0.1740 -0.3218
29050W        W45524  16.274  12.045  10.543  0.3308  0.0125 -0.1960
29051W        W45525  10.525   9.147   4.018 -0.3214 -0.1456  0.1573
29052W        W45526  14.784  10.197  12.024 -0.2199  0.0124  0.2826
29053W        W45527  19.382  17.513   0.669 -0.2941 -0.0750 -0.1149
29054W        W45528   0.233  12.634  14.644  0.1974 -0.0071  0.1190
29055W        W45529   9.747   0.244  12.826 -0.2654 -0.0977 -0.2389
29056W        W45530   9.209   0.626   4.508 -0.0351  0.0452  0.0268
29057W        W45531  15.035   5.282   0.242 -0.2930 -0.0710  0.2011
29058W        W45532   1.565   7.767   0.843  0.0589 -0.2169  0.2106
29059W        W45533  13.410  12.824   4.450 -0.2408 -0.5782  0.4146
29060W        W45534   2.701   8.148  13.139  0.1881  0.0122  0.0206
29061W        W45535  16.315   5.845  10.951 -0.0854 -0.0516 -0.1857
29062W        W45536   1.331   9.457   2.480 -0.1947  0.1371  0.0293
29063W        W45537   3.534  11.029   2.841 -0.0459 -0.1714  0.0549
29064W        W45538   5.677  15.067   2.140  0.4429 -0.0750  0.0133
29065W        W45539   4.840  11.348   0.307  0.2753 -0.1221  0.1380
29066W        W45540  15.008  13.910   2.913 -0.2343  0.0311 -0.2879
29067W        W45541   5.772  17.404  12.475  0.0116  0.0478 -0.0318
29068W        W45542   6.253  10.101  12.700 -0.1602  0.3064  0.0175
29069W        W45543   5.922  17.228  12.929 -0.2058 -0.2099 -0.2956
29070W        W45544   9.243  11.002   9.152  0.2125  0.0951  0.2788
29071W        W45545  15.914   9.074  11.215 -0.0249 -0.1535 -0.0155
29072W        W45546  19.212   9.152   0.608 -0.2301 -0.3115 -0.3348
29073W        W45547  16.322  16.239  13.033  0.1644 -0.3623  0.1926
29074W        W45548   8.974   0.538  11.262 -0.0535 -0.1855  0.4210
29075W        W45549  15.997   0.464  11.307 -0.1489  0.1947 -0.1313
29076W        W45550  12.821   9.510   3.393  0.3451 -0.2116  0.1734
29077W        W45551   9.284   7.772  11.213  0.1618 -0.2417  0.2025
29078W        W45552   9.043  13.673  12.977  0.1330 -0.0207  0.0185
29079W        W45553  11.557  11.805   9.318  0.2570  0.1450  0.1461
29080W        W45554  14.330  12.338   0.592 -0.3510 -0.0853  0.1186
29081W        W45555  16.910  17.980  12.543 -0.2545  0.0867  0.0002
29082W        W45556   4.510  17.400  10.199  0.0185  0.1357 -0.2769
29083W        W45557  11.947   6.231  13.976  0.0603 -0.3274  0.0286
29084W        W45558  10.214   2.328   2.010 -0.3084  0.2536 -0.0493
29085W        W45559   5.204  10.678  11.566 -0.0113  0.0632  0.1936
29086W        W45560  13.919  10.055   5.154  0.0833  0.0562 -0.0912
29087W        W45561   9.607  15.545  12.147 -0.1656 -0.0639 -0.1196
29088W        W45562  16.325   7.868  13.951 -0.2330 -0.2944 -0.3399
29089W        W45563  13.920  14.865   4.577  0.1741  0.0831 -0.3491
29090W        W45564   6.879   8.539   2.536  0.0298 -0.3116 -0.2492
29091W        W45565   2.500   7.443   4.490 -0.1261 -0.1189  0.0569
29092W        W45566   4.042  10.562  12.595  0.2288  0.1947 -0.3425
29093W        W45567  13.668   5.425  13.520 -0.1173  0.4438  0.1500
29094W        W45568  15.336   4.431   1.724 -0.1698  0.0023  0.0497
29095W        W45569  14.551   1.061  10.293  0.1834 -0.1537  0.1715
29096W        W45570  14.497   2.132  11.598  0.1394  0.1095 -0.0352
29097W        W45571   7.666  13.305  13.570  0.1872  0.2816 -0.1676
29098W        W45572  10.123  11.167  12.557 -0.2073 -0.1691 -0.1328
29099W        W45573  15.224   7.249   2.638  0.0935  0.4163 -0.0349
29100W        W45574   2.691   4.789  10.447 -0.0709  0.0137  0.0476
29101W        W45575  15.533   9.947   0.019 -0.0729  0.0149 -0.1715
29102W        W45576   2.109  16.612   2.283 -0.1022 -0.4198 -0.1002
29103W        W45577   8.593  19.569   1.752 -0.2673 -0.1422 -0.1197
29104W        W45578   7.156   5.962   0.037  0.1069  0.0100  0.0785
29105W        W45579  19.592  13.067   2.257  0.0953 -0.0117  0.0567
29106W        W45580  19.387   3.091  10.944 -0.0678  0.2047  0.1450
29107W        W45581   9.725   7.205   1.266 -0.0289 -0.2133  0.2069
29108W        W45582  10.796  15.772   1.933 -0.1876 -0.0483 -0.1383
29109W        W45583  11.647   0.125   5.397 -0.1193 -0.0653  0.5670
29110W        W45584  15.539  13.359  14.255  0.3281  0.2112  0.3215
29111W        W45585   9.041   1.884  10.365 -0.0778  0.0662  0.2546
29112W        W45586  13.060  14.695  10.973 -0.0689  0.1052  0.3137
29113W        W45587   3.397  10.384  11.109 -0.3444 -0.0948  0.1213
29114W        W45588   6.830   3.683   1.291 -0.3813  0.0392  0.0328
29115W        W45589   8.200   0.624  11.740 -0.2058  0.0505  0.4784
29116W        W45590  16.788  18.354   4.802  0.2933 -0.0926 -0.1203
29117W        W45591  16.872   0.466   0.316  0.1804 -0.0563 -0.1824
29118W        W45592  19.526   1.767   3.327  0.2577 -0.5030 -0.0925
29119W        W45593  13.314  17.581   0.210 -0.2361  0.1232 -0.2004
29120W        W45594  15.118   1.528  10.062  0.3178 -0.1855  0.1170
29121W        W45595  13.746   9.557  12.228 -0.1797 -0.0583  0.3726
29122W        W45596   9.897   6.755   2.134  0.1878 -0.2923 -0.1216
29123W        W45597   4.781  17.311   3.177 -0.2219  0.0757 -0.0297
29124W        W45598   0.550   0.259   3.820  0.1187  0.2451  0.1633
29125W        W45599   8.722   2.956  12.240  0.0825  0.3075 -0.2800
29126W        W45600  19.126  11.012   0.240 -0.1578 -0.2263 -0.0369
29127W        W45601   1.832   0.136   4.382 -0.0571 -0.0897  0.3175
29128W        W45602  19.286   1.522   1.354 -0.0160 -0.3806  0.0289
29129W        W45603  17.467  17.132   3.161 -0.6180 -0.3110 -0.0267
29130W        W45604  12.135   4.692   4.182 -0.1323  0.1732  0.3328
29131W        W45605  15.600   7.658  13.476  0.1935  0.0104 -0.2399
29132W        W45606  18.020  17.274   3.481  0.1188 -0.3452  0.3280
29133W        W45607  14.065  18.468  13.294 -0.0981  0.1699 -0.0385
29134W        W45608  11.913   3.414   4.512 -0.0280  0.1098 -0.0213
29135W        W45609  11.056   1.683   0.294 -0.0625 -0.1446  0.1725
29136W        W45610   4.160  12.285  10.502  0.2058  0.2897 -0.0727
29137W        W45611  18.353  10.862   0.610  0.4535  0.1311 -0.0789
29138W        W45612   2.692   3.618   4.736 -0.0746 -0.0175 -0.3964
29139W        W45613   0.442   2.911  11.766  0.0499 -0.1365  0.1199
29140W        W45614   3.056   3.740  11.707  0.0185 -0.2600  0.0786
29141W        W45615   0.346  18.403   1.018 -0.6206  0.1900  0.1678
29142W        W45616  11.203  10.875   4.818  0.0761  0.0535  0.0657
29143W        W45617  18.736  18.821  14.093 -0.1757  0.1749  0.2950
29144W        W45618   2.253  13.652   3.878  0.0312  0.2237 -0.0894
29145W        W45619   0.535  17.475  12.285 -0.0842 -0.2378  0.0190
29146W        W45620   5.199   2.922   0.458  0.2506 -0.0985  0.0885
29147W        W45621  17.551  10.171  12.952  0.0076 -0.0344  0.0927
29148W        W45622   1.725  16.901   3.314  0.0777  0.0791  0.2181
29149W        W45623  14.232  12.843  11.898  0.1320 -0.4327 -0.2151
29150W        W45624   4.935  13.530   1.577  0.0645 -0.0997  0.0377
29151W        W45625  14.685  18.497   9.150 -0.2105 -0.0878  0.4412
29152W        W45626   9.271   0.703   0.375 -0.0145  0.0617  0.0624
29153W        W45627  13.014   7.161  12.006 -0.1375  0.0245 -0.1628
29154W        W45628  11.913   7.933   0.303 -0.1650  0.0911  0.0201
29155W        W45629  18.362  14.090   0.381 -0.1217  0.0540 -0.2206
29156W        W45630   1.628  14.522  13.134  0.2934  0.1286  0.0395
29157W        W45631  17.360  17.940  11.078  0.1956  0.1040  0.1060
29158W        W45632   5.665   6.905  12.557  0.3083  0.1338  0.2309
29159W        W45633   5.924  16.860   2.073 -0.0759 -0.0144 -0.0949
29160W        W45634   3.694  19.083  14.250 -0.2464 -0.0715 -0.4022
29161W        W45635  11.568   8.226  11.086 -0.0048  0.0301 -0.1701
29162W        W45636  17.950   2.218   3.651  0.2808  0.1119 -0.3097
29163W        W45637  11.845   4.535   0.416 -0.0602  0.0080 -0.1689
29164W        W45638  16.024   3.886   2.809 -0.0882 -0.0579 -0.1056
29165W        W45639   1.523  17.979  10.654 -0.4859 -0.1789 -0.2579
29166W        W45640  17.845  15.101  11.271  0.1972  0.1195 -0.0391
29167W        W45641   6.739  14.623  11.699 -0.3254  0.1097  0.0341
29168W        W45642   8.622  17.977   0.503 -0.1016 -0.3210  0.1915
29169W        W45643   1.827  11.324  10.839 -0.3957 -0.0889 -0.3122
29170W        W45644  13.167   4.523   2.386  0.2176  0.0237 -0.0931
29171W        W45645  17.295  14.293  12.785 -0.2205 -0.0087  0.1919
29172W        W45646   2.686   0.285  10.517  0.3351 -0.1272 -0.0066
29173W        W45647  10.616   1.813  14.242  0.2206 -0.0629  0.1409
29174W        W45648  11.888   2.549   5.159  0.1931 -0.5441 -0.0036
29175W        W45649   9.039  12.530   2.614 -0.2441 -0.0444 -0.1205
29176W        W45650   5.346  18.674  12.630 -0.2340  0.2625  0.0533
29177W        W45651  13.520   5.485   1.272 -0.2168 -0.1518  0.1469
29178W        W45652  18.909   8.465   4.435  0.1077  0.1565 -0.0303
29179W        W45653   9.997  15.942   0.764  0.1862  0.1474  0.0263
29180W        W45654  16.908   5.617  14.237  0.1841  0.1865  0.0057
29181W        W45655  18.800   1.425  13.034  0.0450  0.0848  0.0853
29182W        W45656   6.954   9.338  13.822  0.2241  0.0254  0.3148
29183W        W45657   9.921  12.626   0.200  0.0739  0.0246 -0.0318
29184W        W45658  18.247   4.228  12.480  0.2046  0.1497 -0.2782
29185W        W45659  18.258  17.735   3.011 -0.0427 -0.1451  0.0989
29186W        W45660  11.581   7.174  12.008 -0.0779 -0.1803 -0.1444
29187W        W45661   6.204  15.251  13.357  0.3050  0.0729 -0.0172
29188W        W45662  17.177  11.733   4.649 -0.0864 -0.0900 -0.1777
29189W        W45663  19.349   4.306   1.159 -0.0538  0.0105 -0.1465
29190W        W45664   4.315  12.038   2.355 -0.0290  0.0664  0.1943
29191W        W45665  18.766   5.133   4.888 -0.4576  0.3184 -0.0472
29192W        W45666   5.781  10.168   3.172 -0.1177  0.3931 -0.3763
29193W        W45667   0.945  19.483   1.190  0.0350 -0.0247 -0.3568
29194W        W45668   7.226   6.397  12.217  0.1835  0.1905  0.0378
29195W        W45669  18.238   5.978  13.965  0.0850 -0.3037 -0.1426
29196W        W45670   8.425  17.596   1.257  0.2058 -0.3009 -0.2272
29197W        W45671   5.986   3.274  14.533 -0.1585 -0.1322  0.0427
29198W        W45672   8.537  19.359   3.725  0.1854 -0.2460 -0.3353
29199W        W45673   4.409  18.187  13.557  0.1454 -0.2113 -0.0702
29200W        W45674   9.003  14.023  13.304  0.1056  0.0154 -0.3482
29201W        W45675  17.232  16.893   4.937  0.2125 -0.1302 -0.1958
29202W        W45676  13.068  14.342   3.763  0.3525 -0.2579  0.1119
29203W        W45677   4.349  15.657   1.236 -0.2203  0.1138  0.1035
29204W        W45678   1.544  15.273  10.406 -0.3864 -0.0129 -0.0226
29205W        W45679  18.062   9.344   4.013  0.5477 -0.2324  0.0599
29206W        W45680  14.899  12.876  12.538 -0.0257  0.2712  0.1793
29207W        W45681  15.567   3.733  12.683 -0.0430  0.0188  0.0905
29208W        W45682   8.415   4.362   0.736 -0.1221  0.1965  0.0359
29209W        W45683   5.888   1.850   0.649  0.1249  0.0530  0.0724
29210W        W45684  17.427   5.723   5.715 -0.2559  0.2205  0.0799
29211W        W45685   4.982  17.410   1.740  0.1561  0.0024  0.0344
29212W        W45686  16.753   4.203   4.103  0.0920  0.1042  0.1832
29213W        W45687   2.835   2.261  10.385  0.2118  0.1503 -0.0527
29214W        W45688  19.002  12.732   3.802  0.1493  0.0923 -0.4340
29215W        W45689   6.542  19.549  13.606  0.0009  0.0810 -0.2426
29216W        W45690  16.240   5.047   1.518  0.1004  0.3502  0.2074
29217W        W45691  18.752   4.053   1.746 -0.0881  0.1080  0.4135
29218W        W45692   9.358   3.855   4.316  0.0474  0.3729  0.2182
29219W        W45693  18.676   9.290   3.250  0.0927 -0.4336  0.0606
29220W        W45694   7.768  18.010   0.494  0.1987 -0.0442 -0.1156
29221W        W45695  10.275  14.556   1.651  0.3200  0.0590  0.2248
29222W        W45696   5.065   5.066   1.678 -0.1425  0.1485  0.2587
29223W        W45697   7.153   2.936   2.989 -0.1823 -0.0837  0.1206
29224W        W45698   0.028  14.458  11.716 -0.0239  0.1885  0.1064
29225W        W45699   7.757  16.510   1.075  0.1329 -0.0579 -0.1119
29226W        W45700  14.576   9.377  10.932 -0.3658  0.0609 -0.1066
29227W        W45701   8.723  13.018   1.523  0.0031  0.1756  0.1104
29228W        W45702  17.049   5.644   3.487 -0.2224  0.0964  0.0253
29229W        W45703  18.102   0.340  13.439 -0.1218  0.1444  0.2618
29230W        W45704  18.683  12.639   4.189  0.2200  0.0044  0.0904
29231W        W45705   1.010  12.428  10.151  0.0644 -0.1514 -0.1765
29232W        W45706  15.032  16.311   0.091  0.0084  0.1279  0.2406
29233W        W45707   8.340  13.238  12.994 -0.1328  0.0382  0.0167
29234W        W45708  11.654  13.187  14.138 -0.1750  0.0576  0.1869
29235W        W45709  18.054  17.171   4.019 -0.0993 -0.0182 -0.0585
29236W        W45710   9.054   3.333   4.704 -0.0534  0.0956  0.1086
29237W        W45711   4.552  15.234  14.424  0.3940 -0.2872 -0.1603
29238W        W45712   0.153  14.971   3.629 -0.1618  0.1385  0.3089
29239W        W45713   2.793  16.500  11.272  0.3092  0.0060  0.1604
29240W        W45714  16.694  13.651  10.908  0.0140 -0.0049 -0.1013
29241W        W45715  11.648  13.391   4.516  0.2701  0.0517 -0.2617
29242W        W45716  16.010  14.732  11.183  0.1932 -0.1700 -0.1344
29243W        W45717  10.636  12.070   0.867 -0.3974  0.1280  0.0264
29244W        W45718   9.327  10.836  14.016  0.1876 -0.0951  0.1431
29245W        W45719  10.380  13.209  13.731 -0.2667  0.0292 -0.1832
29246W        W45720  16.872   5.598  13.441 -0.2278 -0.1254  0.1915
29247W        W45721  12.334   1.657  11.416  0.4880 -0.1052  0.0713
29248W        W45722  10.724  15.252   3.799  0.0355  0.1426  0.6214
29249W        W45723   2.515   5.302   1.977  0.0357  0.3537 -0.0190
29250W        W45724   2.213   4.923   1.512  0.2639 -0.0207  0.1289
29251W        W45725   1.186   5.039   0.547  0.2792 -0.1065 -0.1649
29252W        W45726  13.525   2.035   2.708 -0.0512  0.0149  0.1842
29253W        W45727   3.031   2.724   0.914  0.3181  0.1189  0.1384
29254W        W45728  17.936  15.268   4.464 -0.0399  0.0253  0.0227
29255W        W45729   2.845   7.978   1.399  0.0228  0.1742 -0.0206
29256W        W45730   8.272   3.880   2.149 -0.1319  0.3910 -0.4412
29257W        W45731   9.706   3.721  14.071  0.0438 -0.1810  0.1558
29258W        W45732  15.915  10.583  13.312 -0.0574 -0.0525  0.1590
29259W        W45733   3.701   2.825   2.167 -0.2348  0.0772  0.2081
29260W        W45734  16.059  12.588  12.236 -0.3032  0.0133 -0.0645
29261W        W45735   3.468  10.365   0.894  0.4225  0.0669 -0.0131
29262W        W45736  18.433  13.798  10.498  0.0015 -0.0403  0.0191
29263W        W45737  16.766  18.399  12.403  0.1748  0.2725  0.0374
29264W        W45738  19.597  15.212  13.700 -0.1052 -0.1624 -0.0054
29265W        W45739  17.629  10.293  14.510  0.1389 -0.0625  0.0577
29266W        W45740   0.439   8.234  11.242  0.0860 -0.2168 -0.0392
29267W        W45741  18.398  18.802   1.762  0.1084 -0.2233 -0.0374
29268W        W45742   3.901   0.826   2.003 -0.4398  0.2569  0.1446
29269W        W45743   6.480  15.763  14.597 -0.2482 -0.0412 -0.2041
29270W        W45744   6.068  11.125  11.376 -0.1783 -0.1781  0.1412
29271W        W45745   3.149   0.266  10.301 -0.0864  0.1347  0.2184
29272W        W45746   3.290  17.907  10.809  0.1090  0.1081  0.1048
29273W        W45747  11.542   4.544  11.020  0.0278 -0.0078  0.0771
29274W        W45748   0.938   4.473  13.321 -0.1817 -0.2203  0.3644
29275W        W45749   2.310   1.027  12.185 -0.0975 -0.1822  0.2051
29276W        W45750  10.225   0.075  11.030  0.0445  0.0641 -0.2085
29277W        W45751   1.862  11.087   1.508  0.0980 -0.0018  0.0913
29278W        W45752  19.044   1.656  12.261 -0.2589 -0.2089 -0.3198
29279W        W45753   8.422   6.146   3.739 -0.1094 -0.2871 -0.0529
29280W        W45754   0.997  11.468   0.473 -0.0933 -0.1041 -0.3282
29281W        W45755   6.704   1.193  11.135  0.2308  0.1854  0.0002
29282W        W45756   2.170  10.905   4.276 -0.1270  0.0048  0.0069
29283W        W45757   7.831  13.872  14.375  0.2534 -0.3334 -0.1387
29284W        W45758  15.216  17.642   3.272  0.2978  0.0629 -0.0865
29285W        W45759   3.801  14.620  13.477  0.4511  0.1651 -0.4014
29286W        W45760   3.047  16.231   1.370 -0.2852 -0.0208 -0.1217
29287W        W45761  14.080   5.882  11.545 -0.0168  0.2103  0.0442
29288W        W45762   1.835  13.870   4.166  0.1918 -0.0368 -0.1722
29289W        W45763  11.571   8.493  11.984 -0.0902 -0.0328  0.0125
29290W        W45764   4.511   3.477   4.248 -0.0615  0.0607  0.0267
29291W        W45765   2.711  11.056  11.225  0.2834 -0.0443  0.1818
29292W        W45766  11.570   7.694  11.189 -0.1289 -0.0089  0.2304
29293W        W45767   0.998   8.243  12.507  0.0979 -0.0913  0.2152
29294W        W45768  18.859   5.085   1.813 -0.0269 -0.0628  0.2491
29295W        W45769  12.388  17.343  14.462 -0.0218 -0.0554  0.1431
29296W        W45770   1.174  13.783  13.346  0.0219  0.1319  0.0964
29297W        W45771  18.724   4.583  10.632 -0.2149  0.0465  0.0516
29298W        W45772  19.421   1.322   9.518 -0.2036  0.1728 -0.0438
29299W        W45773   8.202  19.524   2.209 -0.0826  0.0683  0.0023
29300W        W45774   3.450   5.500   0.692  0.3229 -0.0571  0.0324
29301W        W45775   2.093   3.938  10.630 -0.2724  0.0558 -0.1530
29302W        W45776  16.855   7.196  14.296 -0.1784 -0.0400  0.1352
29303W        W45777   5.580   7.777  11.511 -0.1117  0.1853 -0.0854
29304W        W45778  19.171  16.120   2.458  0.2631 -0.1205  0.0450
29305W        W45779   3.129  15.650   3.290  0.1496  0.5536 -0.0391
29306W        W45780  19.483  15.265  14.272  0.0895  0.0932  0.0348
29307W        W45781   5.074   1.224   1.169 -0.0581 -0.0228 -0.0129
29308W        W45782  13.812   2.992   0.333  0.3207  0.0281  0.2277
29309W        W45783   0.835   3.611  14.282 -0.0791  0.0341 -0.0960
29310W        W45784   3.139   8.412  10.103  0.1144  0.0766 -0.0532
29311W        W45785  17.485   6.191   0.648 -0.1294 -0.1608  0.0808
29312W        W45786  13.044   3.667   1.971  0.0317 -0.1790 -0.0131
29313W        W45787  17.512   7.470  13.119 -0.0536  0.3270  0.2998
29314W        W45788   7.963   2.762  10.862 -0.0684  0.2853  0.0030
29315W        W45789   8.053  19.434   3.760 -0.2131 -0.3982  0.2783
29316W        W45790   0.769  14.125   2.130 -0.0105 -0.0113  0.1993
29317W        W45791   3.473  10.328   2.331 -0.0533  0.1500 -0.1278
29318W        W45792  15.772   6.379   3.074 -0.1465 -0.0123  0.3154
29319W        W45793   6.730  19.445  10.679  0.1164  0.1440  0.1937
29320W        W45794  15.479   8.600   0.597 -0.3062 -0.1199  0.0656
29321W        W45795  17.191  17.607   0.304  0.0982 -0.0859  0.2837
29322W        W45796  14.641   1.842  10.729  0.1817  0.1222  0.4479
29323W        W45797   0.322  18.162  13.880  0.3485 -0.3085 -0.3331
29324W        W45798  18.169   9.548   2.129  0.0056  0.0567 -0.0786
29325W        W45799   2.359  17.785  12.611 -0.2664  0.3669 -0.0187
29326W        W45800  14.885  13.037  10.315 -0.0009  0.2759  0.1432
29327W        W45801   0.391   2.749  11.275  0.2443  0.0550  0.3209
29328W        W45802  17.551  15.499   4.930 -0.0300  0.1008  0.1172
29329W        W45803  10.586   2.825   3.474 -0.1978 -0.1222 -0.2636
29330W        W45804  19.573  16.753  11.936 -0.1799 -0.2406  0.2181
29331W        W45805  19.520   2.000   3.870 -0.1511 -0.1809 -0.2931
29332W        W45806   1.941   0.810   0.739 -0.2600  0.0549  0.2388
29333W        W45807  12.468  15.278   1.742  0.1498  0.1114 -0.0585
29334W        W45808   7.261   2.264  11.515 -0.0343  0.0556 -0.3478
29335W        W45809   0.209  15.244   2.104  0.0718 -0.1664 -0.2469
29336W        W45810   9.469  11.779  14.273  0.2457  0.1781  0.1593
29337W        W45811  10.575   5.205   2.326 -0.0195 -0.3282 -0.1412
29338W        W45812  12.848  11.344  12.808 -0.0582  0.0894  0.2227
29339W        W45813   7.908  11.437   3.005 -0.1124  0.2778 -0.0179
29340W        W45814   8.213  10.844  13.088 -0.3338 -0.2422  0.1261
29341W        W45815   7.584   8.857  10.748  0.3617  0.1588  0.2193
29342W        W45816   3.365  18.521   9.134  0.2311  0.2842 -0.2967
29343W        W45817  19.610  14.546  12.534 -0.1505 -0.0033 -0.0023
29344W        W45818  15.054   7.289   0.329 -0.2080 -0.1508 -0.3099
29345W        W45819  17.524  15.796   0.123 -0.0425  0.1436  0.2620
29346W        W45820  11.639  11.198   2.833 -0.1063  0.1614 -0.1744
29347W        W45821   5.170  15.374   0.073 -0.2519 -0.3673 -0.2875
29348W        W45822  16.117   2.789  10.645 -0.1185 -0.0207  0.1437
29349W        W45823   4.808   3.930   1.636 -0.0553  0.1100 -0.0635
29350W        W45824   2.180  12.784  12.977  0.2916  0.2850 -0.2453
29351W        W45825  10.054  19.076   5.440  0.2737 -0.2813 -0.0156
29352W        W45826   3.910   8.804  10.560  0.1256 -0.0758  0.3135
29353W        W45827  17.637   1.716   3.504 -0.2760  0.2173 -0.0141
29354W        W45828  16.566   1.894  10.895  0.4671 -0.1711 -0.3620
29355W        W45829   8.663   4.160  13.876 -0.3771  0.0711  0.1011
29356W        W45830   6.343   1.662  10.537 -0.1293  0.1535 -0.1878
29357W        W45831  11.932  17.840  13.785 -0.0581  0.2495 -0.0584
29358W        W45832  19.072   3.719  10.333  0.2599  0.4164  0.1342
29359W        W45833  15.319   0.252  14.263 -0.0995  0.0256  0.1580
29360W        W45834   5.664   4.370   2.630 -0.1506 -0.0330 -0.0125
29361W        W45835  10.483  19.355   2.156  0.0365 -0.0123 -0.3172
29362W        W45836  11.643  18.067  11.261 -0.0481  0.0252 -0.2923
29363W        W45837   2.901  19.557   0.601 -0.0057 -0.0781 -0.1340
29364W        W45838  16.270   5.993  11.565  0.3356 -0.4518  0.0043
29365W        W45839   3.013   6.863   1.272 -0.2696  0.1920  0.1487
29366W        W45840  17.741   6.948  13.145 -0.2355  0.2026  0.1517
29367W        W45841  11.473  14.452   1.713 -0.0854 -0.0164  0.1902
29368W        W45842   6.575   2.857  11.391  0.3901 -0.1560 -0.0561
29369W        W45843   8.624  19.303  12.223  0.0090 -0.3203  0.2132
29370W        W45844  17.223  11.391  12.257  0.0440 -0.0876  0.0927
29371W        W45845   7.538  12.657  13.253 -0.3814  0.1184 -0.0001
29372W        W45846  17.645   4.704  11.339 -0.0906  0.1051  0.1704
29373W        W45847  13.558   9.894   2.244 -0.0432 -0.2680  0.2040
29374W        W45848   9.964   7.119   3.270 -0.0526  0.0228 -0.1878
29375W        W45849  12.666   5.215  10.930 -0.0409  0.4216  0.0634
29376W        W45850  18.628   0.886  12.615  0.1604 -0.0917 -0.2126
29377W        W45851   8.231  11.229   4.286  0.0531 -0.0977  0.1968
29378W        W45852   5.374  16.696   1.371  0.0422  0.4470  0.1301
29379W        W45853  15.327   6.907   4.251 -0.1226  0.0085 -0.0006
29380W        W45854   7.330   1.408  10.207 -0.1373 -0.3964  0.6121
29381W        W45855  15.735  10.148  12.996 -0.2279  0.2116  0.0125
29382W        W45856  15.397   1.014  11.816 -0.1427 -0.0157 -0.2784
29383W        W45857  19.581  19.233   1.470  0.1906 -0.0752  0.0980
29384W        W45858   1.457   4.186   0.329 -0.0641  0.2311 -0.3593
29385W        W45859  11.987  11.633   2.928  0.3064 -0.1220 -0.1770
29386W        W45860  11.595  12.398  13.549 -0.2164  0.0080 -0.0166
29387W        W45861   0.291   1.151   4.027  0.1272 -0.0875  0.0461
29388W        W45862  19.516  17.227   4.278 -0.3045  0.0414 -0.2265
29389W        W45863   1.236   0.561   9.811  0.1513  0.1723  0.1461
29390W        W45864   9.705  18.850   3.510  0.1420  0.1073 -0.0086
29391W        W45865   7.370  19.253   1.923 -0.3427 -0.0649 -0.1380
29392W        W45866   2.192   2.373   2.353 -0.0355  0.1745 -0.0102
29393W        W45867   9.214  16.399   3.306 -0.1776 -0.0918 -0.0944
29394W        W45868   5.239   5.633  12.721  0.1914 -0.3883  0.1440
29395W        W45869  16.985   3.057   5.217  0.2421 -0.1972  0.3183
29396W        W45870  19.310   2.595   0.757  0.0008  0.0932  0.1665
29397W        W45871   7.030   4.262   2.100 -0.2367 -0.2061  0.1953
29398W        W45872   9.217   4.451  13.346 -0.1886  0.0823 -0.0644
29399W        W45873   1.955  14.428  12.538 -0.0576 -0.1079  0.2056
29400W        W45874  11.902   5.550   4.085  0.0227 -0.2002  0.1448
29401W        W45875  17.568   4.969   0.447  0.2653 -0.2504  0.0887
29402W        W45876   3.400  19.415   0.433 -0.1616 -0.1731  0.0214
29403W        W45877   2.538   8.761   4.746  0.0744 -0.1845 -0.0026
29404W        W45878  11.289  15.688   0.646 -0.2641  0.1589  0.1488
29405W        W45879   3.499   5.340  11.056  0.2384 -0.1807  0.1224
29406W        W45880  16.797   4.098   0.540  0.3425  0.3295  0.2046
29407W        W45881   8.401   3.928  13.115 -0.1736 -0.0655  0.1135
29408W        W45882   9.921   3.876   3.963  0.1056  0.2159 -0.0743
29409W        W45883   8.412  10.883  11.219  0.3727 -0.0279  0.0462
29410W        W45884  17.862   8.936   3.605  0.4626 -0.1458  0.1128
29411W        W45885  18.680   3.681  13.060 -0.3417 -0.1169  0.0978
29412W        W45886  19.122   8.003   3.721  0.2003 -0.1046  0.0026
29413W        W45887  19.157   4.267  12.460 -0.2240  0.1444 -0.0917
29414W        W45888   7.441   8.453  10.436  0.2204 -0.1442 -0.1236
29415W        W45889   7.353   8.418  11.017  0.2436 -0.3236 -0.0732
29416W        W45890  15.718   7.170   3.145  0.0523 -0.1042  0.4193
29417W        W45891  11.188  13.601  13.353  0.4106 -0.0703 -0.0357
29418W        W45892  17.541   8.262  14.608 -0.2162 -0.0022 -0.3010
29419W        W45893   1.444  16.988   4.293  0.1125 -0.2238 -0.3180
29420W        W45894  15.882  12.987  10.549  0.0295 -0.4038  0.1189
29421W        W45895  10.623  14.483  13.331 -0.0340  0.0582  0.1052
29422W        W45896   6.186  18.931  11.577  0.6234 -0.2019  0.3305
29423W        W45897  14.144   5.539  13.307 -0.0954  0.2073  0.0216
29424W        W45898  19.314  13.971   4.515  0.4745 -0.4778 -0.2617
29425W        W45899  16.777  15.477   3.055  0.1306 -0.2131 -0.0923
29426W        W45900   7.455   1.445  13.839  0.0264 -0.2370  0.1458
29427W        W45901  15.220  17.855   3.762  0.0901  0.1600  0.3167
29428W        W45902  18.487  10.945  11.164  0.2783  0.2649  0.0090
29429W        W45903  16.237   1.978  13.862 -0.3316 -0.0692 -0.0552
29430W        W45904   5.492   6.092   4.235  0.0769 -0.2717  0.2076
29431W        W45905   1.156  15.530  13.124 -0.3367  0.1684 -0.0972
29432W        W45906  16.303  15.879   4.675  0.0310 -0.3326 -0.0378
29433W        W45907   7.119   2.454   9.889 -0.3067 -0.4216 -0.0847
29434W        W45908  19.177   2.273   3.525  0.0859 -0.0498 -0.0863
29435W        W45909   4.417   6.604  13.959  0.1581 -0.1025 -0.2689
29436W        W45910   0.307   2.330   1.996  0.2832 -0.1056 -0.2801
29437W        W45911   1.240  11.000  11.640 -0.2492 -0.2489  0.4513
29438W        W45912  18.862   0.489   1.116 -0.1792  0.1771  0.0699
29439W        W45913   5.679  12.450  12.202 -0.1456  0.4161 -0.0905
29440W        W45914   5.114  18.670  12.073  0.0953 -0.0520 -0.3404
29441W        W45915   3.954   8.164  14.459 -0.2244 -0.3499 -0.2416
29442W        W45916  16.308   2.273  10.326 -0.2012  0.0048  0.0314
29443W        W45917   2.221  13.542  12.162 -0.2975 -0.1866  0.2158
29444W        W45918  13.014   3.958  11.184  0.2062  0.3913  0.3852
29445W        W45919  16.292  15.556   1.733 -0.3223  0.2564 -0.0981
29446W        W45920   9.632   0.419   4.864  0.1787  0.1291 -0.0586
29447W        W45921  10.157   3.881  11.615  0.1854 -0.1857  0.2116
29448W        W45922   5.495  11.585   1.846 -0.1794 -0.0802  0.2760
29449W        W45923  10.993  12.282  13.454  0.0673  0.4625 -0.1365
29450W        W45924  11.032   8.617   2.644 -0.0114  0.0476  0.5093
29451W        W45925  10.975  12.814   4.088 -0.2010 -0.1950  0.0629
29452W        W45926   4.778   9.855   1.843  0.0657  0.1241  0.3344
29453W        W45927   4.168  19.304   3.123 -0.2191 -0.0476 -0.2262
29454W        W45928  14.200   8.738   0.789  0.0776  0.3259 -0.2573
29455W        W45929  11.107   8.393  12.779  0.1908 -0.0065  0.0698
29456W        W45930   5.442   9.589  14.099  0.0930 -0.0447  0.0653
29457W        W45931   6.435  13.511  12.226 -0.1762  0.0815 -0.1183
29458W        W45932  14.237   4.380  12.490  0.1288  0.2553  0.0257
29459W        W45933   1.657   2.527   9.734  0.0721 -0.1588 -0.3906
29460W        W45934  16.687   4.303  10.503  0.0148  0.0413  0.2108
29461W        W45935   2.077  12.793  11.662 -0.0150  0.0540 -0.1354
29462W        W45936  19.262  19.380  11.973 -0.0176 -0.0677 -0.1685
29463W        W45937  13.733  17.703  13.949 -0.2840 -0.3352 -0.0341
29464W        W45938   4.017   7.027   4.088  0.2282  0.4305  0.2894
29465W        W45939  14.574  10.185   2.632  0.1325  0.3599  0.1092
29466W        W45940  19.210  16.165  10.776  0.1352 -0.1680 -0.0146
29467W        W45941  18.421   2.406  14.018  0.0082 -0.0474  0.1476
29468W        W45942  15.407  14.734   5.287 -0.1545 -0.4151 -0.0657
29469W        W45943   8.720  14.435   0.658 -0.2442 -0.2084 -0.0263
29470W        W45944   8.360  19.470   2.754 -0.1816 -0.0705  0.1129
29471W        W45945   7.779  17.876  13.219 -0.0378 -0.0565 -0.0700
29472W        W45946  19.126  15.658   4.930 -0.1378 -0.1754  0.0013
29473W        W45947   0.921  14.050   3.225 -0.4141 -0.2197 -0.0701
29474W        W45948  17.247  18.458  10.956 -0.0174 -0.0779  0.0190
29475W        W45949  10.690   0.826   0.520  0.1218  0.4773 -0.1122
29476W        W45950  18.563  17.380  11.746  0.0984  0.3536  0.1627
29477W        W45951   7.941  13.780   0.919 -0.2008 -0.3259  0.5141
29478W        W45952  14.952   0.244  10.587 -0.0992  0.0332 -0.0040
29479W        W45953   0.519   1.344   1.062 -0.1365  0.0837 -0.3605
29480W        W45954  10.365  14.001   3.057  0.1766  0.1802 -0.0407
29481W        W45955   5.121  17.386  11.295  0.0429 -0.0342 -0.2806
29482W        W45956   5.276  19.619   4.501 -0.1345  0.1576  0.0990
29483W        W45957   2.491   7.465  11.538 -0.1156  0.0229  0.1071
29484W        W45958  16.630   1.093   4.303 -0.1898 -0.3224  0.2249
29485W        W45959   1.206  15.116  12.328 -0.2128 -0.2368 -0.1678
29486W        W45960  18.511   1.659  10.480 -0.1374  0.2129  0.0689
29487W        W45961  17.540   9.079   0.693 -0.0287 -0.0176 -0.0260
29488W        W45962  14.964  19.298  12.697  0.2206 -0.2035  0.1127
29489W        W45963   2.290  11.726   3.625  0.1387 -0.1041 -0.1513
29490W        W45964  17.051   3.118   4.701  0.0013 -0.0867  0.0100
29491W        W45965  16.352  17.801  11.102 -0.1999 -0.1445 -0.3588
29492W        W45966   0.508   3.369  12.803  0.0780  0.1028 -0.0639
29493W        W45967  17.347  10.819  14.654  0.0482  0.0348  0.4610
29494W        W45968  18.140  13.467  12.486 -0.1467  0.3030 -0.0541
29495W        W45969  14.364   1.697   5.430 -0.0988  0.0746 -0.1594
29496W        W45970  17.395  13.013  12.756 -0.2593  0.5382  0.3025
29497W        W45971  14.739  18.749   0.559 -0.1535  0.3542 -0.2760
29498W        W45972  18.662  12.368  12.241  0.3608 -0.0231  0.0753
29499W        W45973  12.360  13.307  12.000 -0.1218 -0.1169  0.1613
29500W        W45974   1.674   4.848   1.861 -0.1202  0.1606 -0.2080
29501W        W45975  13.607   4.726  12.264  0.0995 -0.0232 -0.0212
29502W        W45976  18.103   4.093   2.339  0.0197  0.1974 -0.2761
29503W        W45977  18.668  12.186   4.491 -0.0861  0.1980 -0.0546
29504W        W45978   3.789  18.015  12.828 -0.0073  0.3823 -0.1503
29505W        W45979  13.894  13.037   4.489  0.1564 -0.1870  0.0115
29506W        W45980  17.294  17.606  11.387  0.4262  0.0378  0.1913
29507W        W45981  11.276  16.150  14.057  0.0221  0.0753  0.0752
29508W        W45982   9.942   2.659   0.768  0.1225 -0.2183  0.1287
29509W        W45983  12.968   4.450  12.424 -0.1041  0.0493  0.0392
29510W        W45984  10.858  17.424  13.735 -0.1999  0.2323  0.2123
29511W        W45985  10.706  15.392   0.641 -0.1678  0.1882  0.2432
29512W        W45986   3.787  14.238   0.834 -0.3089 -0.4680 -0.2095
29513W        W45987   9.172  12.071  14.551 -0.0744  0.1015 -0.0445
29514W        W45988  15.199   9.954   4.241  0.0565  0.2016  0.2946
29515W        W45989  14.973  12.244   4.738 -0.3888 -0.0746  0.2300
29516W        W45990   5.205  13.548  11.438  0.2213 -0.0387 -0.2082
29517W        W45991  15.752  14.753   2.289  0.0737  0.0353  0.0919
29518W        W45992   2.330   1.589   2.700  0.0050 -0.2050 -0.2146
29519W        W45993  12.780   0.513  11.877 -0.1115  0.0038 -0.0303
29520W        W45994   9.641   7.668   3.321  0.0586  0.2124 -0.1882
29521W        W45995   0.856  18.844  14.109 -0.1124  0.0991  0.0668
29522W        W45996  18.367  18.623   2.657 -0.1815  0.0506 -0.1932
29523W        W45997  16.755   4.490   4.990  0.0111  0.4212 -0.2152
29524W        W45998  19.397  14.606  10.645 -0.0726  0.0482 -0.1008
29525W        W45999   4.940  16.499   3.575 -0.1767 -0.1054 -0.0422
29526W        W46000   1.603  16.836  12.251  0.0639 -0.0226  0.0479
29527W        W46001   1.737   7.079  14.430  0.0356  0.2948 -0.2266
29528W        W46002  13.223  16.898   3.952  0.1670  0.2093 -0.3704
29529W        W46003   9.929   1.965  10.851 -0.0938 -0.2715  0.0405
29530W        W46004   3.263   9.891  13.558 -0.0091  0.0035 -0.0469
29531W        W46005   2.152   4.611  12.655 -0.2816  0.0554  0.0928
29532W        W46006  17.745   9.429   3.257 -0.0401 -0.0929  0.3331
29533W        W46007  16.520  10.733   0.635 -0.1165  0.1557 -0.0975
29534W        W46008  11.858  17.745   1.481  0.0669  0.1180 -0.1737
29535W        W46009   9.998   0.856  14.558  0.4476  0.0322  0.0095
29536W        W46010  10.253  12.750   5.101 -0.1063  0.0526 -0.0838
29537W        W46011  16.544   1.098  11.505 -0.1485  0.2798  0.0803
29538W        W46012   4.153  13.646   3.089  0.1803 -0.0954 -0.1857
29539W        W46013  13.832   9.417  11.520  0.0936 -0.3095 -0.1953
29540W        W46014   5.383  11.123   1.590  0.1165  0.1011  0.0637
29541W        W46015   5.948   9.665   1.309  0.1106  0.1517 -0.3112
29542W        W46016  11.777   1.142  12.868 -0.1257  0.3094  0.1508
29543W        W46017  16.474   3.827   2.265  0.0432 -0.0990  0.1449
29544W        W46018   7.637  15.841   3.707 -0.3080  0.3332 -0.0015
29545W        W46019  17.157   0.897   3.269 -0.0204 -0.1178 -0.0900
29546W        W46020   0.261  14.816   3.085 -0.0203  0.2036 -0.0962
29547W        W46021  12.741   7.718   4.143  0.1998 -0.1781  0.4608
29548W        W46022   0.041  19.194   0.489  0.1150 -0.3219  0.1398
29549W        W46023   2.651   0.446   4.993 -0.0595 -0.0039  0.0880
29550W        W46024  11.609   8.371   0.644 -0.0795 -0.1105  0.0982
29551W        W46025   4.203   4.327  12.999 -0.0015 -0.0175 -0.2643
29552W        W46026  13.640  11.519   1.905 -0.0135  0.4601 -0.1839
29553W        W46027   4.570   5.118  13.223 -0.1004  0.1102  0.0005
29554W        W46028  15.711  11.943   9.798 -0.0978 -0.2459  0.1463
29555W        W46029  12.391   3.484   1.514  0.1408  0.2042 -0.0773
29556W        W46030   6.400   6.920   4.635 -0.1155  0.3476  0.1582
29557W        W46031   1.996  17.771   4.254  0.1971  0.1571  0.4243
29558W        W46032  10.654   1.044   2.665  0.3602  0.1343 -0.1732
29559W        W46033   5.469   0.104  12.046  0.0655  0.2570 -0.1001
29560W        W46034   0.296   7.458  10.407 -0.0374  0.2769  0.1994
29561W        W46035  14.261  11.766  12.393 -0.0590  0.1894 -0.3143
29562W        W46036   1.612   9.657   5.132  0.3789 -0.1277  0.0219
29563W        W46037  12.903   9.447  12.428  0.0989 -0.0722 -0.1064
29564W        W46038   2.335  11.810  14.429  0.0015  0.1427  0.2292
29565W        W46039  18.238  13.349  12.999  0.2967 -0.0657 -0.1314
29566W        W46040  18.489   9.860   1.962  0.2817  0.1485  0.0176
29567W        W46041   4.968   2.911   1.791  0.0338 -0.0374 -0.0436
29568W        W46042   9.955   6.285  14.465 -0.2592  0.0357 -0.1022
29569W        W46043   0.157   2.204  12.496  0.1303 -0.2256 -0.1121
29570W        W46044   3.715  12.142  12.776 -0.1408  0.0202  0.1220
29571W        W46045  10.233   0.674   2.640 -0.0017 -0.0721  0.1036
29572W        W46046  18.163   9.215   2.617 -0.2963 -0.3680 -0.0350
29573W        W46047  11.351  11.962   2.855  0.5233  0.0307  0.2670
29574W        W46048   5.886   4.375   3.955  0.0937 -0.0725 -0.2641
29575W        W46049  15.082   8.929   0.674  0.5814 -0.1754 -0.0722
29576W        W46050   3.118  12.640   4.052  0.0115 -0.0918 -0.1015
29577W        W46051  11.852  14.795   5.217 -0.1499  0.2241  0.0707
29578W        W46052   4.760   0.529   3.466 -0.0158  0.1207 -0.2100
29579W        W46053   7.426   7.368  11.585  0.0783  0.1899  0.0165
29580W        W46054  18.061   7.596   2.190 -0.0922  0.2653 -0.1316
29581W        W46055  10.892  18.309  10.226  0.1262  0.1183  0.1289
29582W        W46056   2.047  14.919  11.521  0.4302 -0.0025 -0.0383
29583W        W46057  19.298   1.295  14.119 -0.1348 -0.1462  0.1487
29584W        W46058   7.965  16.234   1.447 -0.3883 -0.1413  0.0574
29585W        W46059  13.873   0.259  13.181 -0.1463 -0.2045  0.2051
29586W        W46060  13.707   0.772   9.229  0.4696 -0.0800  0.3393
29587W        W46061  18.541  11.909   1.210  0.2142 -0.0103 -0.0386
29588W        W46062   4.541   3.320  14.609  0.1748 -0.0551  0.0753
29589W        W46063   7.818   8.588   0.714 -0.1506  0.0736  0.1024
29590W        W46064   3.852   7.441  11.660 -0.1054  0.0499 -0.2376
29591W        W46065  17.883  12.873  13.185  0.0086  0.0157 -0.0663
29592W        W46066   8.458   1.267  10.842 -0.2659  0.0940 -0.1680
29593W        W46067   1.086  19.347   2.182  0.0161 -0.3012 -0.0930
29594W        W46068  14.381   3.238  13.522 -0.0616 -0.2063  0.3600
29595W        W46069   1.832  13.494  10.615  0.0549 -0.0446 -0.2039
29596W        W46070   4.498  10.594   3.549  0.0193  0.3861  0.2281
29597W        W46071   9.392  16.020   2.778  0.0208 -0.1747  0.0062
29598W        W46072   9.562   7.903  10.560  0.2942  0.0671  0.1240
29599W        W46073   0.631  19.063   2.395 -0.0030  0.2630  0.2035
29600W        W46074   1.977   3.269  13.605 -0.0489  0.1018  0.2935
29601W        W46075  11.403   5.877  10.064 -0.4152  0.0504 -0.2576
29602W        W46076   6.659  16.195  10.121 -0.1652 -0.0285  0.1790
29603W        W46077   9.402  15.160  10.456  0.0923  0.0625 -0.0289
29604W        W46078  15.231  12.361  13.138 -0.4086  0.3361 -0.1572
29605W        W46079  14.689   9.700   5.630 -0.2265  0.1078 -0.4005
29606W        W46080   9.627  17.551   2.574  0.0256  0.0167 -0.1033
29607W        W46081   1.270  11.102   5.805 -0.3882  0.1177 -0.1046
29608W        W46082  12.013   4.170   2.637  0.0175  0.0214  0.1185
29609W        W46083  16.987  17.921   0.626  0.1294  0.1792 -0.0778
29610W        W46084  15.365  17.120  14.288  0.1541  0.3116 -0.2514
29611W        W46085   7.188  13.260   4.502 -0.1189 -0.2605  0.0567
29612W        W46086   9.168   2.517   2.511 -0.1959 -0.0936  0.2955
29613W        W46087   1.861   3.146  12.664 -0.2236 -0.0494  0.1716
29614W        W46088  10.432   2.495   0.643 -0.2487  0.0945  0.4466
29615W        W46089   4.482  14.359   3.238  0.1436  0.0296 -0.0978
29616W        W46090   7.357   5.557   9.855  0.1563  0.1716 -0.2290
29617W        W46091   8.247  11.787   1.260  0.0891 -0.4443 -0.2833
29618W        W46092  17.787  19.237  11.131  0.0495  0.3534 -0.2413
29619W        W46093   5.549   4.036   0.352  0.1478 -0.0405  0.2991
29620W        W46094  11.201  13.388  13.946  0.1563 -0.2821  0.0992
29621W        W46095  17.277   4.059   0.423 -0.2532 -0.0283  0.1196
29622W        W46096   9.667  11.208   2.504  0.0813  0.0317 -0.1537
29623W        W46097  11.689   7.750  14.271  0.0044  0.1498  0.0928
29624W        W46098  18.985   4.575   4.098  0.2768 -0.0026  0.0957
29625W        W46099  11.350   7.875   3.090 -0.3586 -0.1426  0.0910
29626W        W46100  17.122   6.240  14.417  0.0015 -0.3215 -0.0777
29627W        W46101   3.323   2.387  10.793 -0.0147 -0.2438  0.1856
29628W        W46102   4.510   2.883   1.740  0.0843  0.0360 -0.2047
29629W        W46103  17.318   3.936  13.015 -0.0746  0.1761  0.1537
29630W        W46104   3.660  17.199  13.120  0.0120  0.0596  0.1530
29631W        W46105  11.341  14.722   0.031  0.0643 -0.1613  0.4493
29632W        W46106   6.425   1.771   0.170  0.1426  0.1133  0.4589
29633W        W46107  19.420   0.617  13.689  0.0162 -0.0075  0.0295
29634W        W46108   0.739  16.226  12.111  0.0210 -0.3741  0.0175
29635W        W46109  16.622  14.742  13.397  0.0574 -0.1776  0.1904
29636W        W46110  19.454  17.571  12.082 -0.0257  0.2233  0.0441
29637W        W46111  17.438   0.678   4.629 -0.2719 -0.2556 -0.0671
29638W        W46112   4.728   7.949  12.942  0.1341  0.1542  0.2708
29639W        W46113  16.764   0.226  13.931  0.0929  0.2497 -0.0976
29640W        W46114  15.471  11.605   3.284 -0.0002 -0.2633  0.0143
29641W        W46115   8.913  11.866   9.442  0.0571 -0.1804  0.3628
29642W        W46116  13.756  17.511  11.332  0.1166 -0.3012  0.2715
29643W        W46117   8.708   7.564  12.151 -0.0806 -0.1705  0.2611
29644W        W46118   1.579  11.155   0.401 -0.2231  0.1831  0.0980
29645W        W46119  19.342   4.289  11.578  0.1240 -0.2402 -0.2153
29646W        W46120  16.285  17.301  12.240 -0.0779 -0.2663  0.1561
29647W        W46121   1.077   4.320   2.721  0.1939 -0.2720 -0.2812
29648W        W46122  16.441  17.608   1.545  0.0695  0.0492  0.2954
29649W        W46123  11.444   3.171   1.878 -0.1538  0.0775 -0.1200
29650W        W46124  18.484   3.755   1.120 -0.2067  0.0427  0.0268
29651W        W46125  14.806   2.787  10.410  0.1277  0.1406  0.4141
29652W        W46126   1.301   7.837   2.977  0.2025 -0.4890 -0.0915
29653W        W46127  13.270  17.469  12.073 -0.1211  0.0167  0.1050
29654W        W46128   5.832  12.505   0.954  0.1820 -0.1576 -0.1583
29655W        W46129  19.413   1.041   4.052 -0.1658  0.1229 -0.0993
29656W        W46130   7.073   3.219  13.492  0.2174 -0.4334 -0.0728
29657W        W46131   4.061   6.154  12.252  0.0808  0.0587 -0.2537
29658W        W46132  18.646  17.806  11.589 -0.1110 -0.1821 -0.0405
29659W        W46133  11.924   7.194  13.933  0.1998  0.0196 -0.1113
29660W        W46134   6.213  10.150   4.571 -0.3323  0.1849 -0.0021
29661W        W46135  10.686   6.658   2.088  0.0551  0.1378 -0.1584
29662W        W46136  10.162  12.525   5.753 -0.1324 -0.0683  0.2216
29663W        W46137   1.319  16.354  14.232  0.0477 -0.1059  0.1422
29664W        W46138   4.987   9.303   3.705 -0.2289  0.1987  0.4298
29665W        W46139   1.630  10.028  10.850  0.2496 -0.2172  0.1729
29666W        W46140   5.346  16.298  10.559 -0.4210  0.1237 -0.2678
29667W        W46141  16.013  14.818   0.512  0.3687  0.0790 -0.0318
29668W        W46142  11.625   6.208   4.131  0.3391 -0.1298  0.0251
29669W        W46143   6.575  18.338   1.438  0.0597 -0.3371 -0.1163
29670W        W46144  19.608  11.527   2.813 -0.2734 -0.0969  0.2248
29671W        W46145   7.456  11.345  11.262 -0.0820 -0.2664 -0.0335
29672W        W46146  11.675   3.610  14.138 -0.1400  0.0893 -0.1094
29673W        W46147  10.573   5.283   1.393  0.0202  0.1974  0.2268
29674W        W46148   7.044  17.555   1.546  0.1786 -0.0510  0.2865
29675W        W46149  10.293  15.166   0.508  0.0722  0.4030 -0.0326
29676W        W46150  12.608   2.471  13.165 -0.0097  0.0547  0.1079
29677W        W46151   9.982   1.716  12.607  0.1901 -0.0847  0.1065
29678W        W46152   0.016   6.787   3.411  0.1842 -0.1522  0.2946
29679W        W46153  19.056   4.426  11.077 -0.4096  0.0297  0.1252
29680W        W46154  12.373   9.660   1.575 -0.2973 -0.2713  0.1463
29681W        W46155  15.892   5.635  12.226 -0.4980  0.0761  0.0030
29682W        W46156  12.114   7.616   3.311  0.1631  0.1443 -0.3047
29683W        W46157   8.792   4.823  10.459 -0.2121 -0.1175 -0.0803
29684W        W46158  15.606   7.444  11.862  0.1245 -0.4391  0.0905
29685W        W46159   8.160  15.086   9.867  0.1082  0.1037 -0.0457
29686W        W46160   5.588  14.356   2.729  0.3686  0.2838 -0.1235
29687W        W46161  15.441   1.773   3.639  0.3989 -0.0447  0.2299
29688W        W46162   5.041  12.128  10.527  0.3215 -0.0592  0.0572
29689W        W46163  15.497   8.816   9.858 -0.0694 -0.0154 -0.1229
29690W        W46164  15.272   6.904  12.949 -0.0592 -0.1935  0.1153
29691W        W46165  17.861   0.093   2.967 -0.1058  0.0595  0.0055
29692W        W46166  11.398   3.275   5.257  0.2821 -0.5364  0.0834
29693W        W46167  18.807  16.704   2.176  0.1335  0.2708 -0.4043
29694W        W46168  17.809   2.794  11.912 -0.1327 -0.1607  0.2155
29695W        W46169  10.542  17.407  10.550 -0.2730 -0.0969 -0.0956
29696W        W46170   9.661   0.314   4.336  0.2209  0.0321  0.0460
29697W        W46171   8.101  12.188  11.939  0.2616 -0.0703 -0.1172
29698W        W46172   1.820   0.165  13.528 -0.0738 -0.1174  0.0118
29699W        W46173   1.642   8.396  10.959 -0.0197  0.0105 -0.0063
29700W        W46174   4.196   1.661   4.205 -0.1857 -0.1865 -0.3220
29701W        W46175  14.152   9.393  13.509  0.0318  0.1780  0.1214
29702W        W46176  14.693  16.777   4.172  0.0186 -0.3410  0.0741
29703W        W46177   2.256  16.171   1.375  0.2738 -0.1872 -0.0234
29704W        W46178   8.519   6.522  14.275 -0.1824  0.2768 -0.1151
29705W        W46179  14.483   2.159   1.358  0.0506  0.0600 -0.2094
29706W        W46180  10.888  11.172  11.666 -0.0418  0.2709  0.2916
29707W        W46181   2.653   6.542  13.478 -0.2174 -0.0690  0.0416
29708W        W46182   2.574  10.187   2.081 -0.0495 -0.1160  0.2309
29709W        W46183  15.779  11.734  14.630 -0.2202  0.1284  0.4809
29710W        W46184  11.912  11.506  12.661  0.0414 -0.1073 -0.0052
29711W        W46185   1.442   5.068   2.501 -0.2459 -0.0937  0.0738
29712W        W46186   4.046  11.899  14.657  0.1377 -0.0630 -0.0596
29713W        W46187  10.130   5.931   3.780  0.0005 -0.4558 -0.1129
29714W        W46188   6.684   8.822   3.257 -0.1164 -0.1087  0.0962
29715W        W46189   8.003   7.350   4.206 -0.2218 -0.1035 -0.4351
29716W        W46190  14.698  14.482   2.197  0.1004  0.0332 -0.1294
29717W        W46191  16.219  13.753  13.694 -0.3050  0.1838 -0.2511
29718W        W46192  18.668   5.370  11.990 -0.0950 -0.1458  0.0984
29719W        W46193  17.627   1.386   2.664  0.1863 -0.0324  0.2348
29720W        W46194  14.687   4.992  10.002 -0.0989 -0.1553  0.1066
29721W        W46195   5.757   4.991  10.721 -0.0117 -0.1321  0.2995
29722W        W46196   4.724   6.659   1.298 -0.0407 -0.3188  0.0662
29723W        W46197   1.947  12.448  10.007 -0.2996  0.0163  0.2096
29724W        W46198   6.531   8.058   2.598 -0.0509 -0.1551  0.0056
29725W        W46199  19.344   1.320   5.476  0.1166 -0.0133  0.2366
29726W        W46200   2.990  13.809   2.132 -0.1309  0.1019 -0.3459
29727W        W46201   1.935  16.446   5.765  0.3613  0.2031 -0.0280
29728W        W46202  13.779  12.365  11.732 -0.0743 -0.0832 -0.1510
29729W        W46203   4.922  12.271   2.193 -0.0076  0.1667 -0.1857
29730W        W46204   0.634   0.370   5.279  0.1396  0.1208 -0.2009
29731W        W46205   3.589   9.354   3.833  0.0609 -0.3438 -0.1525
29732W        W46206   2.712   8.829   3.283  0.0011 -0.1573 -0.0470
29733W        W46207  11.241  14.126   2.723 -0.0026 -0.0136  0.1906
29734W        W46208  16.044  15.867   0.937  0.1249  0.0624  0.0807
29735W        W46209   4.742   2.874   0.233 -0.2612 -0.0457 -0.0083
29736W        W46210   4.285   2.047   1.152  0.1283  0.0023  0.0069
29737W        W46211  13.492   6.947  14.219  0.4106 -0.1515  0.2488
29738W        W46212   3.881   5.365  14.636  0.3214  0.1281 -0.0390
29739W        W46213   8.633   4.495   2.861  0.2783 -0.0858 -0.2334
29740W        W46214  18.069   6.519   2.220 -0.3003  0.0468  0.0907
29741W        W46215  17.309   0.542  11.230 -0.3745 -0.0965 -0.4702
29742W        W46216   4.717   8.628  13.128  0.2371 -0.1583 -0.1452
29743W        W46217   3.404  15.558  11.513 -0.0771  0.0611  0.2770
29744W        W46218  10.354   1.017  13.271  0.0189  0.1266 -0.1674
29745W        W46219  13.477  18.129   6.165 -0.0099 -0.2924  0.0689
29746W        W46220  10.576  13.840  12.681 -0.0724 -0.0511  0.2475
29747W        W46221   3.470  14.766   4.440  0.0329 -0.2798 -0.1463
29748W        W46222  18.515   5.336   0.173  0.0999  0.2526  0.0129
29749W        W46223  11.167  18.764   5.099 -0.0763 -0.1748 -0.0596
29750W        W46224   0.455  18.704  10.554  0.1839  0.0095  0.1845
29751W        W46225  16.690   1.903  10.047  0.0911 -0.1145  0.2495
29752W        W46226  13.657   6.297   0.864  0.1612 -0.1312 -0.2297
29753W        W46227   1.889   8.749   0.257 -0.3229 -0.1883 -0.0596
29754W        W46228  19.260   8.284  11.838  0.1610  0.2517 -0.1194
29755W        W46229  11.913   4.211  14.241  0.1269  0.1023  0.0850
29756W        W46230  17.212   4.846  13.441 -0.3364 -0.0564 -0.1345
29757W        W46231  13.692  13.096   3.264  0.0548 -0.0837 -0.0296
29758W        W46232   4.381   6.809   1.812  0.2044  0.0890  0.1113
29759W        W46233  11.457  11.012   0.146  0.1109  0.1596  0.1580
29760W        W46234   4.253  15.031  12.397  0.0651 -0.0324 -0.2204
29761W        W46235  12.610  15.315  13.986 -0.0031 -0.2953 -0.0291
29762W        W46236   3.757   9.580   4.286  0.2636 -0.0552  0.0529
29763W        W46237  15.466  14.940   3.210 -0.1309 -0.1606  0.1092
29764W        W46238  11.941   1.156   1.346 -0.3198 -0.0228  0.0291
29765W        W46239  17.629   6.719  11.236  0.0860  0.0717  0.1309
29766W        W46240  13.526   8.568   2.561  0.4298  0.0958  0.1265
29767W        W46241   4.100  19.357  13.456  0.0091  0.0876  0.3591
29768W        W46242  10.352   2.958   0.448 -0.3104  0.2576  0.2614
29769W        W46243  18.254  18.773  11.470 -0.1456  0.1517 -0.3253
29770W        W46244   3.643   2.684  13.073  0.2221  0.1693 -0.2385
29771W        W46245   4.820   7.229   4.865  0.1127  0.2681  0.3771
29772W        W46246   7.640  12.769   3.874  0.1138  0.0957  0.0508
29773W        W46247   4.841  17.902  13.871 -0.0068 -0.0435  0.0570
29774W        W46248   3.231  12.678  10.895 -0.0341  0.0102  0.1211
29775W        W46249   5.074   1.400   0.393 -0.4160 -0.1664  0.2204
29776W        W46250  17.033  13.386   3.210 -0.2248 -0.3325  0.1845
29777W        W46251  18.712   4.004  10.531 -0.3174  0.1352 -0.0215
29778W        W46252   2.470   7.406   3.603  0.3163 -0.3220  0.3156
29779W        W46253  15.589   8.345  13.494 -0.1578 -0.2630  0.4454
29780W        W46254   2.333  11.198   1.685 -0.1836  0.1533 -0.0343
29781W        W46255   3.421  12.855  13.252 -0.0077 -0.3357  0.1042
29782W        W46256  12.650   1.645  13.516 -0.0644  0.1418  0.1024
29783W        W46257   4.688   7.959  12.467 -0.2228  0.1767  0.1792
29784W        W46258  18.392  12.806  12.841 -0.1483 -0.0712 -0.2683
29785W        W46259  11.100   7.491   4.027  0.0119 -0.0848 -0.1006
29786W        W46260  14.936   2.795   3.376 -0.2122 -0.1415  0.1083
29787W        W46261   6.434   2.734   3.017 -0.0128 -0.1011 -0.1623
29788W        W46262   8.232   6.959   9.279 -0.0870 -0.3228  0.0125
29789W        W46263   4.043  11.398  11.192 -0.0668 -0.0812 -0.1092
29790W        W46264  16.018   6.058   1.946 -0.2203 -0.2033 -0.0976
29791W        W46265  10.281   7.006   4.292 -0.1908 -0.1630  0.1685
29792W        W46266  16.644   3.612   3.983 -0.2625  0.1839  0.2493
29793W        W46267  12.500  10.290  13.471 -0.0192 -0.2980  0.1611
29794W        W46268  11.647  10.319   9.472 -0.0398  0.0305  0.1877
29795W        W46269   4.791   9.697  13.206  0.0709 -0.0515  0.1055
29796W        W46270  10.795  17.462   0.572 -0.1452  0.0298  0.0681
29797W        W46271  15.880  11.188   4.308  0.0607 -0.1299 -0.2619
29798W        W46272  15.388   5.619  12.986  0.2540 -0.2053  0.1953
29799W        W46273   0.425  17.789   4.705 -0.0702 -0.1957 -0.0283
29800W        W46274  16.438  17.997   4.698 -0.3767  0.3459 -0.2224
29801W        W46275   9.045  12.586   3.681  0.1109 -0.0607  0.0815
29802W        W46276   2.235  18.778  11.981 -0.2506 -0.0828  0.0212
29803W        W46277   8.638   4.132   4.817 -0.0634 -0.0233  0.1457
29804W        W46278  16.944   5.657   4.496  0.2874 -0.0379 -0.0259
29805W        W46279  17.517   0.972   1.621 -0.0165  0.3931  0.0407
29806W        W46280  19.570   0.602  11.436 -0.4409 -0.1661 -0.0793
29807W        W46281  19.027  15.249  13.332 -0.2620 -0.2648 -0.1058
29808W        W46282  17.099  17.094   3.930  0.2844  0.2055 -0.1050
29809W        W46283  10.797  16.742   4.054 -0.3546  0.0601 -0.0892
29810W        W46284   1.746   4.389   3.799 -0.2924  0.0172  0.1005
29811W        W46285   3.227   5.472  10.380 -0.6030  0.1229  0.1223
29812W        W46286  18.468   5.876  11.733 -0.0304  0.3225 -0.1009
29813W        W46287  19.061  13.743  10.255 -0.0481 -0.2336  0.1276
29814W        W46288  19.582   4.374  10.595 -0.2305 -0.1847  0.2504
29815W        W46289   0.655  16.143  13.784  0.0078  0.1072  0.0821
29816W        W46290   8.207  10.362  13.394  0.0600  0.0689  0.1143
29817W        W46291  12.228   5.473   2.423 -0.0905  0.0678 -0.1638
29818W        W46292  19.089  14.292   2.271 -0.1910  0.2207  0.1442
29819W        W46293  15.302   7.099   5.260  0.1281  0.1018  0.2355
29820W        W46294   5.733  14.795  13.256 -0.1771 -0.0739  0.0021
29821W        W46295  14.621  14.832  12.294 -0.2888  0.0681  0.2054
29822W        W46296  17.982   3.250  11.916 -0.2859 -0.2105  0.1620
29823W        W46297   8.747   1.975   0.299  0.1969 -0.1358  0.3106
29824W        W46298  17.154   8.400  12.951 -0.1960  0.1068 -0.0909
29825W        W46299   7.209   2.557   4.520 -0.0567  0.1338  0.2555
29826W        W46300   4.435   1.404   9.245 -0.0645 -0.0342  0.0388
29827W        W46301  15.780  17.222   2.676 -0.0459 -0.1527 -0.0258
29828W        W46302  10.255   1.639  13.911 -0.2686  0.2336  0.1400
29829W        W46303   5.166   7.926   2.626  0.0888  0.2652  0.1681
29830W        W46304  13.395  16.767  13.143 -0.1134  0.0614  0.0783
29831W        W46305  11.881  14.922  13.651  0.1123 -0.1615 -0.3402
29832W        W46306  14.952   2.033   2.198 -0.0551  0.0153 -0.4591
29833W        W46307   1.422   0.508  11.259 -0.0839 -0.2578 -0.1006
29834W        W46308  15.341   5.015   3.946 -0.6036  0.1336  0.0188
29835W        W46309  12.506  10.438   1.200 -0.3445 -0.1862 -0.2299
29836W        W46310   9.290   2.217  10.991 -0.3700 -0.4013 -0.2356
29837W        W46311  14.596   8.456   4.574  0.1738 -0.0277  0.0719
29838W        W46312  13.025  13.048  13.113  0.0615  0.1879  0.0639
29839W        W46313  18.768  12.471  13.833 -0.1390 -0.1209 -0.0900
29840W        W46314  17.346  16.806   3.511  0.2922 -0.1772 -0.0286
29841W        W46315   0.167  16.094   5.202 -0.2114 -0.1822  0.0160
29842W        W46316   1.641   0.980   3.326 -0.1500  0.0648  0.3006
29843W        W46317  12.444   6.219   4.681  0.0990 -0.2587 -0.1979
29844W        W46318   4.349  13.441   9.475 -0.0418  0.1369 -0.1835
29845W        W46319  12.167   4.978  12.492  0.1845  0.0678  0.1259
29846W        W46320  14.569   3.699  12.730  0.1951 -0.2226 -0.0230
29847W        W46321   5.713   3.624  10.376  0.1479  0.0801  0.3586
29848W        W46322   0.376   2.943  13.863  0.1043 -0.2596 -0.1446
29849W        W46323   5.248   6.398  10.408 -0.0996  0.0158  0.3306
29850W        W46324  11.836   5.691   2.267  0.0044 -0.0513  0.2060
29851W        W46325  19.451   3.691  12.619 -0.1905  0.1612 -0.2768
29852W        W46326   6.229   4.632  12.759  0.4027 -0.2867  0.1277
29853W        W46327   6.644  12.282   0.618  0.0315 -0.1669  0.1919
29854W        W46328  16.706   9.377   0.247  0.0337 -0.1017  0.2099
29855W        W46329  10.239  14.290   2.567  0.1478 -0.2781 -0.1399
29856W        W46330   1.315  11.319   2.305 -0.1093  0.1117 -0.2933
29857W        W46331   4.224   7.321  11.976 -0.3415 -0.2801  0.3679
29858W        W46332   9.989   5.973  12.472  0.0164  0.0748 -0.4264
29859W        W46333  17.601  14.039   4.761 -0.1079 -0.0894  0.4133
29860W        W46334  14.445   8.200  13.402  0.1145 -0.2518  0.3523
29861W        W46335   4.294  14.363   0.835  0.3762  0.1561  0.0025
29862W        W46336  10.960   8.968  12.823  0.2365  0.0561  0.2056
29863W        W46337  19.524  11.831  10.607  0.4200 -0.0015  0.2343
29864W        W46338  10.906  17.974  11.172 -0.1684 -0.0981 -0.1012
29865W        W46339   5.207  14.085   5.348 -0.7042  0.0564 -0.4637
29866W        W46340   5.769   3.136   2.300 -0.0620 -0.2714  0.1476
29867W        W46341   0.884  19.554  13.336 -0.0962 -0.1305  0.1131
29868W        W46342  11.587   2.692   3.086 -0.3150 -0.0862 -0.1697
29869W        W46343  15.725   5.887   2.905 -0.1672  0.1181  0.1627
29870W        W46344   8.613  17.652   5.725 -0.1463 -0.0466 -0.0513
29871W        W46345   7.902  11.368  11.692  0.3436 -0.0536 -0.2027
29872W        W46346   0.760  11.037   4.201 -0.1377 -0.0157 -0.0406
29873W        W46347  12.946   3.885   1.082  0.0716 -0.2515  0.4549
29874W        W46348  10.438  11.072   3.591 -0.1108  0.2113 -0.2243
29875W        W46349  15.076  14.843  13.023  0.2066 -0.0181 -0.2873
29876W        W46350   7.372  17.797   0.900  0.0520  0.3222  0.1175
29877W        W46351   9.155  11.797  11.825  0.0551 -0.0092  0.1426
29878W        W46352   0.827  15.509  14.497 -0.0334  0.2387  0.0305
29879W        W46353   2.150  13.690   3.288 -0.2701  0.3007  0.0858
29880W        W46354  17.759   8.484  13.270  0.0600 -0.0883 -0.0739
29881W        W46355   1.430   5.657  13.961 -0.1090  0.1939 -0.1428
29882W        W46356   2.200  14.100   5.471 -0.2223  0.1436  0.1353
29883W        W46357  12.166   4.597  11.370 -0.1204 -0.0500 -0.2243
29884W        W46358  16.265  17.954   3.852  0.1297  0.2292 -0.3982
29885W        W46359  18.115   2.467  13.032  0.1923  0.0818 -0.1132
29886W        W46360   5.537   7.331   4.812 -0.0126  0.0837 -0.2456
29887W        W46361   6.090   8.606   8.683  0.1609 -0.2298 -0.3235
29888W        W46362   6.869  10.963  10.686  0.2571  0.1531  0.1483
29889W        W46363  14.140   1.745  10.854  0.0856  0.0178  0.2861
29890W        W46364  11.272   2.810  13.871  0.0071  0.2112 -0.0012
29891W        W46365  16.053   7.319   4.636 -0.0801  0.0597 -0.2313
29892W        W46366  14.978   9.818   1.978  0.3160 -0.0132 -0.0402
29893W        W46367   8.335   1.462   2.980 -0.0024 -0.2846 -0.4339
29894W        W46368  18.900   5.582   4.900 -0.0592  0.0355 -0.2372
29895W        W46369  10.828  17.142  10.955  0.3357 -0.3410  0.1864
29896W        W46370   0.540   3.599  10.090 -0.0007 -0.2223 -0.1107
29897W        W46371   5.400   0.953  11.324 -0.0483  0.2475 -0.0084
29898W        W46372  12.458  16.735  12.114  0.0722  0.2446 -0.1702
29899W        W46373  17.140   1.606  12.392  0.1124  0.2811  0.1037
29900W        W46374   7.298  18.257  13.316 -0.1315 -0.0825 -0.0747
29901W        W46375   8.759   5.613   9.838  0.0373 -0.0377  0.2841
29902W        W46376   7.072  11.529   1.996  0.0111  0.2228 -0.1528
29903W        W46377   6.436  16.250  10.794  0.1264  0.2563  0.3097
29904W        W46378  15.910  18.051  11.103  0.0435  0.2833 -0.0101
29905W        W46379  15.567  17.983   4.516  0.1138  0.0881  0.1591
29906W        W46380   8.085  12.673  11.710  0.0450  0.0095  0.3616
29907W        W46381   4.237  18.367   2.389  0.1355  0.0868 -0.1289
29908W        W46382  14.814  11.968  13.138 -0.0504 -0.0045 -0.1102
29909W        W46383  12.906   3.058  13.625  0.0073  0.1183  0.0071
29910W        W46384  17.709   9.148  13.108  0.1638 -0.1836 -0.2502
29911W        W46385  13.279  18.565  13.631  0.2426 -0.0194  0.2746
29912W        W46386   2.721  15.039   2.617  0.2131 -0.0905 -0.2197
29913W        W46387  16.477   3.600  14.618  0.2003 -0.3127  0.2696
29914W        W46388   0.158   6.258   0.847  0.2623  0.0448  0.0111
29915W        W46389  15.299   7.678   0.133  0.0909  0.2289 -0.2062
29916W        W46390  13.863  13.318  11.157 -0.2367  0.0159 -0.0148
29917W        W46391   3.508   6.817   4.471  0.1891 -0.0091 -0.0868
29918W        W46392   1.769  16.969   1.757  0.0082  0.3287 -0.0475
29919W        W46393  17.564   6.915   4.404 -0.1394 -0.1349 -0.2489
29920W        W46394   4.525  11.441   1.292  0.1895  0.1838  0.1179
29921W        W46395   8.269   0.820   2.713 -0.0834  0.0939  0.4386
29922W        W46396   4.325  14.536   2.777 -0.2148 -0.0950  0.1297
29923W        W46397  17.807  13.510   0.280 -0.0559  0.2298  0.0409
29924W        W46398   8.363  17.423   2.441 -0.2063 -0.0039 -0.0516
29925W        W46399   3.148  17.272  13.916  0.3377 -0.0574 -0.0568
29926W        W46400   3.838   0.093  11.379  0.0245  0.0302 -0.0965
29927W        W46401   1.241  15.308  11.876 -0.0387 -0.3450  0.0508
29928W        W46402  10.495   1.596  10.449  0.1165  0.0911 -0.0773
29929W        W46403   8.756   0.711   0.360 -0.1173  0.0225 -0.4825
29930W        W46404   4.509   7.763  10.027  0.1061  0.1126 -0.1567
29931W        W46405  14.235   3.543   1.403 -0.1122  0.2141  0.0636
29932W        W46406  16.439  11.069  12.159 -0.1414  0.1586 -0.0325
29933W        W46407   4.027   6.596  10.398 -0.1260  0.2144  0.1170
29934W        W46408  12.370  13.936   5.161  0.0290 -0.1553 -0.2125
29935W        W46409  17.293   7.627   4.044 -0.1467  0.0171  0.1570
29936W        W46410   5.355  10.821  10.305  0.0866  0.0583 -0.2836
29937W        W46411  10.288  14.034   1.800 -0.1900 -0.4749  0.0785
29938W        W46412   6.508   6.497   0.322 -0.1611  0.0358 -0.0392
29939W        W46413   2.404  19.011   3.147 -0.1732  0.0763  0.4294
29940W        W46414  19.110  14.319  12.999 -0.1531  0.2882 -0.0646
29941W        W46415   8.701   2.197  10.540 -0.0937  0.1658  0.2172
29942W        W46416  15.276   9.154   2.478 -0.1356 -0.3719  0.0396
29943W        W46417  15.584   5.716  14.253  0.0740 -0.1896 -0.0494
29944W        W46418   3.710  11.121  13.141 -0.1431  0.2873 -0.1697
29945W        W46419  16.101   3.711   1.529 -0.0743 -0.2016  0.1376
29946W        W46420  11.517   2.023   1.845 -0.0552 -0.3032 -0.0170
29947W        W46421  11.210  18.175   0.411  0.0498  0.0557 -0.1356
29948W        W46422  19.199  18.806  11.467  0.0259  0.1450 -0.1045
29949W        W46423   7.342  18.300   1.022  0.2131 -0.1511 -0.1158
29950W        W46424   0.357  11.217  13.632  0.1922  0.2119 -0.2552
29951W        W46425   2.220  10.751   0.180 -0.1097 -0.2044 -0.2527
29952W        W46426   7.343  15.801   5.575 -0.3541 -0.1776 -0.4826
29953W        W46427  14.621   7.808   5.130  0.1844  0.1817 -0.0354
29954W        W46428   2.316  18.383  13.274 -0.0152 -0.0598 -0.3815
29955W        W46429  11.654  13.441  11.950 -0.1160  0.1242 -0.0632
29956W        W46430  14.959  15.694  13.341  0.2902 -0.1960  0.7527
29957W        W46431   6.290   9.762   4.289 -0.0680  0.2789 -0.0040
29958W        W46432   5.193   0.365  14.298 -0.2972  0.0471 -0.2417
29959W        W46433  11.709  10.557   1.031  0.1171 -0.2236  0.1256
29960W        W46434  12.913  17.953   4.139  0.4355  0.3034 -0.2616
29961W        W46435   2.787   5.526   9.728 -0.2489 -0.0088  0.3494
29962W        W46436   3.466  15.030   0.895 -0.2693 -0.1036  0.1281
29963W        W46437  14.674   4.872   1.111 -0.0201  0.0695 -0.0295
29964W        W46438   6.630  12.924  13.410  0.1797  0.1279 -0.1171
29965W        W46439   6.031   8.332  14.049  0.1897 -0.0361  0.1167
29966W        W46440  10.409  11.354  11.062  0.1328 -0.2528 -0.2064
29967W        W46441   2.281  10.651  12.163  0.1919 -0.1351 -0.1718
29968W        W46442   9.523   1.388   5.272  0.5307 -0.0565 -0.0678
29969W        W46443   9.484  18.350   0.850  0.0419 -0.0239  0.2746
29970W        W46444   4.000  17.016  12.025  0.0913  0.3081  0.2917
29971W        W46445   9.234  11.687  13.780 -0.1557 -0.4984 -0.1654
29972W        W46446   8.262   9.092  10.380 -0.2219 -0.2078 -0.4365
29973W        W46447   5.248   0.387  11.198  0.1514 -0.0427  0.0254
29974W        W46448   0.649   7.201  14.572  0.1164  0.2194 -0.0182
29975W        W46449   0.145   0.224   3.081  0.0547 -0.0930 -0.4458
29976W        W46450   0.471  10.443   1.072  0.2796  0.0654  0.0172
29977W        W46451  12.211   9.098   2.373  0.1239  0.1952 -0.0653
29978W        W46452   5.269  17.738   5.060 -0.2531  0.1722  0.0299
29979W        W46453   6.289  18.369  11.221 -0.0441  0.1957 -0.2424
29980W        W46454   4.948   0.057  12.038  0.4087 -0.1386  0.1215
29981W        W46455  18.621  15.914  12.174 -0.1228 -0.1992  0.0344
29982W        W46456  13.627  19.464   3.483 -0.2292  0.2269  0.0613
29983W        W46457   3.897   0.739  13.699 -0.0064 -0.1521  0.3508
29984W        W46458   2.237   0.275   0.962 -0.1181 -0.0964 -0.2343
29985W        W46459   7.780   0.294  11.782  0.2325  0.1068 -0.0419
29986W        W46460  18.460   1.712   1.448 -0.0564  0.1273  0.1440
29987W        W46461  13.354   4.218  12.170 -0.0259 -0.1077  0.2208
29988W        W46462  14.853   5.296  13.647 -0.0563  0.3662  0.1285
29989W        W46463  19.151   1.209   0.887  0.0104  0.0871  0.0587
29990W        W46464  17.428  15.039   3.053 -0.3859  0.0340 -0.0714
29991W        W46465  11.740   6.682  14.598  0.3616  0.1103 -0.0113
29992W        W46466   6.189  13.707   4.487  0.0669  0.1025  0.0393
29993W        W46467  17.565   1.235   2.196 -0.3873  0.2950 -0.0009
29994W        W46468   5.979   6.655   2.266 -0.1399 -0.2770 -0.2264
29995W        W46469  13.236  18.087   0.402  0.1165 -0.0019  0.1757
29996W        W46470  16.588   7.451   2.809 -0.2136  0.2301  0.2313
29997W        W46471   4.783  15.568  14.200 -0.0861 -0.0295  0.1111
29998W        W46472  12.482  19.289  14.660  0.0527 -0.1122 -0.0674
29999W        W46473  12.053  16.575  14.224 -0.2263  0.1669  0.0052
30000W        W46474   0.065   6.342   5.248  0.2094  0.1192 -0.0991
30001W        W46475   6.851  14.470   5.114 -0.2571  0.2422 -0.2422
30002W        W46476  14.912  18.316   9.963 -0.0212  0.2906  0.3735
30003W        W46477   1.027   4.567   0.627 -0.1042 -0.0672 -0.0204
30004W        W46478   1.361   8.782   3.339 -0.2288 -0.4422 -0.2406
30005W        W46479   1.899  12.440   1.858  0.0853 -0.1113  0.1771
30006W        W46480  11.073   5.111   2.194 -0.0160 -0.2645  0.0267
30007W        W46481  15.978  18.529  10.888  0.0524  0.2231  0.1887
30008W        W46482   5.225   3.875  10.456  0.0402  0.0238  0.0083
30009W        W46483   4.025  10.312  13.709  0.1502 -0.1179 -0.0258
30010W        W46484  10.251  10.626   2.903 -0.2149 -0.0545 -0.1996
30011W        W46485  18.195   1.436  13.984 -0.2302 -0.1107 -0.2561
30012W        W46486  18.044  17.812  13.405  0.2044  0.0765  0.2339
30013W        W46487  14.125  10.337   0.156 -0.0949 -0.3496 -0.7092
30014W        W46488   6.500  16.838  12.647 -0.0807  0.0519 -0.0900
30015W        W46489   6.813   4.005   4.048 -0.0086  0.1426  0.1232
30016W        W46490   3.638  16.719  12.939 -0.3359 -0.0172 -0.0348
30017W        W46491  12.382   6.831   2.679  0.1604 -0.1362 -0.1647
30018W        W46492  18.155   2.032  10.779  0.2885 -0.1869  0.0798
30019W        W46493  19.600  17.846   4.968  0.2201 -0.0071  0.0235
30020W        W46494  14.029  15.620   1.866 -0.0837 -0.0295  0.0558
30021W        W46495  17.306   2.584  10.438 -0.0282  0.1823  0.1798
30022W        W46496   2.984  14.961   4.276  0.1215 -0.0753  0.1983
30023W        W46497   9.571   4.681  12.739 -0.3713 -0.2850  0.1471
30024W        W46498   2.282   7.291   4.087 -0.0839  0.1107  0.5303
30025W        W46499  17.148   0.834   4.167  0.3146  0.0123  0.1151
30026W        W46500   4.941   4.769  14.667 -0.2176  0.0153  0.3213
30027W        W46501   3.670   7.421   3.773 -0.0231 -0.0341  0.0375
30028W        W46502   5.360  10.250  11.761  0.2907 -0.1922 -0.2903
30029W        W46503  14.444  19.008   2.043  0.2095 -0.0005 -0.0132
30030W        W46504  15.619   4.108   0.221 -0.5069  0.5571  0.3084
30031W        W46505  15.975  14.244   1.086  0.2496  0.1433  0.2328
30032W        W46506   4.642  11.455  11.968 -0.3219 -0.1805  0.1131
30033W        W46507   5.868   9.815  11.916 -0.0499  0.1366  0.0125
30034W        W46508  11.914  15.018   3.774 -0.1311  0.0294  0.0064
30035W        W46509   9.950   1.711  12.118 -0.0358  0.6872 -0.1130
30036W        W46510  10.789  13.493   0.958 -0.3185 -0.4708 -0.0999
30037W        W46511   1.147  10.706   4.382 -0.0405  0.2400  0.0107
30038W        W46512  16.409   8.578   2.115 -0.2659 -0.0964  0.0696
30039W        W46513   0.357   4.252  10.221  0.2944 -0.0105  0.0247
30040W        W46514  14.641   4.701  12.353  0.1194  0.1439  0.0636
30041W        W46515  17.491   8.990  10.440  0.0453  0.0769  0.1526
30042W        W46516  13.283   9.843  13.429  0.1127 -0.1564  0.3143
30043W        W46517  18.623   8.713   3.955  0.3892 -0.0260 -0.0995
30044W        W46518   5.520  12.514  13.792 -0.1344 -0.2875 -0.2143
30045W        W46519  13.712   4.501  13.553 -0.2060 -0.1761  0.0557
30046W        W46520   4.968   2.123  12.807  0.0629  0.1629  0.0233
30047W        W46521   0.233  18.489  10.952 -0.3421  0.1113 -0.4578
30048W        W46522   7.246   6.649   2.901 -0.1028  0.0209 -0.0211
30049W        W46523  18.369   9.010  11.857 -0.2575 -0.0055  0.1940
30050W        W46524  15.135  17.837  12.561 -0.1379  0.0495  0.1588
30051W        W46525   0.763  12.571   1.152  0.1629  0.1370  0.2404
30052W        W46526   9.788   9.890  11.776  0.0148  0.1644  0.2825
30053W        W46527   7.712   7.623  10.696  0.1997  0.3442 -0.1483
30054W        W46528   8.300  12.990   4.075  0.0031  0.1469 -0.0454
30055W        W46529   0.923   4.204   1.044  0.0839  0.3237  0.2341
30056W        W46530  13.283   4.418  14.510 -0.0285  0.2636  0.2523
30057W        W46531  13.829   4.915  14.460 -0.0466  0.1149 -0.0374
30058W        W46532  17.441  11.657   0.128  0.2329  0.3372  0.0023
30059W        W46533  16.666  14.252   1.192 -0.2069  0.0594  0.4454
30060W        W46534   0.288  10.292   3.482  0.0421  0.1803 -0.2686
30061W        W46535   0.279  16.725   5.108 -0.0281  0.3515 -0.1218
30062W        W46536  10.458   8.404  13.487 -0.0166  0.0553  0.2612
30063W        W46537  12.328  16.853  11.623  0.0660  0.1539 -0.1534
30064W        W46538   7.143   5.344   4.640 -0.2239  0.1104 -0.0918
30065W        W46539   1.386   1.512   2.783  0.0221 -0.0612  0.1557
30066W        W46540  12.904   5.557   4.380 -0.0813 -0.2666  0.1903
30067W        W46541   0.796  16.850   0.256 -0.4610  0.0924 -0.1243
30068W        W46542  19.009  17.266   1.248 -0.1399  0.0568  0.1073
30069W        W46543  16.099   0.225   0.467 -0.0414 -0.0804  0.0747
30070W        W46544   6.851  16.836   3.613  0.0693  0.1055  0.0540
30071W        W46545  14.486  11.211   1.344 -0.1330  0.0034  0.2962
30072W        W46546   9.891   3.450  11.440  0.2106 -0.1368  0.0286
30073W        W46547  11.315   1.591   3.280 -0.3461  0.1148  0.1786
30074W        W46548   8.789   5.432   2.045  0.0616  0.2670  0.0762
30075W        W46549  16.138  14.303  11.458 -0.0580 -0.0613  0.3520
30076W        W46550   5.101   9.535   0.331 -0.2050 -0.1921 -0.0352
30077W        W46551   4.698  17.241  12.661  0.0733  0.1909 -0.0479
30078W        W46552   1.019  10.921   3.323 -0.1823  0.0557  0.0586
30079W        W46553  17.804   6.967   0.867 -0.1114 -0.0498 -0.2156
30080W        W46554  13.517  12.789  11.812 -0.1653 -0.1349  0.2165
30081W        W46555   1.960   2.174  12.599 -0.1501  0.1573  0.0643
30082W        W46556   7.163  18.323   9.296  0.1168 -0.0856 -0.1528
30083W        W46557  18.406  19.023   0.336 -0.0230 -0.0414  0.2803
30084W        W46558  15.187   7.962  14.402  0.1348 -0.0482 -0.1748
30085W        W46559  12.153  12.474   1.947  0.0158 -0.3063 -0.0696
30086W        W46560   5.588   8.234   3.454  0.0671 -0.0480  0.3634
30087W        W46561  17.917  17.729   2.535 -0.0974  0.1919  0.2102
30088W        W46562   8.706   0.902  11.541 -0.2827 -0.5911  0.5398
30089W        W46563  16.649  11.238  11.295  0.1508  0.1753 -0.0919
30090W        W46564  11.607  10.699   2.792  0.5900  0.0727  0.3777
30091W        W46565   6.418  15.452   1.056  0.1430  0.2092 -0.0247
30092W        W46566   8.186   0.873  13.250  0.1831 -0.2871  0.2844
30093W        W46567  14.768   5.386   2.716  0.2407  0.2317  0.0575
30094W        W46568   3.573  11.288  11.311 -0.0455 -0.0938  0.0361
30095W        W46569  11.764   0.684  13.910  0.0127 -0.1023  0.4132
30096W        W46570   3.539   0.515   0.577 -0.2678  0.1875  0.1479
30097W        W46571   9.609  19.437   0.563 -0.1108  0.2231  0.1773
30098W        W46572   7.639   9.498   5.057 -0.0967  0.2118  0.0396
30099W        W46573  18.032  14.344   4.494 -0.3062  0.1565  0.0222
30100W        W46574  12.017  15.471  11.755 -0.3067  0.1236  0.1327
30101W        W46575  18.938  18.957  11.866  0.2161 -0.0467 -0.1675
30102W        W46576   0.716  18.551   3.413 -0.0247  0.0449 -0.0144
30103W        W46577  12.827  13.064  11.544 -0.4294 -0.0243 -0.3498
30104W        W46578   8.364  18.858  12.250 -0.1425 -0.0234  0.0040
30105W        W46579   6.710   6.512  14.154 -0.0418 -0.0319 -0.1022
30106W        W46580   7.302  16.955  14.333 -0.1700 -0.0354  0.0071
30107W        W46581   1.754  14.087   3.155  0.1010  0.0912  0.2176
30108W        W46582  18.652   8.209   2.785  0.0569 -0.2566  0.3616
30109W        W46583   4.183  16.664  11.202  0.0952 -0.2008  0.3567
30110W        W46584   6.527  13.086   3.839  0.1953 -0.0541 -0.0380
30111W        W46585  10.151  10.928  14.441 -0.2986 -0.1768  0.3565
30112W        W46586   0.633   2.664  10.075 -0.0922  0.1847  0.2749
30113W        W46587  13.083  12.412  14.088 -0.1110 -0.0181  0.2944
30114W        W46588  17.349  15.806  11.599 -0.1866 -0.0331 -0.2530
30115W        W46589   7.922   3.974  13.199  0.2349  0.0169  0.0583
30116W        W46590  10.602   6.821   3.849  0.2306  0.1242  0.1805
30117W        W46591   4.716   1.119   0.011 -0.0672 -0.0814 -0.1506
30118W        W46592  17.830  17.041  14.008 -0.0400 -0.1237 -0.3617
30119W        W46593  17.344   7.592  13.586 -0.0100 -0.0134 -0.1022
30120W        W46594  11.335   7.570  10.764  0.1798  0.2824 -0.0405
30121W        W46595  14.542  18.268   3.931 -0.0907  0.2374 -0.2276
30122W        W46596   6.997   0.060  13.361  0.3003  0.0253 -0.0454
30123W        W46597   5.461   8.626  11.327  0.0432 -0.0289 -0.0784
30124W        W46598   9.909  18.253   0.587 -0.4433  0.1472 -0.2734
30125W        W46599  19.008   6.732   2.209  0.0964 -0.0970 -0.1116
30126W        W46600  19.615  14.966  11.645  0.1172 -0.2273 -0.1412
30127W        W46601   8.543  18.043  14.140 -0.4970  0.0694  0.1644
30128W        W46602   8.830  15.079   0.502 -0.0889  0.0849  0.1480
30129W        W46603   5.736  15.337   3.607  0.1391 -0.1182 -0.1238
30130W        W46604   7.628  16.389   9.907  0.0084 -0.2790  0.2025
30131W        W46605   3.869   5.657  13.803  0.0151  0.0300 -0.1583
30132W        W46606  11.392  16.529  13.801 -0.0023  0.0082  0.0406
30133W        W46607   8.766   4.619   3.879  0.1869 -0.0400 -0.0945
30134W        W46608   1.539   4.712  13.937 -0.2653  0.3405  0.2196
30135W        W46609   1.875   3.110   5.171 -0.0013  0.1060 -0.1913
30136W        W46610   3.445   3.947  10.397 -0.3052  0.3700  0.1327
30137W        W46611   0.042  16.389  12.264  0.0476  0.0761 -0.1384
30138W        W46612   8.872   7.552   0.573 -0.0709 -0.2969 -0.0094
30139W        W46613  11.126   2.287   4.491  0.1200 -0.2413  0.3203
30140W        W46614  17.799   5.192  10.130  0.0622  0.1831  0.0027
30141W        W46615  15.446  10.667  10.899  0.1225 -0.0507  0.0564
30142W        W46616  14.285  11.479  10.504 -0.2795 -0.1115  0.2066
30143W        W46617   8.681   2.673   5.337  0.1046 -0.0921 -0.1067
30144W        W46618   9.159  16.279  14.500 -0.1310 -0.0948 -0.0952
30145W        W46619  19.026  12.322   3.367 -0.0155 -0.1892 -0.2630
30146W        W46620  17.019  17.503  14.348 -0.0678 -0.0552 -0.2069
30147W        W46621  11.508  19.041   2.147  0.0589 -0.0787 -0.0888
30148W        W46622   0.741   7.446  11.786  0.2414 -0.0363  0.0020
30149W        W46623  11.768  13.633   1.004  0.1520  0.0396  0.0119
30150W        W46624  12.678  14.965   1.274  0.1886  0.0275  0.0896
30151W        W46625   8.044   7.118   2.706  0.1798  0.3602  0.0202
30152W        W46626   9.542  10.406  13.891 -0.0822 -0.2134 -0.0288
30153W        W46627   5.742  15.863  11.438  0.1780  0.1744  0.1906
30154W        W46628  11.850  12.429  12.733 -0.1416  0.2350  0.0674
30155W        W46629  14.825   7.793   0.181  0.0180  0.2401 -0.4348
30156W        W46630  15.629   4.013   2.517 -0.1733  0.0715 -0.0143
30157W        W46631   5.418  14.416   1.639 -0.1505 -0.2135  0.1338
30158W        W46632   0.571   3.886   0.015 -0.4353  0.0869  0.0499
30159W        W46633  13.043   4.381   3.522  0.1180  0.2041 -0.1769
30160W        W46634  16.291   2.556   0.835 -0.0996 -0.2127 -0.0125
30161W        W46635   1.979   5.885  11.028  0.1244  0.0824 -0.1258
30162W        W46636   6.343   1.133   3.180 -0.5247 -0.0181 -0.1797
30163W        W46637  10.216  17.978   3.179 -0.2097 -0.0332 -0.0204
30164W        W46638   7.037   4.582  10.768 -0.4370 -0.4529  0.1274
30165W        W46639   9.849   1.671   4.340 -0.1136 -0.3613 -0.3336
30166W        W46640   1.138   7.639  13.288 -0.0244 -0.2495 -0.3038
30167W        W46641   8.962   7.743  11.667 -0.0914  0.2042  0.0238
30168W        W46642   6.097  18.360   9.978 -0.1921  0.0941  0.2774
30169W        W46643   8.142   8.782  14.332  0.1068 -0.0652 -0.1265
30170W        W46644   6.394  10.599  12.678 -0.1429 -0.0594  0.2807
30171W        W46645   3.425  18.962   2.627 -0.0853  0.0829  0.0371
30172W        W46646   6.583   7.168  12.052 -0.3208 -0.1834  0.3910
30173W        W46647   4.822   6.549  11.978 -0.1733 -0.3240 -0.0797
30174W        W46648   9.277  18.174   1.263 -0.2330  0.4206  0.1021
30175W        W46649   4.214  16.373   0.526 -0.2893  0.2605  0.0126
30176W        W46650  14.172   5.814  10.273  0.0997  0.0134 -0.1469
30177W        W46651  15.939   8.806   0.364 -0.2742 -0.0787  0.1473
30178W        W46652  12.069   5.308   4.525  0.0832  0.2148  0.2668
30179W        W46653   8.581  10.774   4.135 -0.0212  0.0856 -0.1805
30180W        W46654   1.387  19.540   2.534 -0.0932 -0.2288  0.0663
30181W        W46655  19.388   6.522  11.427 -0.1683 -0.2685  0.0782
30182W        W46656  14.063  10.247  10.698  0.0770  0.0284  0.3070
30183W        W46657   4.564  18.482  11.409 -0.0286  0.1249 -0.0801
30184W        W46658   9.993   2.766   3.481  0.1640  0.1142  0.1100
30185W        W46659  16.067   1.662  10.986  0.1084 -0.2999 -0.1062
30186W        W46660   6.251   2.891   1.724 -0.3878 -0.1247  0.3523
30187W        W46661   1.688   6.913  11.711  0.2821  0.0338 -0.1572
30188W        W46662  16.995   9.244  11.978  0.0425 -0.2103 -0.2026
30189W        W46663   6.266  11.185   0.299 -0.2605  0.2207 -0.0828
30190W        W46664  17.663   2.485  11.498 -0.0080  0.1437 -0.1360
30191W        W46665  18.124   6.901  11.415  0.2494  0.2953 -0.6114
30192W        W46666  14.622  11.775   1.679  0.0841 -0.3731  0.3038
30193W        W46667   5.921   5.271  13.349 -0.2907 -0.3443 -0.0735
30194W        W46668  10.902   5.222   0.985 -0.3130  0.0438  0.1325
30195W        W46669  12.378   0.005   0.279  0.0577  0.1128 -0.1387
30196W        W46670  19.364  14.484   4.413 -0.1025 -0.1101  0.1233
30197W        W46671   7.011   6.302   0.519  0.2324 -0.0828 -0.0001
30198W        W46672   5.941   3.140  10.452  0.0472  0.5771 -0.1502
30199W        W46673   3.612  15.866   3.410  0.0394  0.0103 -0.3211
30200W        W46674   8.505  17.012  10.045 -0.1282 -0.0509  0.0493
30201W        W46675  10.097   5.301  12.321 -0.0018  0.1859  0.1649
30202W        W46676   9.275  12.872  10.511 -0.0492 -0.1948  0.1580
30203W        W46677  13.383  11.241   2.968 -0.1692 -0.4005 -0.2447
30204W        W46678  16.321  14.955  12.093  0.2402  0.0656  0.2358
30205W        W46679  10.605  10.149   4.413 -0.2017 -0.0547 -0.1715
30206W        W46680  16.002  11.688  10.724 -0.2333 -0.0163 -0.0422
30207W        W46681   9.854  12.720  14.412 -0.1381  0.0382  0.0048
30208W        W46682  19.528  15.810   0.831 -0.0800 -0.0170 -0.0095
30209W        W46683   1.226   3.021   4.544 -0.2160  0.3041  0.1450
30210W        W46684  10.768   0.677  12.050  0.1402 -0.2880 -0.0986
30211W        W46685  12.497  10.722   2.809  0.0544  0.1673 -0.2982
30212W        W46686  12.378  10.385   3.560  0.2591 -0.2049 -0.2211
30213W        W46687  14.384   1.501   2.265 -0.1985 -0.0686 -0.0379
30214W        W46688  15.334   0.374   1.159 -0.4242 -0.0971  0.4443
30215W        W46689  15.859   9.321   2.532  0.2030  0.0306 -0.2082
30216W        W46690   7.769   4.356  12.948 -0.1066 -0.0610 -0.1436
30217W        W46691  12.530  11.987   3.839  0.0464  0.3162  0.1052
30218W        W46692   6.837  17.905  10.685 -0.0067 -0.0343  0.0840
30219W        W46693   8.202   0.619   0.828  0.0207  0.0502  0.2237
30220W        W46694   5.175  11.769  12.604  0.0371  0.1323  0.1288
30221W        W46695   5.818   1.074   9.084 -0.1787  0.1541  0.3662
30222W        W46696  15.498  17.696  10.212  0.1703 -0.2069  0.0067
30223W        W46697   3.529  16.793  11.915  0.0956  0.1447  0.0646
30224W        W46698  17.552  14.898  14.076  0.2688  0.4317 -0.1181
30225W        W46699  18.516  14.212   4.262 -0.0811 -0.0918 -0.0841
30226W        W46700   2.512   3.635  10.669 -0.0608 -0.0182 -0.1828
30227W        W46701   7.532   9.988   4.474 -0.0029  0.1309  0.0041
30228W        W46702   4.381   0.853   4.557  0.1181  0.1260 -0.0668
30229W        W46703  12.912  17.289   9.431 -0.3645 -0.1947 -0.0688
30230W        W46704   9.756   2.189  13.601  0.0871  0.1350 -0.0564
30231W        W46705  16.623  11.159  14.548 -0.1343  0.0628  0.1479
30232W        W46706   2.747  11.653   3.833 -0.0985  0.0040 -0.1754
30233W        W46707   3.168   2.408   2.991  0.1114  0.2801  0.2128
30234W        W46708   8.173   3.514   2.545 -0.0049 -0.1157 -0.2777
30235W        W46709  17.258   6.894   0.658  0.0500 -0.1229  0.3430
30236W        W46710   9.809  15.705   3.531  0.1014  0.1177 -0.1498
30237W        W46711   8.147  11.915   4.607  0.2328 -0.2079  0.0775
30238W        W46712   0.677  18.074  10.723  0.2292  0.0523 -0.4087
30239W        W46713  18.133  15.189   2.103 -0.1268 -0.4207  0.1428
30240W        W46714  13.744   0.752   5.057 -0.0941 -0.1549 -0.1008
30241W        W46715   2.721   8.471   1.296 -0.0414 -0.0656  0.0733
30242W        W46716   2.611  18.165  11.159 -0.2453 -0.2615 -0.1084
30243W        W46717  18.414   3.313   3.136 -0.1205 -0.1104 -0.1486
30244W        W46718   1.269  18.548  11.876 -0.1242 -0.0361 -0.0628
30245W        W46719   4.667  10.570  13.755  0.1121  0.0508 -0.0642
30246W        W46720  17.269   6.847  13.888  0.1217 -0.0984 -0.3415
30247W        W46721  10.526   1.026  13.742  0.1386  0.1016 -0.1943
30248W        W46722  18.094  16.325  14.617 -0.1074  0.4538  0.2082
30249W        W46723   3.733   9.060   1.906 -0.3625  0.2824  0.0953
30250W        W46724  18.638  18.586  11.758  0.0221  0.0070 -0.0704
30251W        W46725  15.320  18.234   4.174  0.1924 -0.2307  0.0284
30252W        W46726   9.614  18.508   1.981  0.1560 -0.0044 -0.1320
30253W        W46727   3.846  12.513  13.394  0.2231  0.1449  0.0233
30254W        W46728  16.077   5.607   4.966 -0.0188 -0.0745 -0.0845
30255W        W46729   7.996   4.749   0.497  0.3125 -0.1851  0.1007
30256W        W46730   0.463   5.716   1.407 -0.1979  0.4989 -0.1579
30257W        W46731   5.256  15.762  11.624  0.0724  0.2402  0.2822
30258W        W46732  16.309  16.636  13.430  0.4665  0.2516  0.1430
30259W        W46733  16.676  10.983   2.295  0.0692  0.2326 -0.1025
30260W        W46734   0.681   7.335  13.506 -0.2983  0.0688 -0.0645
30261W        W46735  18.146  14.270  12.346  0.0318  0.0224 -0.1918
30262W        W46736   6.735   2.642  10.351  0.2145  0.0423  0.1675
30263W        W46737   0.336   5.236  12.358  0.2638  0.1952 -0.2138
30264W        W46738   8.792  15.546   0.384  0.0714  0.0997 -0.3149
30265W        W46739  15.764  11.517   5.249  0.3660 -0.0349  0.1875
30266W        W46740   3.026   0.497  12.084 -0.1229 -0.0912  0.1482
30267W        W46741  19.101  14.339  12.013  0.1470  0.4493 -0.0327
30268W        W46742  17.367  11.820   1.635 -0.0699  0.1509 -0.3096
30269W        W46743   9.634   0.341   2.144 -0.0254  0.1941  0.2252
30270W        W46744   6.404  16.126  13.476 -0.1577 -0.1938 -0.1827
30271W        W46745   0.292  16.434   0.287 -0.1174 -0.2021 -0.0714
30272W        W46746   4.545   8.435   2.335 -0.0453 -0.0204 -0.0522
30273W        W46747   4.844   2.471  10.475  0.1793 -0.2013 -0.0175
30274W        W46748   4.628   2.089   0.622 -0.1821 -0.2712 -0.0626
30275W        W46749  11.061   4.319   9.930 -0.3038 -0.4052 -0.1575
30276W        W46750   8.217   7.698  10.256  0.1049 -0.1579  0.1466
30277W        W46751   6.170  18.080  12.094 -0.0187 -0.2669  0.2213
30278W        W46752  17.899  16.803  13.524 -0.3046 -0.0975  0.1746
30279W        W46753   1.729  12.517   0.443  0.0804 -0.2353  0.0448
30280W        W46754   3.802  14.069  13.817 -0.0610 -0.1873 -0.0032
30281W        W46755  13.268  14.330   2.139  0.0850 -0.2041 -0.0813
30282W        W46756   0.672  12.333   2.165 -0.1689  0.0873  0.0727
30283W        W46757  11.315  15.801  12.269 -0.1058  0.1483  0.2941
30284W        W46758   2.084   4.641   9.718 -0.0013 -0.2078  0.1295
30285W        W46759  15.758   4.729   4.668  0.1385  0.0878 -0.1189
30286W        W46760   7.336   9.968   3.051 -0.0516  0.1883  0.0909
30287W        W46761  10.575   8.078  10.721 -0.1761 -0.0560  0.3806
30288W        W46762  11.114  17.250   3.953 -0.0602  0.2666  0.0764
30289W        W46763   4.070   4.936  10.817  0.1174  0.1311  0.0633
30290W        W46764   2.069  16.270   0.551  0.1137 -0.3572 -0.1290
30291W        W46765   3.153  16.629   3.789 -0.0537  0.1667 -0.2424
30292W        W46766  11.915   5.267  10.670  0.2950 -0.1413 -0.1650
30293W        W46767   5.004   2.659   3.089 -0.1170 -0.0008 -0.1480
30294W        W46768  17.768   4.926   4.953  0.1981  0.5081 -0.1972
30295W        W46769   3.414   5.514   4.360  0.0059  0.0470  0.5175
30296W        W46770  12.501  11.384  10.959  0.2802  0.3487 -0.0824
30297W        W46771  14.200   9.277   1.744  0.3094 -0.0960 -0.4057
30298W        W46772   6.257   7.073  13.849 -0.1152  0.1519 -0.2872
30299W        W46773   3.888   7.811  13.258 -0.1886  0.2323  0.1307
30300W        W46774   1.347   9.560   3.868  0.1563 -0.0545  0.0425
30301W        W46775   9.536  12.982   0.925 -0.4348  0.0780  0.0203
30302W        W46776  15.336  11.465   0.259  0.0868 -0.0175 -0.0043
30303W        W46777   0.866  18.483   3.948  0.1064 -0.2705  0.0227
30304W        W46778   4.970  12.590   5.928 -0.0583 -0.1127  0.1463
30305W        W46779   2.566   9.621  11.032  0.0598  0.0632  0.2306
30306W        W46780   5.982   4.950   3.201  0.0420  0.4661  0.0430
30307W        W46781  17.317  10.591  12.896 -0.0797 -0.3731  0.1343
30308W        W46782   5.857   7.594  10.459  0.0407 -0.1053 -0.1997
30309W        W46783  13.399  12.661  14.585  0.1673 -0.1501  0.0560
30310W        W46784  14.122   2.236   2.739 -0.2437  0.3522  0.0997
30311W        W46785   1.560   3.128  12.252 -0.1392 -0.2019 -0.2068
30312W        W46786   3.336   1.835  11.043  0.1214  0.1624 -0.3756
30313W        W46787   0.320   4.912   2.953  0.2347  0.3751  0.1874
30314W        W46788   8.710   3.554   1.229 -0.0849 -0.0325  0.3146
30315W        W46789  15.742  14.355   9.434  0.1848 -0.1203  0.0754
30316W        W46790  13.288   3.610  12.060 -0.2424  0.0947 -0.3108
30317W        W46791   5.643   5.764  10.156 -0.2614 -0.0891  0.3371
30318W        W46792   3.443   8.175   3.080 -0.0079  0.1740  0.3940
30319W        W46793  11.016   7.385   0.696  0.1092 -0.0211  0.1187
30320W        W46794   9.484  15.699  14.557 -0.0263 -0.1035 -0.1972
30321W        W46795   1.086   3.563   0.683  0.0056 -0.0637 -0.3534
30322W        W46796  16.165   7.483  12.930  0.0794 -0.2935 -0.3988
30323W        W46797   3.599  10.061  13.946 -0.1788  0.1025 -0.1055
30324W        W46798   8.537  12.454   3.651  0.1077 -0.1515 -0.1308
30325W        W46799  11.465   5.758   1.678 -0.0830 -0.1139  0.2874
30326W        W46800  12.773  10.272  11.333 -0.0386  0.0908 -0.0747
30327W        W46801   5.140  15.387   4.506  0.1835  0.1872 -0.1047
30328W        W46802   4.631  17.002  13.878  0.1252  0.2422 -0.1608
30329W        W46803  15.394  18.176  10.206  0.0157  0.1139 -0.3089
30330W        W46804  13.733  11.117  12.934 -0.0315 -0.0343 -0.1390
30331W        W46805   4.817   1.734   0.979 -0.3982 -0.0108  0.1982
30332W        W46806  11.787   2.258   2.232  0.2003  0.2600  0.0648
30333W        W46807  18.648  12.470   9.805  0.0135 -0.1171 -0.0071
30334W        W46808   6.430  17.584   0.088 -0.2464 -0.0214  0.2354
30335W        W46809  12.078   0.530  10.499  0.0960 -0.1455  0.0020
30336W        W46810  17.248   0.420  13.412  0.0799 -0.2045 -0.0119
30337W        W46811  19.619  11.114  11.144  0.3386  0.2919 -0.1324
30338W        W46812  16.476   2.034   3.999  0.1319  0.3747 -0.0212
30339W        W46813   4.932   7.304   2.787 -0.0246 -0.3445  0.0998
30340W        W46814  13.678   0.426  10.230 -0.3899 -0.0120  0.2027
30341W        W46815   8.775  10.956  12.627 -0.0526  0.2383  0.0583
30342W        W46816   1.467  18.038  14.365  0.1115  0.0375  0.1880
30343W        W46817  17.125   4.932   0.754 -0.0431  0.0780  0.0093
30344W        W46818  12.430   8.304  11.447 -0.1422 -0.2892 -0.4424
30345W        W46819  16.036   1.793  11.666  0.0463 -0.0232  0.4572
30346W        W46820   6.726  18.115  11.221 -0.1140  0.2302  0.1884
30347W        W46821   4.279   5.891   1.260 -0.0178  0.2014  0.0850
30348W        W46822  15.519   1.321   0.264 -0.1708  0.0015 -0.3490
30349W        W46823  19.410  13.625   1.620  0.1417  0.1694  0.5573
30350W        W46824  13.201   9.852   2.683  0.3358 -0.3701  0.2914
30351W        W46825  16.973  19.073   0.037 -0.1187 -0.2135 -0.1851
30352W        W46826  11.759   0.177   4.090  0.2698  0.0592 -0.0116
30353W        W46827   0.311  11.950  12.538  0.3695 -0.0088 -0.1805
30354W        W46828   3.551   7.103  12.378  0.2501  0.0462 -0.1758
30355W        W46829   3.129   5.729   3.322 -0.0151 -0.2849  0.0696
30356W        W46830   1.199  18.498   2.368 -0.2442 -0.0137 -0.1071
30357W        W46831   1.404   5.158   4.096  0.0639  0.0010 -0.1468
30358W        W46832  10.988  17.263  11.754 -0.2039 -0.1329 -0.4514
30359W        W46833  10.832   9.869  14.622  0.1903  0.2152  0.1414
30360W        W46834   6.947   7.214  11.711  0.0553 -0.1113 -0.2047
30361W        W46835   3.346  14.434   1.230 -0.0301  0.0993 -0.1435
30362W        W46836   1.047  17.079   9.069  0.0494 -0.0336  0.1729
30363W        W46837  14.186  12.850   4.865 -0.0959 -0.0828 -0.3573
30364W        W46838   6.765  15.325   4.087 -0.2526 -0.0354  0.2226
30365W        W46839   7.483   6.869  12.387 -0.0464  0.1980  0.2811
30366W        W46840   0.544  15.361   0.342  0.3016 -0.1265 -0.0389
30367W        W46841   7.697   3.562   3.513  0.0123  0.0286 -0.0631
30368W        W46842   2.685  13.446   1.413  0.1187  0.1725 -0.1832
30369W        W46843   1.898  18.685   4.326  0.2417  0.0641  0.1094
30370W        W46844   8.797   9.678   4.417  0.0664 -0.0265 -0.3670
30371W        W46845  19.256   6.045   1.951  0.1307 -0.0214 -0.1153
30372W        W46846   4.082  11.450   4.634  0.1256 -0.5396  0.0409
30373W        W46847   4.661   2.174   3.859  0.3834  0.2245 -0.1784
30374W        W46848   0.961   3.729   2.919 -0.1195  0.0941  0.3773
30375W        W46849   1.350  11.771   3.190  0.2594 -0.0745 -0.0622
30376W        W46850   6.757   5.371  11.147  0.2127 -0.2418  0.0106
30377W        W46851   8.483   8.537   2.810 -0.4514  0.2667  0.2372
30378W        W46852   1.492  13.276   0.998 -0.0965 -0.0194 -0.2559
30379W        W46853   7.143  10.892   2.804 -0.1497  0.1710  0.0310
30380W        W46854  12.359   3.190   2.446 -0.0248 -0.1910 -0.3384
30381W        W46855  15.454   3.787  11.464  0.0740 -0.3155  0.1767
30382W        W46856  14.339  15.254   0.155  0.1915  0.0481 -0.5544
30383W        W46857  13.447  14.362  10.816  0.1405 -0.1154  0.0573
30384W        W46858   8.976   7.221   3.091 -0.1071 -0.0272  0.2010
30385W        W46859  14.172   7.271   2.317 -0.1413 -0.1981 -0.1096
30386W        W46860  12.827   4.565  10.148  0.4134  0.0057  0.1524
30387W        W46861  16.143   4.948  10.482  0.1929  0.0533 -0.2568
30388W        W46862   5.269  18.069   4.612  0.2207 -0.0399  0.0771
30389W        W46863  13.067  16.492   1.433  0.1904  0.0880 -0.0417
30390W        W46864  18.234  18.121  13.810  0.3334  0.1267  0.2495
30391W        W46865   2.756  11.171  13.420 -0.1584  0.0106 -0.2479
30392W        W46866  10.046  14.973  14.426 -0.1043 -0.1854 -0.1335
30393W        W46867   5.857   6.484   4.262  0.1133  0.1729 -0.2705
30394W        W46868  10.005   9.513   3.574  0.0039  0.2475 -0.3125
30395W        W46869  12.184   5.042   2.655  0.1390 -0.0572  0.0018
30396W        W46870   8.437  15.874   1.306 -0.3309 -0.3072  0.3562
30397W        W46871   9.247  10.608   3.929 -0.1003  0.1382  0.1006
30398W        W46872  11.598  18.007   0.689 -0.3705 -0.1350 -0.1762
30399W        W46873  14.753   1.694   1.914  0.4745  0.1435  0.1398
30400W        W46874   3.363   5.738  12.904  0.2356  0.0049 -0.2029
30401W        W46875   2.315   9.307   0.869  0.1010 -0.1985  0.0945
30402W        W46876  12.260  14.324   4.402 -0.1973 -0.2579  0.1183
30403W        W46877  17.675  14.518  10.549  0.1594  0.0044  0.2116
30404W        W46878  10.676   5.827   1.507 -0.2128 -0.0724  0.2060
30405W        W46879  19.134  18.043   2.942 -0.2809  0.1875  0.3781
30406W        W46880   2.121   2.101  13.600 -0.0924 -0.3113 -0.1780
30407W        W46881  12.115  11.995  12.639  0.1417 -0.2759  0.2548
30408W        W46882  14.080  13.462   4.125 -0.2017  0.0179  0.0116
30409W        W46883   4.667  19.621  11.600 -0.2574 -0.1573 -0.3328
30410W        W46884   8.690   1.542   0.088 -0.0433 -0.0134  0.2066
30411W        W46885  15.431   2.574  11.433 -0.1582  0.1218 -0.2024
30412W        W46886   3.060  13.366   3.035 -0.3438 -0.1651 -0.3677
30413W        W46887  14.098   6.314  11.203 -0.0689  0.2444 -0.1307
30414W        W46888  12.667  10.680   3.838  0.0882 -0.1156  0.2100
30415W        W46889  11.301  12.759  13.754 -0.3416  0.1063 -0.1151
30416W        W46890   5.826   2.569   1.560 -0.1043  0.0821  0.0937
30417W        W46891  13.146  14.000   1.769  0.1066  0.3071  0.2396
30418W        W46892   6.009  14.643   1.511  0.1582 -0.1980 -0.1974
30419W        W46893  16.366  11.547   4.095  0.2491  0.0539 -0.0381
30420W        W46894  14.562  16.038  12.735 -0.0782 -0.0888 -0.1580
30421W        W46895   3.001  12.125   2.611  0.0136 -0.0215 -0.2579
30422W        W46896   1.614   2.275   2.063 -0.0485  0.2849 -0.1431
30423W        W46897   4.628   5.163  14.037  0.2126  0.1033 -0.0301
30424W        W46898   4.667   8.061  11.198 -0.0633 -0.1267 -0.1557
30425W        W46899   6.230  15.760   4.268 -0.1204  0.0733 -0.3118
30426W        W46900  15.999   2.398  14.157  0.1959  0.2079 -0.2174
30427W        W46901  17.045  18.006  13.620  0.2088 -0.1965  0.1754
30428W        W46902   4.687  10.432   4.456 -0.2213 -0.1530  0.3205
30429W        W46903  14.666  15.437  10.853  0.1337 -0.0379 -0.4798
30430W        W46904   8.321  14.717   4.487 -0.2221  0.0113  0.2793
30431W        W46905   3.259   4.877  12.164  0.0791  0.1091 -0.2436
30432W        W46906  14.494   6.765   4.282  0.2131 -0.2962 -0.1092
30433W        W46907   5.383  17.375   3.080 -0.0155 -0.0352 -0.0498
30434W        W46908   7.545   6.623  10.703 -0.1312 -0.0864 -0.0648
30435W        W46909  14.172  18.045  11.544 -0.3925  0.0518 -0.0574
30436W        W46910   8.881   9.083  14.367  0.2216  0.1873 -0.0160
30437W        W46911  16.840  11.699   1.725 -0.0967 -0.0681 -0.1130
30438W        W46912  13.044  17.694  10.790 -0.0286  0.3393  0.1156
30439W        W46913  10.711   6.132   1.018  0.3934 -0.4931  0.0621
30440W        W46914  12.683  10.940  14.126 -0.0399 -0.0824 -0.0082
30441W        W46915   0.303  15.663  13.671 -0.2013  0.1172 -0.1088
30442W        W46916  15.473   8.041   0.808 -0.1053 -0.3205  0.0095
30443W        W46917   6.407   8.426  12.293 -0.2751  0.2319  0.0159
30444W        W46918  17.349  15.460  13.188 -0.0641  0.0770 -0.3217
30445W        W46919   3.049  17.817   1.778  0.1856 -0.1547 -0.0371
30446W        W46920  12.593   9.105   5.383 -0.1476 -0.1728  0.1841
30447W        W46921  17.164  13.329   0.907  0.0251  0.1413 -0.1768
30448W        W46922   3.712   7.602   1.827  0.0267  0.2103 -0.1196
30449W        W46923  12.533  18.359  14.012 -0.2195  0.0782 -0.0471
30450W        W46924   5.537  14.282  12.595  0.2429 -0.4395 -0.0375
30451W        W46925  12.933   2.331  10.316  0.0274 -0.3521 -0.3495
30452W        W46926   8.580  12.571  11.115 -0.3175  0.4154  0.0692
30453W        W46927   5.970  14.658  11.885  0.0163 -0.0874 -0.0431
30454W        W46928   9.524  10.392  13.172  0.0242 -0.0349 -0.0908
30455W        W46929  10.999  10.698  13.880 -0.1272  0.3018 -0.0181
30456W        W46930  15.003   5.346   1.143  0.0474  0.2442 -0.0849
30457W        W46931   8.010  17.063   2.358 -0.1495  0.2424  0.1182
30458W        W46932   3.260   0.612  11.664 -0.3905 -0.0898  0.0466
30459W        W46933   1.051  18.522   4.801  0.2248 -0.2108  0.1076
30460W        W46934  12.523  14.528  14.206 -0.0352  0.1693  0.1389
30461W        W46935  15.539   9.433  11.398 -0.0064 -0.1355 -0.2461
30462W        W46936  14.966  10.372   2.467 -0.0077 -0.0362 -0.0022
30463W        W46937   6.110  12.430   1.413  0.2729 -0.1816 -0.0865
30464W        W46938  14.842   3.459  13.910  0.0304  0.1763 -0.0053
30465W        W46939   2.346   2.200  10.257  0.0347  0.3238 -0.2102
30466W        W46940  14.178   1.506   3.256  0.0834  0.2379  0.2834
30467W        W46941   7.968  14.374  11.111  0.2248  0.0481  0.3391
30468W        W46942  15.774  14.885  12.221 -0.0397 -0.0849  0.5501
30469W        W46943   9.585  11.741  11.302  0.0131  0.2630 -0.1170
30470W        W46944  11.040   3.665  14.530  0.1786 -0.3356  0.0853
30471W        W46945  17.451  11.000  12.434 -0.0348  0.0162 -0.1177
30472W        W46946  14.864   3.395  11.905 -0.0632  0.0311 -0.0875
30473W        W46947   9.018   1.694   3.094 -0.2232 -0.0988  0.1485
30474W        W46948  12.593  13.289   1.622 -0.2197 -0.0519 -0.2102
30475W        W46949   0.331   9.598   0.657  0.1135  0.2177 -0.0388
30476W        W46950  14.498   9.123   9.657 -0.2154 -0.4721  0.2197
30477W        W46951   0.924  12.980  14.078  0.0562 -0.1760  0.0076
30478W        W46952   2.830   5.128   1.234 -0.0781  0.1827 -0.1323
30479W        W46953   2.428   4.402   1.670 -0.1554  0.0701  0.1650
30480W        W46954   3.374  15.539   9.326  0.1087 -0.2824 -0.1926
30481W        W46955   8.337   3.416  12.308  0.1634  0.0556  0.1168
30482W        W46956   5.297  15.791   2.644  0.1976  0.1818 -0.3099
30483W        W46957   5.108   2.398   3.843  0.0133  0.4704 -0.1919
30484W        W46958   0.844   2.046  10.853 -0.0253  0.0395  0.0372
30485W        W46959  15.856   3.001  14.028  0.0511  0.0615  0.3795
30486W        W46960  13.135  15.515  11.997 -0.2202  0.0494  0.0097
30487W        W46961   7.519   3.272   4.955 -0.1663  0.2876 -0.0658
30488W        W46962  16.768   2.759  12.412 -0.2173  0.2925  0.0079
30489W        W46963  10.442  15.675   2.324  0.1286  0.0367  0.0930
30490W        W46964   8.735  15.089   3.956 -0.1388  0.2009  0.3292
30491W        W46965  10.786  10.312   2.387 -0.0616 -0.1519 -0.2004
30492W        W46966   4.547   4.622   0.946 -0.1206 -0.3798  0.0525
30493W        W46967  12.500   0.877  14.613 -0.0100 -0.0474  0.1486
30494W        W46968  10.890   3.577  13.704  0.1170  0.0047 -0.0014
30495W        W46969  10.861  15.814   3.728  0.0947 -0.1437  0.0639
30496W        W46970   8.410   5.649   4.888 -0.2819  0.2298 -0.2024
30497W        W46971  11.825   1.864   0.538 -0.1022  0.0265 -0.1006
30498W        W46972  10.735   2.902   9.993  0.3715  0.2105 -0.0569
30499W        W46973  17.977   0.105  12.939  0.1329 -0.2352  0.1806
30500W        W46974  12.892   4.058  13.210 -0.1317 -0.1351 -0.1362
30501W        W46975  11.567   6.089   1.209 -0.0381 -0.0800  0.1494
30502W        W46976   6.716   3.990   0.447  0.1441  0.0666  0.1639
30503W        W46977  16.304   6.587  14.190 -0.2594 -0.1591  0.0575
30504W        W46978   1.348   4.012   0.766 -0.1061 -0.2393  0.0745
30505W        W46979   0.821   8.330  10.078 -0.2586  0.4390  0.1817
30506W        W46980  16.279  13.807  13.186  0.3399  0.3346 -0.3454
30507W        W46981   5.407   6.119  12.949 -0.0263 -0.1046  0.2743
30508W        W46982   1.153   6.658   1.417  0.0334 -0.1694 -0.1286
30509W        W46983   8.831   3.556  14.412 -0.1779  0.2319 -0.1382
30510W        W46984   2.170  18.206  14.639 -0.0300  0.0353 -0.1194
30511W        W46985  18.013   0.987   4.730 -0.2801  0.1734 -0.0001
30512W        W46986  15.535  15.810   4.477 -0.1137  0.2877 -0.1485
30513W        W46987   7.553  18.660  13.230 -0.2454  0.0630  0.1712
30514W        W46988  11.374   1.055   4.661  0.0569  0.3331 -0.1741
30515W        W46989   2.727   4.021  12.107  0.4017 -0.3843  0.4250
30516W        W46990   4.275   8.339  11.117 -0.0883  0.1953  0.0447
30517W        W46991  16.161  16.233   0.460 -0.1967 -0.4593  0.2039
30518W        W46992   7.194  18.000  11.057  0.2015 -0.0163 -0.0353
30519W        W46993  16.921   3.819   0.141 -0.2007  0.1404 -0.0668
30520W        W46994   2.248  12.806   9.845 -0.1628  0.2812  0.0991
30521W        W46995  16.867  16.355  13.641  0.1876  0.0582  0.0976
30522W        W46996   5.864   8.705  14.332  0.0101 -0.0701  0.1176
30523W        W46997   9.277   2.699  10.997  0.0497  0.0314  0.2671
30524W        W46998  12.051  15.577  12.222 -0.1715  0.1679 -0.2241
30525W        W46999   4.141   4.836   3.189  0.0771  0.2377 -0.0040
30526W        W47000   0.400   8.336  13.429 -0.0874 -0.2455  0.0302
30527W        W47001   3.904  12.378   2.465 -0.0828 -0.0507  0.0691
30528W        W47002   7.302  11.113   1.825  0.2484  0.0654  0.1726
30529W        W47003   7.288   4.992  13.987 -0.0695 -0.0661 -0.2263
30530W        W47004   6.085   4.395   2.194  0.0895 -0.2062  0.1507
30531W        W47005  18.133  17.123  11.797  0.1775  0.4742  0.0273
30532W        W47006  13.635   4.400   0.857  0.0508 -0.3393 -0.1616
30533W        W47007  13.082  10.649  10.774 -0.3763  0.2624 -0.1409
30534W        W47008  12.790  15.901   0.981 -0.0098  0.0450 -0.0194
30535W        W47009   4.309   0.200  14.166 -0.2308 -0.0250  0.0380
30536W        W47010  12.632   4.222   0.736 -0.1236 -0.1616  0.0486
30537W        W47011  10.218   8.810   0.022  0.1608  0.3384  0.1757
30538W        W47012  13.081   8.408  12.767  0.0588 -0.1728 -0.1281
30539W        W47013  15.222   6.456   1.756  0.1821  0.0244  0.2354
30540W        W47014  18.355   3.087  10.512  0.0156  0.0414  0.1593
30541W        W47015   6.891  16.623  13.615 -0.0087  0.2898 -0.1487
30542W        W47016  11.045  19.144   4.808 -0.0115 -0.4873  0.3219
30543W        W47017  11.877  16.480  11.151  0.1772  0.0836 -0.0539
30544W        W47018   4.283   1.115  10.074  0.1665  0.0317  0.3112
30545W        W47019  19.052   4.695   2.125  0.0952  0.0268  0.0865
30546W        W47020  15.726   2.975  13.154 -0.1583  0.2975  0.0388
30547W        W47021  14.865   7.741   3.798 -0.0848 -0.3036 -0.3683
30548W        W47022   2.048  17.065  11.795  0.0732 -0.2235  0.1629
30549W        W47023   5.592  16.799   4.726 -0.1477  0.0455  0.3424
30550W        W47024  12.465   2.184   0.059 -0.0005 -0.2208  0.2673
30551W        W47025  15.438   6.130  12.633 -0.2717  0.0435  0.1346
30552W        W47026   2.227   0.836   1.218  0.1300 -0.2280  0.2127
30553W        W47027   1.072  18.007  11.056  0.2561  0.1788 -0.2391
30554W        W47028   5.759   1.909  12.485  0.1246  0.1042 -0.0149
30555W        W47029  13.073   7.408   0.112 -0.1516  0.0468 -0.1678
30556W        W47030  19.324  19.419   1.855 -0.0409  0.1050  0.2834
30557W        W47031  15.921  13.356   0.812 -0.1590 -0.0177  0.2599
30558W        W47032  16.675   2.785   3.384 -0.0674  0.0040 -0.3399
30559W        W47033  16.953  11.921  13.406  0.0799 -0.3886  0.0268
30560W        W47034  15.283  15.328   2.195  0.0456  0.0172 -0.0065
30561W        W47035  19.432   9.584  10.485 -0.1333 -0.1154 -0.0707
30562W        W47036   0.841   4.954   3.438 -0.2865 -0.2917  0.4799
30563W        W47037   6.837   7.334  14.410 -0.0450  0.0883  0.1001
30564W        W47038  14.172   6.914   5.092 -0.0753 -0.0586  0.1622
30565W        W47039   0.151   8.968  13.503 -0.0408  0.4698  0.1152
30566W        W47040   7.865  11.448   1.434  0.1763 -0.2709 -0.3120
30567W        W47041   8.049   0.378   4.022  0.0022  0.2417  0.0758
30568W        W47042   8.512  11.168   0.810  0.0736  0.1804 -0.0077
30569W        W47043   9.966  14.137   4.806 -0.4793  0.1100  0.3264
30570W        W47044  13.589  11.270  13.443 -0.3517 -0.1799 -0.1881
30571W        W47045  18.311  19.618   3.287 -0.1642 -0.1770 -0.0293
30572W        W47046   7.211  17.256   2.565  0.2169 -0.4030  0.0350
30573W        W47047  18.673   3.050   1.626  0.0261 -0.0594 -0.4648
30574W        W47048   4.413   6.361  10.787  0.1474  0.0682  0.0223
30575W        W47049  11.701  11.116  12.279 -0.2228 -0.0585 -0.1315
30576W        W47050  18.397   2.084  12.765 -0.0998  0.2415  0.1324
30577W        W47051  10.743  14.213  10.964 -0.1627 -0.1558  0.0265
30578W        W47052  16.511  16.005   0.803 -0.1262 -0.0387  0.1197
30579W        W47053  18.822   9.444  13.254  0.0611  0.0924  0.0327
30580W        W47054   2.949   5.394  13.976 -0.3257 -0.0149 -0.1140
30581W        W47055  10.077  18.189   1.817  0.1854 -0.0071 -0.1181
30582W        W47056  16.026  14.201  13.315 -0.1613 -0.1227 -0.1601
30583W        W47057   4.548  15.002  10.310 -0.1349  0.3767  0.0016
30584W        W47058   3.922   9.868  11.636  0.1921  0.3065 -0.2849
30585W        W47059   8.208   7.694   1.093 -0.1643  0.0634  0.1069
30586W        W47060   7.113  16.188   3.386 -0.5020 -0.1545  0.0210
30587W        W47061  12.430   6.793  11.880 -0.0231  0.4440 -0.0775
30588W        W47062   6.206  10.231   3.557 -0.1015  0.3476  0.1776
30589W        W47063  14.944   7.783   4.743 -0.3555  0.4342  0.1515
30590W        W47064   0.490  14.878   0.285 -0.1486  0.0389 -0.0473
30591W        W47065  10.736   5.288   2.843 -0.0706  0.2296  0.0705
30592W        W47066   3.035   5.140  11.332  0.0758  0.1674 -0.0197
30593W        W47067   7.360  10.372  12.223  0.3556  0.1613  0.2275
30594W        W47068   7.839   5.682  14.660  0.2263  0.2800 -0.1683
30595W        W47069   7.372   0.512  10.222  0.1250 -0.0136  0.3268
30596W        W47070   8.818   8.561   1.957 -0.3324  0.2099 -0.0349
30597W        W47071  11.853  18.192   4.999  0.0631 -0.3969 -0.0931
30598W        W47072   9.598   7.332   4.551 -0.2209  0.1738 -0.0818
30599W        W47073   0.692  10.128  10.753  0.2313  0.0595  0.3898
30600W        W47074   7.656   7.609  14.359 -0.0907 -0.0590  0.2599
30601W        W47075   7.579  11.189   2.725  0.0407  0.1873 -0.4013
30602W        W47076   4.729   8.296   0.428 -0.0563 -0.0074  0.1631
30603W        W47077   2.344  15.724   2.197 -0.3103  0.2530 -0.1284
30604W        W47078   2.549  14.569   3.406 -0.1058 -0.0352  0.3697
30605W        W47079   7.258   6.131  10.655  0.0100 -0.1290 -0.2058
30606W        W47080   1.689   6.988   1.657 -0.1439 -0.0095  0.1437
30607W        W47081   1.285   1.522  13.146  0.1069 -0.2075 -0.0451
30608W        W47082  13.230  16.390  12.366 -0.0296 -0.2545  0.1617
30609W        W47083  16.573   9.347   1.594 -0.2188  0.3698  0.3913
30610W        W47084  10.903  12.005   2.598 -0.1643  0.1633  0.1026
30611W        W47085  12.665   4.034   3.616 -0.0963  0.2867 -0.3040
30612W        W47086   7.807   5.047   2.666 -0.1119 -0.2616  0.1773
30613W        W47087  17.591  13.975   1.157 -0.0729  0.1267  0.2491
30614W        W47088   1.139   6.719  14.118  0.1262  0.1529 -0.3358
30615W        W47089   5.998  17.745  10.125 -0.0816 -0.1776 -0.3073
30616W        W47090   0.788   5.418   0.525 -0.0625 -0.4148  0.1455
30617W        W47091  17.230  17.673  12.750  0.2268 -0.1942  0.0186
30618W        W47092  16.455  15.658  13.736 -0.3757  0.0915  0.1220
30619W        W47093   6.064   5.360   9.852 -0.1352 -0.0986 -0.1897
30620W        W47094  11.578   1.743   2.291  0.1136  0.3183  0.0765
30621W        W47095   8.134   7.242  12.772 -0.2848  0.0886 -0.2343
30622W        W47096  12.342   7.995  12.164 -0.1011 -0.2669  0.1215
30623W        W47097   5.013  10.755   9.366 -0.1127 -0.0175  0.0199
30624W        W47098   4.858  19.252   4.245 -0.0233  0.1044  0.1605
30625W        W47099  18.059   5.389  13.358  0.0274 -0.0262 -0.0321
30626W        W47100   2.514   9.585   2.971  0.1269  0.0074  0.0502
30627W        W47101   7.827   3.157   4.399 -0.1273 -0.4162  0.3222
30628W        W47102   0.140  15.544  11.697  0.2039 -0.1094 -0.0850
30629W        W47103   8.723   4.044  11.850 -0.2039 -0.0737  0.1360
30630W        W47104   2.263  15.585   3.542 -0.1282  0.2959 -0.0230
30631W        W47105   9.601  14.669  14.514 -0.1727  0.1483 -0.0144
30632W        W47106  13.193   9.455   1.251  0.0643 -0.1342 -0.1957
30633W        W47107  15.572  12.572  10.504  0.1615  0.1684  0.1381
30634W        W47108   2.218   1.807  14.068 -0.2335 -0.2754  0.0423
30635W        W47109  18.109   5.615   0.286 -0.0935 -0.1373 -0.1534
30636W        W47110   6.991  14.570   1.971  0.0837  0.1441 -0.0439
30637W        W47111  14.204  17.130  12.612  0.1946  0.0156  0.0578
30638W        W47112  19.266  11.818  13.685 -0.0281 -0.1312  0.1271
30639W        W47113   5.147  15.053  10.300  0.1262  0.1411 -0.1137
30640W        W47114   4.453   7.482  14.535  0.0341  0.2320 -0.5058
30641W        W47115  12.430   4.442   9.858 -0.0949  0.1958 -0.2275
30642W        W47116  14.989   0.601   3.926 -0.2265 -0.0033 -0.1763
30643W        W47117   6.852  14.703   3.968  0.0599  0.2273  0.0838
30644W        W47118  15.875  11.895   3.474  0.1468  0.1227  0.0882
30645W        W47119   9.025   6.438   4.563 -0.0894  0.2107  0.1295
30646W        W47120   3.669   2.053  11.805 -0.1011 -0.0058 -0.0563
30647W        W47121   6.699  16.782   3.042 -0.0561  0.0212 -0.0639
30648W        W47122  10.552   9.034   1.585 -0.1095  0.0357 -0.0340
30649W        W47123   3.663   6.907   1.284 -0.0989  0.0620  0.1983
30650W        W47124  13.043   9.846  14.074 -0.0117  0.2653  0.2067
30651W        W47125  18.973   1.791   0.075 -0.1122  0.0741 -0.1783
30652W        W47126   9.067   2.996  11.450 -0.3355  0.2075  0.0137
30653W        W47127  12.977  10.486  13.273  0.1789 -0.1574  0.1517
30654W        W47128   3.178  15.233  11.887  0.0373  0.2850 -0.2909
30655W        W47129  15.167  18.649   0.898 -0.3802 -0.0617 -0.2850
30656W        W47130   8.097   8.101  11.469 -0.0833 -0.2833 -0.1746
30657W        W47131   6.575  12.491  13.690 -0.2357 -0.0797  0.0637
30658W        W47132   3.452  13.076   0.636  0.2873  0.1040  0.0495
30659W        W47133   9.497  12.428   3.880 -0.1127 -0.3620  0.1148
30660W        W47134   2.017  13.465   0.212  0.1994 -0.0223 -0.1693
30661W        W47135   1.097  17.287   4.089  0.0182 -0.0562  0.0696
30662W        W47136   1.214  14.371   4.952 -0.0217  0.1363  0.0169
30663W        W47137   5.961   5.877   3.388  0.5210 -0.2188  0.0101
30664W        W47138  16.324  10.358   1.866 -0.0216  0.3109 -0.2022
30665W        W47139   1.081   0.629   0.186 -0.1684 -0.2756  0.2047
30666W        W47140  15.270  13.780  14.253 -0.0354 -0.1472 -0.6577
30667W        W47141  14.830   4.568  11.848  0.0091 -0.2349 -0.0545
30668W        W47142   5.187  18.707   9.929 -0.0288 -0.4111 -0.0750
30669W        W47143   9.590  12.570  10.155  0.0395 -0.2051  0.1799
30670W        W47144   2.013  12.806   2.969  0.0864 -0.1874  0.0058
30671W        W47145  16.943   4.816   9.837 -0.3027  0.1343  0.2332
30672W        W47146   9.949   4.921   4.309 -0.0669  0.2120 -0.1193
30673W        W47147   2.478   1.336   4.421  0.0477  0.3225  0.0953
30674W        W47148   1.839  10.495  11.968  0.0967  0.1811  0.5987
30675W        W47149   4.375   3.179   1.375  0.0987 -0.0362  0.1952
30676W        W47150   7.737   4.361  14.084 -0.0679 -0.0311 -0.1316
30677W        W47151   6.755   3.591  10.624 -0.1242 -0.0816  0.0717
30678W        W47152  14.703   0.975   3.958  0.1329 -0.0899  0.1754
30679W        W47153   8.867   8.969  11.636  0.1571 -0.0480 -0.0079
30680W        W47154   7.350  19.527   2.350 -0.1206  0.0044 -0.2968
30681W        W47155  17.755   4.214  10.631 -0.3283 -0.0853 -0.1581
30682W        W47156  11.921   8.482   1.804  0.0992 -0.0347 -0.0965
30683W        W47157  16.022  14.286  12.832  0.2104  0.1655  0.4353
30684W        W47158   6.788   8.718  14.654  0.0804 -0.3360 -0.1184
30685W        W47159   5.507   3.664   1.912  0.1343 -0.0258 -0.0822
30686W        W47160   8.524   7.378   5.380  0.0369 -0.0704 -0.0665
30687W        W47161  13.805   4.255   3.120 -0.0136 -0.0684  0.1021
30688W        W47162   9.224   8.512  11.928  0.0448 -0.1292 -0.0972
30689W        W47163   8.143  13.547  13.464  0.1119 -0.2260 -0.2125
30690W        W47164  12.313   7.327   4.080 -0.2607  0.3454  0.0365
30691W        W47165  13.299  18.294   2.228  0.0551 -0.4616  0.0352
30692W        W47166  17.115  10.470  13.398 -0.0172  0.2788  0.1933
30693W        W47167   2.476   4.241  12.889 -0.2194  0.0525 -0.0929
30694W        W47168   0.920   0.281  11.772  0.2450 -0.1452  0.1144
30695W        W47169   0.641  18.245   1.537  0.1020  0.0346  0.0492
30696W        W47170   1.657  18.162   4.093 -0.1782 -0.2002 -0.4193
30697W        W47171   8.902   7.438   1.443  0.0471  0.1321 -0.2270
30698W        W47172  13.668   8.374  10.856 -0.0137  0.1323  0.1842
30699W        W47173  16.944   8.039   1.364  0.2810  0.1226 -0.3260
30700W        W47174   8.001  11.977   2.948 -0.0296 -0.5332 -0.0496
30701W        W47175  13.620  14.000  13.002 -0.0581  0.0839 -0.1746
30702W        W47176   9.939   4.756   1.141 -0.0608 -0.1790  0.2635
30703W        W47177  16.214  14.256   4.746  0.0685 -0.2634 -0.1819
30704W        W47178  17.634   8.441  10.326 -0.0832  0.2141 -0.2250
30705W        W47179  18.720  13.999   5.570  0.0050 -0.2733  0.1046
30706W        W47180  10.951  15.641   1.018  0.1279  0.2275 -0.0240
30707W        W47181   3.463   5.119   1.861 -0.0167  0.3249 -0.1265
30708W        W47182   8.003   0.269   0.474 -0.3140 -0.0907 -0.0371
30709W        W47183   1.715   2.666   2.424 -0.2304  0.4336 -0.2575
30710W        W47184  11.994  15.713  12.817 -0.0390  0.0347 -0.2230
30711W        W47185  15.144  19.472   4.257  0.2364 -0.3970 -0.0702
30712W        W47186  13.102   8.070  13.117 -0.2368  0.0110 -0.1668
30713W        W47187   3.371  10.591  13.222  0.0095  0.0346 -0.0236
30714W        W47188   5.175  10.177  13.093 -0.1087 -0.2515  0.0261
30715W        W47189   1.367   6.684   3.214  0.1492 -0.0339  0.1817
30716W        W47190   9.608  11.885   3.635  0.0037 -0.0489  0.1159
30717W        W47191  15.193  10.939  13.240  0.2713 -0.0422  0.0097
30718W        W47192   9.610  16.870   5.823  0.2141 -0.0836  0.1009
30719W        W47193   6.128   1.835  12.071  0.0784  0.0075  0.1714
30720W        W47194   0.885   1.438  11.235 -0.1731 -0.0275  0.2026
30721W        W47195  13.928   5.221   1.008 -0.1232 -0.1661  0.2803
30722W        W47196  13.725   7.643   5.308  0.6856  0.1468 -0.1248
30723W        W47197  10.590   2.304  11.555  0.5478  0.0503  0.1929
30724W        W47198   6.355   4.735   3.727  0.1480  0.1645 -0.2057
30725W        W47199  13.603  15.886  13.542 -0.7189 -0.0300 -0.3282
30726W        W47200   5.863   8.806  12.926  0.2462 -0.1761 -0.1203
30727W        W47201   6.972   5.865  13.214 -0.3801 -0.0807  0.2062
30728W        W47202  11.069  11.810  12.915 -0.2851 -0.1892  0.1097
30729W        W47203   7.590   1.813   0.793 -0.2129  0.1404  0.1112
30730W        W47204  16.823  19.173  10.519 -0.0884 -0.4526  0.1195
30731W        W47205   2.576   0.990  14.461 -0.2490  0.5223  0.2345
30732W        W47206  14.183  13.006   3.978  0.3329  0.2252 -0.1466
30733W        W47207   0.508   2.679  10.611 -0.1391 -0.0046 -0.3109
30734W        W47208  10.227   5.245  12.832 -0.3265  0.3973  0.2785
30735W        W47209  13.409   0.222  14.351  0.0048  0.2524  0.4291
30736W        W47210   1.439  13.627  11.540 -0.2527 -0.1371  0.4882
30737W        W47211   7.114   6.784  12.693  0.0382 -0.3112 -0.1450
30738W        W47212  18.882   9.880  11.712 -0.0604 -0.1304 -0.2166
30739W        W47213  13.313  12.206  12.860 -0.0353 -0.1869 -0.0620
30740W        W47214   0.362  19.516  14.644  0.1159  0.1622  0.0560
30741W        W47215  18.995  11.858   0.829  0.0336  0.0538  0.1162
30742W        W47216   6.764  10.224  11.973 -0.0281 -0.2428  0.1198
30743W        W47217  16.463  14.044  14.512  0.2630  0.0425  0.1149
30744W        W47218   2.788   6.961  10.798 -0.3621  0.0206 -0.4187
30745W        W47219   7.559  17.208  11.021 -0.0470  0.2137 -0.1625
30746W        W47220  18.537  17.211   2.053 -0.0636  0.1471  0.0962
30747W        W47221   8.513   8.386  10.534 -0.0760  0.1620  0.1188
30748W        W47222  19.204  16.423   9.675 -0.1991  0.0401 -0.0384
30749W        W47223  15.633   9.783  13.822  0.1542  0.2797  0.2146
30750W        W47224   7.118   3.943  10.755  0.0081  0.0039 -0.1728
30751W        W47225   2.776  13.147   4.315  0.2211 -0.2306  0.1124
30752W        W47226  18.130   2.459   9.919  0.1788  0.2577 -0.0266
30753W        W47227   5.378   6.491   4.531  0.1721 -0.0727 -0.2447
30754W        W47228   1.710  19.176  11.229 -0.1634  0.1436 -0.1737
30755W        W47229  11.981  15.942  13.592 -0.2576  0.1207  0.3183
30756W        W47230   2.956   1.871   9.521 -0.0453  0.3580 -0.2802
30757W        W47231   5.830   5.483  10.982  0.0907  0.1056 -0.1162
30758W        W47232  17.344  13.135   0.431  0.2660 -0.1192  0.0409
30759W        W47233   0.759  12.117   0.858 -0.1380 -0.1867 -0.2200
30760W        W47234  12.226  10.991   9.890  0.1560  0.2884  0.0579
30761W        W47235  16.714   4.984   1.026  0.1942 -0.3564  0.2532
30762W        W47236  13.050  17.478   1.533  0.0562 -0.3897 -0.0625
30763W        W47237  11.240  10.172   4.310 -0.0704 -0.4097 -0.2899
30764W        W47238   4.424   3.681  11.123 -0.1956  0.1700 -0.0660
30765W        W47239   9.883  17.639   1.602 -0.0606  0.3087 -0.1851
30766W        W47240   2.938  13.191   2.597  0.0071 -0.0552  0.2987
30767W        W47241   5.037  12.788   5.364 -0.0847  0.0599 -0.3045
30768W        W47242  10.686  14.062  13.666 -0.3229  0.1554 -0.1249
30769W        W47243  19.598  15.420   4.123 -0.0371  0.1013 -0.0776
30770W        W47244  17.231  11.663  12.862 -0.0416 -0.2391  0.0905
30771W        W47245   5.304   9.126  12.226  0.1024 -0.1423 -0.2920
30772W        W47246   9.046  11.133   0.397 -0.0722 -0.1495  0.1693
30773W        W47247   9.618   2.004  11.287  0.2997  0.3955 -0.0619
30774W        W47248   2.037   8.309   2.062 -0.2473 -0.0137  0.1417
30775W        W47249   2.023   4.615  14.108  0.1661  0.1079  0.1410
30776W        W47250   5.961   4.323  10.502  0.1993 -0.1579  0.4601
30777W        W47251  12.630  15.324   5.043  0.0552  0.2900 -0.3338
30778W        W47252   5.576   1.508  11.434 -0.1680 -0.3562 -0.1906
30779W        W47253   3.607  10.043  10.588 -0.1801 -0.0316 -0.0090
30780W        W47254   0.831  19.044   3.283 -0.1733  0.1050  0.0441
30781W        W47255  10.949   5.605   3.884 -0.1646  0.3929 -0.0405
30782W        W47256   5.054  18.579  10.389 -0.1653  0.3191  0.0149
30783W        W47257  15.908   1.371  11.963 -0.1338 -0.2834  0.1793
30784W        W47258  11.763   0.232   1.513 -0.1590 -0.2616 -0.0767
30785W        W47259  10.604  12.521   5.467  0.0397  0.0183  0.0256
30786W        W47260   4.174  15.959  12.840 -0.2614  0.1520  0.0149
30787W        W47261  13.096  17.330  10.415 -0.0345  0.2090 -0.0440
30788W        W47262   2.067   1.700  11.116 -0.2007  0.0998 -0.2454
30789W        W47263  18.968   9.824   4.682  0.1687  0.1506 -0.1319
30790W        W47264  13.478  15.407  12.453 -0.2285  0.2796  0.0509
30791W        W47265   3.764   6.051   3.384 -0.3269  0.3978  0.2093
30792W        W47266   2.724  11.404   5.259 -0.3079 -0.4666  0.1198
30793W        W47267   7.423  12.737   0.886 -0.0319  0.2948  0.0880
30794W        W47268  18.424   7.834  14.342  0.0205 -0.3160 -0.1442
30795W        W47269   0.907   4.842  12.838  0.0975 -0.0230  0.1309
30796W        W47270  17.858   9.310   0.304  0.1479  0.0677  0.3992
30797W        W47271   1.937   1.012   0.056 -0.0974  0.1543 -0.2828
30798W        W47272  19.400   1.033   0.239  0.1653  0.0326  0.1752
30799W        W47273   3.972   1.148  10.455  0.0615 -0.3696  0.0553
30800W        W47274   3.433  11.796   1.884  0.2262  0.0118  0.2584
30801W        W47275  13.540  17.327   2.452 -0.1319  0.1710  0.2366
30802W        W47276  14.715  12.342   0.306 -0.0587 -0.2897  0.3350
30803W        W47277   5.056  18.157   9.989 -0.1708 -0.0607  0.0302
30804W        W47278   4.835   0.675   0.222 -0.1476  0.3217  0.0453
30805W        W47279   5.077  17.167   3.549 -0.1230 -0.2839  0.0100
30806W        W47280  11.472  13.542  12.554  0.3875 -0.1378  0.0022
30807W        W47281  15.622  16.320  11.238  0.0379  0.2101  0.2001
30808W        W47282  10.696  16.359  10.429  0.0885 -0.0060  0.1820
30809W        W47283   3.280  19.118  10.009 -0.0605 -0.0654  0.0041
30810W        W47284  15.836  18.443  14.039 -0.1122  0.3580  0.0769
30811W        W47285  13.433   7.341  12.670  0.0658 -0.0451 -0.3603
30812W        W47286  11.410  16.828  12.686 -0.0505  0.1248  0.0984
30813W        W47287   0.214  18.787   2.698  0.0880 -0.2833 -0.1189
30814W        W47288  11.838  18.157  12.118  0.0835  0.1438 -0.3288
30815W        W47289   7.515   8.976   3.046 -0.1933 -0.0555 -0.3189
30816W        W47290   6.914  18.016   2.921  0.2550  0.2158 -0.0180
30817W        W47291  14.538   9.766  11.775 -0.1053 -0.4282 -0.3505
30818W        W47292   2.302   2.442  14.048 -0.1084  0.1327  0.0331
30819W        W47293   4.438  13.036   4.818  0.1444  0.1578 -0.2326
30820W        W47294  16.572  10.843   3.934  0.1817 -0.2060 -0.0017
30821W        W47295  18.002   9.351  10.363 -0.5347 -0.3106  0.0214
30822W        W47296   0.606   6.975   4.238  0.1354 -0.1488  0.1010
30823W        W47297  14.606  10.565  13.694 -0.0941 -0.0492  0.1562
30824W        W47298   5.452  18.021  11.921  0.0411 -0.1332  0.0497
30825W        W47299   4.703  16.877  10.286  0.2426 -0.0505  0.0729
30826W        W47300   5.920   5.883  13.862  0.2572  0.2758 -0.2045
30827W        W47301   1.387   5.160  14.305  0.4543  0.1773  0.1641
30828W        W47302   3.783   7.005  11.432  0.0775 -0.0871  0.2828
30829W        W47303   6.621  16.108   4.310 -0.2970  0.2209  0.1094
30830W        W47304   7.580   1.805  10.254  0.0411  0.1003 -0.3206
30831W        W47305  13.677  18.353  13.883  0.3385  0.1175 -0.2144
30832W        W47306  15.973   7.284  10.884  0.3553  0.0273 -0.4161
30833W        W47307   1.143  13.224   4.113  0.2647  0.0070  0.1455
30834W        W47308  12.178   3.646   2.360  0.1771  0.2922  0.0894
30835W        W47309  19.006  10.630   4.749 -0.1353 -0.0448  0.2754
30836W        W47310   0.301  17.565  11.391  0.3371  0.1932  0.1301
30837W        W47311   3.107   8.799   0.584 -0.2591 -0.1584  0.2178
30838W        W47312  15.943  16.225  12.179 -0.0325 -0.0805  0.2579
30839W        W47313  10.659   6.000  10.703 -0.3036 -0.1699  0.2053
30840W        W47314   1.182   2.433   0.148 -0.3257 -0.3297 -0.1289
30841W        W47315   1.941  11.999   3.914 -0.0981  0.0906  0.2950
30842W        W47316  17.207   6.969   0.153 -0.0559 -0.0164 -0.0353
30843W        W47317   3.549  18.288  10.276  0.1750 -0.2033 -0.1054
30844W        W47318   3.014   3.608  12.462  0.3876  0.2159  0.0867
30845W        W47319   8.294  14.154  11.983  0.1062 -0.0152  0.2093
30846W        W47320   2.090   1.400   1.201  0.4190  0.3426  0.4331
30847W        W47321  16.313   8.721  12.571  0.3623 -0.0099  0.0057
30848W        W47322  15.011  15.048  13.989  0.0889 -0.1970 -0.1162
30849W        W47323  15.749   3.603   0.067 -0.0726 -0.2251  0.3172
30850W        W47324   5.604   8.860  10.856  0.1060  0.0282  0.2975
30851W        W47325   6.981  13.118   2.046 -0.1416 -0.0607 -0.0555
30852W        W47326  19.460   5.561  12.709 -0.2526 -0.0949 -0.1453
30853W        W47327  11.424  14.064  14.588  0.2304 -0.0611  0.0269
30854W        W47328  12.602  16.191   1.900  0.2121  0.1148  0.0192
30855W        W47329  12.335   0.280   1.689 -0.0360 -0.2786 -0.0043
30856W        W47330   4.500  19.562   4.167 -0.3415  0.0302 -0.0171
30857W        W47331  10.952   6.859   0.390 -0.2935  0.3051 -0.0413
30858W        W47332  18.625  13.482  10.191  0.2707 -0.2473 -0.0491
30859W        W47333   9.994   2.442   2.572 -0.1615  0.0335  0.3554
30860W        W47334  15.229   9.831   9.996  0.3161  0.1740 -0.1016
30861W        W47335  18.106   6.594  11.022  0.2882  0.1790 -0.2188
30862W        W47336  13.454  13.915  11.066  0.2444  0.1936  0.0280
30863W        W47337   8.285  18.605   0.973 -0.3345 -0.0671 -0.2043
30864W        W47338  13.303  16.293  10.788 -0.0964 -0.0632 -0.2362
30865W        W47339   3.305  16.316  10.371 -0.2830 -0.5537 -0.0085
30866W        W47340  11.958  12.022   2.095  0.0178  0.1564 -0.1257
30867W        W47341   9.264  19.131  10.174 -0.0076  0.2107 -0.2718
30868W        W47342  13.973   0.962  14.292 -0.2584  0.3422 -0.0845
30869W        W47343  11.640   2.594  14.238  0.3187 -0.0972  0.0067
30870W        W47344   8.509   1.314  10.212  0.1388 -0.3206 -0.0521
30871W        W47345   8.854  15.310  11.036  0.1157  0.0111  0.1443
30872W        W47346   0.234   1.618  14.341  0.1896 -0.2741 -0.0515
30873W        W47347   3.919  11.082   2.138 -0.3140  0.0390  0.0658
30874W        W47348   2.604   4.098  14.584  0.1624 -0.2730  0.0449
30875W        W47349   7.849  14.868   0.570 -0.2097  0.1485  0.0005
30876W        W47350  15.227   9.055   1.606  0.0175  0.0292  0.2020
30877W        W47351   6.003  16.946   4.930  0.0870  0.3632  0.5041
30878W        W47352  18.854   2.906  13.101  0.1179  0.0177  0.0862
30879W        W47353   6.110  18.959  12.565 -0.2424  0.1062 -0.0265
30880W        W47354   2.753   4.878  12.100  0.1644 -0.0279  0.0029
30881W        W47355  12.321   3.906  13.462 -0.2155 -0.4521 -0.0372
30882W        W47356   5.561  14.009  11.502 -0.3295 -0.3062  0.1497
30883W        W47357  13.758   5.791  13.870 -0.0766 -0.1004 -0.2943
30884W        W47358   6.040   3.059  10.970 -0.2631 -0.2351 -0.3430
30885W        W47359   8.325  19.438   3.250 -0.2255 -0.0022 -0.2956
30886W        W47360  15.258  11.700   1.663 -0.1761 -0.2779  0.1859
30887W        W47361   9.963  14.503  14.196  0.1030 -0.3118 -0.0309
30888W        W47362  11.408  10.915  13.980  0.2776  0.0463 -0.1919
30889W        W47363  15.395  19.579   9.900  0.2178 -0.3285  0.1994
30890W        W47364   6.183   6.443  12.586 -0.0441  0.0576 -0.0266
30891W        W47365   6.258  14.347  10.470  0.0332  0.2306 -0.1862
30892W        W47366   3.806   0.681   1.559 -0.3124 -0.0154 -0.3543
30893W        W47367   7.448  14.255   2.857  0.0285 -0.0214  0.1032
30894W        W47368  17.664   1.023  11.525 -0.1205 -0.1042  0.3039
30895W        W47369   8.874  12.112   1.830 -0.2805  0.0795  0.0598
30896W        W47370   5.973  16.542  13.429  0.3384 -0.1648  0.0971
30897W        W47371   7.499   5.417  13.903 -0.1670 -0.5252 -0.0730
30898W        W47372  16.066  10.835   3.343  0.1543 -0.1596 -0.1568
30899W        W47373  13.602  10.327  13.464 -0.0003 -0.0014 -0.3009
30900W        W47374   3.345   4.290   1.987 -0.1667 -0.0510 -0.0219
30901W        W47375  10.153  19.237   1.795 -0.3296  0.2481 -0.2130
30902W        W47376   7.670   0.331   4.475 -0.0249 -0.2647  0.2232
30903W        W47377   6.597  16.690  11.690 -0.1624  0.3375  0.1557
30904W        W47378   1.346   6.054  11.606 -0.0294 -0.1887 -0.1913
30905W        W47379  19.006   4.705  11.519  0.0749  0.1922 -0.0943
30906W        W47380  14.420  16.966  11.906  0.0757 -0.3704  0.2357
30907W        W47381  14.970   0.847   1.681  0.1890 -0.3269 -0.2704
30908W        W47382   8.852  18.542   0.152  0.0457  0.1188 -0.3529
30909W        W47383   7.812  13.185   1.707 -0.1270  0.0442 -0.0588
30910W        W47384   5.877  13.127   2.662 -0.1533 -0.1370 -0.0059
30911W        W47385   5.423   4.940  12.923 -0.0946  0.0861 -0.1681
30912W        W47386  14.906  14.518  14.404 -0.2081  0.1269 -0.0277
30913W        W47387   6.797   3.144   0.883  0.2433 -0.4061 -0.0033
30914W        W47388   1.600  14.847  14.111 -0.2882  0.3308 -0.4122
30915W        W47389   4.464   1.578  11.353 -0.1218  0.1267 -0.3070
30916W        W47390   6.687  18.890  13.191  0.2108  0.0129 -0.1621
30917W        W47391  19.523  17.382  13.660  0.0886 -0.0761 -0.0433
30918W        W47392   4.889  19.029  12.428  0.0171  0.0770 -0.0497
30919W        W47393  14.302  14.664   0.939  0.1544 -0.2759 -0.0876
30920W        W47394  14.768   0.725  10.553  0.1082 -0.0698  0.3172
30921W        W47395  14.808  15.542  12.821 -0.2916  0.0896 -0.3928
30922W        W47396   0.663   8.322  14.356  0.1534 -0.0330  0.0431
30923W        W47397   2.630   5.599  12.533 -0.1366  0.1101  0.0807
30924W        W47398  13.011  17.180   4.343 -0.3949 -0.4424  0.2056
30925W        W47399  13.628  17.715  12.359  0.1989 -0.2794  0.1017
30926W        W47400  14.437  18.258   2.733 -0.1016  0.5234  0.1676
30927W        W47401   8.404   6.970  14.526 -0.2056  0.0536 -0.2752
30928W        W47402   1.505   5.665   1.697  0.1507 -0.0461  0.0063
30929W        W47403  19.491  19.376   3.902  0.1345 -0.2339 -0.0424
30930W        W47404  10.748   2.857  12.278  0.1386 -0.0180  0.1111
30931W        W47405  17.829   8.824   2.704  0.1976 -0.2322  0.0206
30932W        W47406   6.586  10.414   2.087 -0.0477 -0.1361 -0.1720
30933W        W47407  10.532   2.057   2.962 -0.2928  0.0010 -0.0656
30934W        W47408   5.997  17.458  12.045 -0.2843  0.1990  0.4115
30935W        W47409   1.346  10.154   9.643  0.1636 -0.0273  0.0778
30936W        W47410   8.869   0.984  10.425  0.0902  0.2286  0.0348
30937W        W47411   9.769   3.256   2.152 -0.2009  0.3570 -0.0244
30938W        W47412   8.066   6.398   1.968  0.0452 -0.1826 -0.1518
30939W        W47413   5.757   0.949   4.639 -0.1066 -0.1226 -0.0234
30940W        W47414  10.551  14.578   3.006 -0.0718  0.1794  0.0247
30941W        W47415   3.809  11.637  14.115  0.0491  0.0349 -0.1472
30942W        W47416   2.198   5.236   8.985 -0.1652  0.0948 -0.2773
30943W        W47417  15.248  17.265   3.611  0.1087  0.2010 -0.1272
30944W        W47418  10.525   2.713   4.994 -0.0154 -0.3083  0.1426
30945W        W47419  10.043  12.632  11.039  0.3575  0.0737  0.0922
30946W        W47420   0.537   8.800   1.149 -0.1517 -0.1415 -0.1065
30947W        W47421   6.447   0.889   2.749  0.0127  0.0895  0.0958
30948W        W47422   7.530  17.153   0.206  0.1223  0.1093 -0.3259
30949W        W47423  11.773  17.646   4.313  0.1530  0.1656 -0.2247
30950W        W47424  15.756   3.166   4.319 -0.1470 -0.1693 -0.2074
30951W        W47425   9.385  18.057  11.866 -0.0919 -0.4378 -0.0599
30952W        W47426   4.552   6.118  11.226 -0.0037  0.2466 -0.1032
30953W        W47427  16.965   1.788   1.906  0.2650 -0.0812  0.2130
30954W        W47428   2.573   6.618  11.652 -0.1100  0.0349  0.0142
30955W        W47429  13.781  16.293  13.778 -0.0304  0.7879  0.1105
30956W        W47430   1.410   3.707  11.612  0.0469  0.1498 -0.1985
30957W        W47431   2.203  18.797  12.457 -0.0441 -0.1292 -0.1149
30958W        W47432  13.446  19.083  13.672  0.1912  0.0031 -0.1110
30959W        W47433   9.318  10.426   1.006  0.1645  0.0663 -0.2536
30960W        W47434  14.110  17.486  13.040  0.3192 -0.0347 -0.0844
30961W        W47435   5.357  10.391  11.160 -0.1966 -0.0826 -0.0223
30962W        W47436   1.536  14.297   0.677 -0.2082  0.0606  0.0470
30963W        W47437   9.504  17.466  14.180  0.0298  0.1784 -0.1263
30964W        W47438   4.231   7.040  10.411  0.1109 -0.0200  0.2834
30965W        W47439  19.431  14.029  13.398 -0.2419 -0.1174 -0.2160
30966W        W47440  16.567  16.674  10.052 -0.1457 -0.4304  0.1685
30967W        W47441   2.829   4.865  13.119  0.1871  0.0649 -0.2152
30968W        W47442   9.770  17.494  11.772 -0.3612  0.0475 -0.3529
30969W        W47443   4.350  15.775  13.909 -0.2452 -0.2662 -0.0448
30970W        W47444  18.909   3.274  10.729  0.0217  0.0882  0.0790
30971W        W47445   5.203  18.703   1.846 -0.1799 -0.0011  0.1292
30972W        W47446   5.370   3.938  14.511 -0.2235  0.0815  0.1898
30973W        W47447   3.427  10.172  11.636 -0.0072 -0.1548 -0.2183
30974W        W47448  17.082   1.096   4.660 -0.1550 -0.1327 -0.1244
30975W        W47449   2.948  13.021   0.630  0.4083  0.1493  0.0698
30976W        W47450  13.465  18.983   1.866 -0.0094 -0.0339 -0.0470
30977W        W47451   3.308   5.273  12.607  0.0499 -0.3399  0.2130
30978W        W47452   5.840   4.407   0.082  0.1947  0.1679 -0.1389
30979W        W47453   6.887  13.323   3.371 -0.2523  0.1622 -0.2372
30980W        W47454  18.271  11.007  13.741 -0.2389  0.1479 -0.0192
30981W        W47455  17.002   9.458  11.179 -0.0792 -0.1203  0.0293
30982W        W47456  11.839   7.815   0.824  0.1001 -0.2207 -0.1263
30983W        W47457   7.675   8.234  13.691 -0.2234  0.1628 -0.2015
30984W        W47458   2.638   1.965   4.396  0.0132 -0.0627  0.0200
30985W        W47459  12.639   5.551  11.287  0.1894  0.4571 -0.1713
30986W        W47460  19.334  10.590  13.722 -0.1598  0.1011 -0.2498
30987W        W47461  11.420   1.343   0.568 -0.0447 -0.3677  0.1553
30988W        W47462   1.911   7.541   4.484  0.2875 -0.0290 -0.2890
30989W        W47463   9.437  12.133  13.111  0.0327  0.2616  0.3205
30990W        W47464   1.207   7.650   1.243 -0.1693  0.3442  0.0837
30991W        W47465  11.543  17.300  11.882 -0.3377 -0.0056  0.1289
30992W        W47466   5.245   8.740  10.425 -0.1156 -0.0581 -0.4166
30993W        W47467   1.974   9.272   1.359 -0.1863  0.0888 -0.0492
30994W        W47468   7.867   9.037   0.472  0.1346 -0.2051  0.1240
30995W        W47469  14.052   5.012   0.243  0.3079 -0.4731  0.1319
30996W        W47470  15.791   3.264   3.771 -0.2659  0.2433 -0.0761
30997W        W47471  15.106   8.864  10.462  0.3831 -0.1387 -0.0503
30998W        W47472  14.635  14.668  11.376  0.2671  0.0236  0.2318
30999W        W47473  19.344  18.433   2.141 -0.1892  0.0316  0.2602
31000W        W47474  19.207   8.181  10.672 -0.0296 -0.5077  0.3816
31001W        W47475   2.189  16.785   8.574  0.1773  0.1070  0.2593
31002W        W47476  12.468   9.978  11.642 -0.0617  0.0098  0.0299
31003W        W47477   9.658  19.239   9.439  0.3046 -0.0268 -0.3352
31004W        W47478   5.974  10.538  14.086 -0.1325  0.0431 -0.0560
31005W        W47479  12.057   2.785  11.187 -0.0610  0.1987 -0.0439
31006W        W47480   4.297   8.928  13.260  0.0684 -0.0930 -0.3310
31007W        W47481  16.139  16.428   4.385 -0.0746  0.3312 -0.0498
31008W        W47482  10.033   3.612   4.895  0.3073 -0.0565  0.0853
31009W        W47483   4.315  18.076   1.513  0.1603  0.0703 -0.0637
31010W        W47484  11.481  17.049  13.938  0.1279 -0.1373  0.0569
31011W        W47485  13.346  15.196  14.302  0.1111 -0.3249  0.0050
31012W        W47486  13.414   3.643   4.765 -0.1861  0.2008 -0.0766
31013W        W47487  14.326   9.062  13.874 -0.0145  0.2527  0.1173
31014W        W47488  13.900   2.595   4.259 -0.1597  0.0776  0.2739
31015W        W47489  15.387   0.652   3.481  0.1643 -0.4558  0.0844
31016W        W47490   1.085  14.843   3.148  0.0306 -0.0811  0.0411
31017W        W47491   7.118   9.944  12.396  0.3746 -0.0563  0.2471
31018W        W47492   1.399   7.949   5.147 -0.0314  0.2115 -0.1319
31019W        W47493  18.040   8.371   0.681  0.3650 -0.1541  0.1617
31020W        W47494  18.899  13.563   3.798 -0.0787 -0.1055 -0.0953
31021W        W47495  16.026  12.337  11.379 -0.3586 -0.0877 -0.3883
31022W        W47496  12.641   5.298   0.448  0.0533  0.0955 -0.2172
31023W        W47497   1.300  11.236   9.986  0.0043 -0.3077 -0.1707
31024W        W47498   5.190   0.648  11.639 -0.1327 -0.0347  0.0997
31025W        W47499   7.699  11.248   4.453  0.0391 -0.0780 -0.1340
31026W        W47500  16.909  14.024  13.092 -0.0850 -0.1442  0.0806
31027W        W47501  13.481   4.944   1.039  0.1161  0.0432  0.3017
31028W        W47502  17.092   4.008   1.289 -0.3670  0.0717 -0.2276
31029W        W47503   8.594   4.016   3.690  0.0514  0.3833  0.1119
31030W        W47504   0.312   7.307  13.836  0.3653  0.1323 -0.0142
31031W        W47505   1.535   8.860   3.849  0.2022  0.2367 -0.2358
31032W        W47506  11.797   9.619  10.028  0.0160 -0.1023 -0.0682
31033W        W47507  16.110  19.428  10.685 -0.0628  0.2031 -0.1643
31034W        W47508   0.968  10.566  11.324 -0.1200  0.0210  0.4450
31035W        W47509  11.084   9.033   0.370 -0.1610 -0.0456  0.0061
31036W        W47510   7.215   7.294  14.093  0.1492  0.0439 -0.3201
31037W        W47511  18.712  14.288   1.862 -0.1744  0.0084  0.1923
31038W        W47512  16.884  14.725  14.595 -0.1126  0.3373  0.1621
31039W        W47513   1.366  14.961   4.898  0.0369  0.1661 -0.0276
31040W        W47514   4.098  15.842  10.703  0.0270  0.0302  0.0673
31041W        W47515   1.386   9.047  11.097 -0.2444 -0.4270 -0.1938
31042W        W47516  11.569   6.228  14.271 -0.0743 -0.1305  0.0069
31043W        W47517  11.574   9.395   1.531 -0.3613  0.0981  0.2345
31044W        W47518  18.404   4.471  11.921 -0.1777  0.2907  0.0413
31045W        W47519  11.581  17.923   0.145  0.0409  0.0265 -0.1008
31046W        W47520   6.357   3.763   1.610  0.3007  0.1608 -0.0046
31047W        W47521   0.419  16.605  14.029  0.0832 -0.3401  0.3160
31048W        W47522  11.874  11.564   1.942 -0.0694  0.1228  0.1917
31049W        W47523   5.042  10.369  14.003 -0.2588 -0.0681 -0.0063
31050W        W47524  13.306  15.435  13.407 -0.2883 -0.4661 -0.2359
31051W        W47525   5.497  17.566   2.659 -0.2334  0.4369 -0.1609
31052W        W47526  17.935  16.378   9.503 -0.0174  0.1148  0.1680
31053W        W47527  10.586   6.910   0.130  0.2425 -0.0090  0.0635
31054W        W47528   6.970  18.358  10.566  0.1365 -0.2572 -0.3162
31055W        W47529  14.438  17.275   3.201  0.1927  0.1426  0.0818
31056W        W47530  13.712  12.721   3.770  0.2696  0.4163 -0.2375
31057W        W47531   9.082   1.433  12.889  0.1231  0.3754 -0.2494
31058W        W47532   2.653   0.210   3.713 -0.0293  0.1924  0.0607
31059W        W47533   7.589   7.526   1.880  0.5009 -0.2737 -0.3451
31060W        W47534   4.249  18.003   4.117 -0.0482 -0.1286 -0.4222
31061W        W47535   8.783  12.592  13.902 -0.1942  0.2360 -0.2406
31062W        W47536   8.394   0.478  11.206 -0.1244 -0.1592  0.1567
31063W        W47537   4.989  13.403   4.084  0.3762  0.0419  0.2907
31064W        W47538   3.798   8.248  12.989 -0.1940 -0.1603 -0.1739
31065W        W47539   1.926  15.485   5.284  0.2513 -0.2207 -0.0459
31066W        W47540   9.469   1.610  11.607 -0.0500 -0.0342 -0.1643
31067W        W47541   8.534   6.414   2.302 -0.0048  0.0238  0.1072
31068W        W47542   5.305  19.170   0.872  0.2429  0.0245  0.2231
31069W        W47543   9.551  11.016  10.542 -0.0034 -0.0611  0.1324
31070W        W47544   2.672  19.128  11.487  0.5131  0.4522  0.1920
31071W        W47545   1.318   4.024   3.040 -0.0878  0.2704  0.2037
31072W        W47546  17.617  19.603  14.545 -0.0226 -0.0562 -0.0905
31073W        W47547  11.303  17.063   2.045 -0.0420 -0.0171  0.1014
31074W        W47548   1.431  14.848  10.185  0.1780  0.0412 -0.2608
31075W        W47549   3.090   8.817   1.212  0.3151  0.0901 -0.0250
31076W        W47550   9.154   5.783  10.764 -0.0451 -0.0154 -0.0317
31077W        W47551   8.591   5.353   9.403  0.0726  0.2177 -0.0938
31078W        W47552   0.480  15.655   1.760  0.2764  0.3259  0.1540
31079W        W47553  12.736  14.841  13.419  0.2198 -0.1468  0.5114
31080W        W47554  13.298   5.870  12.416 -0.2260  0.0940  0.2039
31081W        W47555  17.699  18.043  12.991  0.2122  0.1265  0.1093
31082W        W47556  15.623  15.379   2.931  0.2892 -0.1312 -0.1794
31083W        W47557   6.077   5.653  14.264 -0.2380  0.2696 -0.1712
31084W        W47558  16.252  19.524  13.781 -0.0854  0.0423 -0.2179
31085W        W47559   5.118  16.546  11.024  0.0708  0.1203  0.1579
31086W        W47560   3.311  14.357  10.528 -0.0740 -0.1950  0.0824
31087W        W47561  17.866   6.450   1.519 -0.3060 -0.2351 -0.0635
31088W        W47562   5.041  19.265  14.633  0.1268  0.1297 -0.2026
31089W        W47563   3.574   3.342  14.536 -0.0474  0.0762  0.0661
31090W        W47564   9.891   3.123  12.536  0.0626  0.2219  0.0018
31091W        W47565  13.370   7.922   4.537  0.1658 -0.1167  0.1124
31092W        W47566   1.695   9.414  14.141 -0.1083  0.0979  0.0295
31093W        W47567   2.463   9.258   0.420 -0.1576 -0.2859  0.1592
31094W        W47568  15.360  13.668  12.820 -0.0853 -0.3748  0.0342
31095W        W47569   0.239   2.386  10.288 -0.1776 -0.1900 -0.0152
31096W        W47570  14.248   5.979   0.253 -0.3659  0.4588  0.0642
31097W        W47571   6.744   1.928   2.530 -0.3224 -0.0666 -0.1751
31098W        W47572  13.661  16.602  12.452 -0.1816 -0.4009  0.1386
31099W        W47573  12.303   2.139  12.471 -0.3469  0.0166 -0.0815
31100W        W47574   4.664  16.359   3.034  0.0113 -0.1338 -0.1284
31101W        W47575  13.591  18.012  14.393 -0.0941 -0.0019  0.2458
31102W        W47576   8.828   0.695  12.370 -0.1843 -0.0672 -0.1092
31103W        W47577   3.592  13.622  13.672  0.1234 -0.2476  0.1432
31104W        W47578   5.126  14.338  11.202  0.2898  0.1342  0.1958
31105W        W47579   0.005  13.336  10.948 -0.2941  0.1915  0.2091
31106W        W47580   8.025  12.253   0.354  0.2745  0.1736 -0.3056
31107W        W47581  19.253   9.239  13.923  0.1973  0.2045 -0.1117
31108W        W47582   3.235  12.652   0.926 -0.0774  0.0332 -0.0362
31109W        W47583  16.773  13.710   2.702  0.2545  0.2859  0.1458
31110W        W47584  15.562   1.316   3.681  0.1768  0.0552 -0.2239
31111W        W47585  11.111  10.515   1.889  0.1283  0.1460  0.0629
31112W        W47586   1.624  14.145  10.865  0.0626 -0.0372  0.0204
31113W        W47587  14.259  13.339  14.151  0.2566 -0.0264  0.0375
31114W        W47588   4.895  15.798  13.137  0.1519  0.4106  0.2139
31115W        W47589  18.070   2.317   0.353 -0.1367 -0.3031 -0.0734
31116W        W47590   4.270  16.736   0.174 -0.0117 -0.2319 -0.0509
31117W        W47591  13.612   1.211   9.104 -0.1734 -0.2639 -0.4302
31118W        W47592   4.860   5.822   2.598  0.0312 -0.0585  0.0384
31119W        W47593   0.207   0.034   1.751  0.1973  0.3027  0.3680
31120W        W47594   2.272   7.131   0.936 -0.0429  0.2747 -0.2954
31121W        W47595  11.486  17.337   3.550  0.3020  0.1548 -0.2932
31122W        W47596   0.026  17.889   0.091  0.0226 -0.0335  0.2027
31123W        W47597   4.362   7.362  10.953 -0.1626 -0.0099 -0.0694
31124W        W47598   0.136  18.093   9.494  0.1718 -0.3408 -0.0430
31125W        W47599  11.070  15.663   1.489  0.3569 -0.2906 -0.1806
31126W        W47600  11.332  12.031   0.070 -0.3104 -0.2651 -0.0509
31127W        W47601   4.769   8.061   3.397  0.0057  0.0217 -0.0265
31128W        W47602   8.983  18.987  12.162  0.0385 -0.0233  0.2884
31129W        W47603   8.899  18.376   5.093  0.1741  0.3877 -0.1258
31130W        W47604   4.231  17.011  11.552 -0.1316 -0.2523 -0.2721
31131W        W47605  15.589   6.976   0.997  0.0549  0.1964  0.0485
31132W        W47606  18.804  12.650   2.638 -0.0654 -0.4799  0.1187
31133W        W47607   6.398  17.539  14.267 -0.0659  0.1572 -0.2470
31134W        W47608   8.807   5.713   1.171  0.0094 -0.2231 -0.2881
31135W        W47609   6.747   1.186  10.132 -0.1415 -0.3144 -0.2961
31136W        W47610   4.513   4.646  13.132  0.0633  0.2175  0.0901
31137W        W47611   7.591   3.922  11.463 -0.0752 -0.2942  0.1218
31138W        W47612  11.859   7.138  13.424 -0.0513  0.0013 -0.1009
31139W        W47613   3.066  15.498   4.161  0.1127  0.2401  0.3636
31140W        W47614  19.106   5.399  12.284  0.0025 -0.1227  0.2175
31141W        W47615  12.515  11.698   1.284 -0.2105 -0.5987 -0.0958
31142W        W47616  13.329  15.523   9.642  0.0896  0.1312 -0.2389
31143W        W47617  12.514  14.735   1.652 -0.0927 -0.2355 -0.2855
31144W        W47618   6.309  11.105  10.966 -0.1788  0.1730 -0.0768
31145W        W47619   7.703  14.621   0.943  0.0220 -0.1111  0.3089
31146W        W47620  14.643   7.009   2.539 -0.1207  0.0393 -0.0043
31147W        W47621   1.029   1.073   5.033 -0.2027  0.0393 -0.2471
31148W        W47622   5.991  13.252  13.825  0.0513  0.0045 -0.1439
31149W        W47623   9.484   5.490   0.231  0.3999 -0.0628 -0.0789
31150W        W47624  10.150   5.101  10.883 -0.1976  0.2316 -0.3445
31151W        W47625   8.300   1.081  14.265  0.0805  0.1754  0.2204
31152W        W47626  11.811  16.873   2.115  0.1449 -0.3458  0.2306
31153W        W47627  17.114   6.483  11.450  0.1005 -0.2493  0.0902
31154W        W47628  14.125  18.575  10.858  0.2400 -0.1878 -0.1174
31155W        W47629  11.044  16.936  13.677  0.0464  0.2709  0.0239
31156W        W47630   9.731  19.595  13.252 -0.0197  0.0979  0.0956
31157W        W47631   9.057  19.137   5.384 -0.0562  0.0676  0.1518
31158W        W47632   6.533   3.640   0.734  0.0087 -0.0524  0.1188
31159W        W47633   2.931  18.924   1.211 -0.2939 -0.3404 -0.0893
31160W        W47634  18.119  17.187   2.608 -0.0197  0.0800  0.1317
31161W        W47635   4.718   3.710  10.333  0.0784 -0.1280 -0.3184
31162W        W47636  14.432   5.951  13.561 -0.0979 -0.1224  0.5060
31163W        W47637  18.361  12.156  10.654  0.1279 -0.2264  0.2085
31164W        W47638   3.528  15.487   1.127 -0.1139 -0.2071 -0.3851
31165W        W47639   6.981   3.808   0.830  0.3287  0.1169 -0.0202
31166W        W47640   5.972  17.625   4.357  0.0967 -0.1092  0.0836
31167W        W47641   1.755  16.600  14.083 -0.1121  0.1764  0.0829
31168W        W47642  14.337   4.675   4.196  0.1559  0.0553  0.3074
31169W        W47643   9.932   1.089   1.606 -0.5485 -0.0355  0.0542
31170W        W47644  13.969  17.837   2.045  0.1711  0.0658 -0.0193
31171W        W47645   7.665  13.457  14.087  0.1826 -0.0514 -0.2593
31172W        W47646   1.948  15.726  12.117  0.0186 -0.1483 -0.5685
31173W        W47647   0.057  13.277  12.305 -0.3196  0.1090 -0.0011
31174W        W47648   7.018  11.695  12.674  0.3018  0.2007  0.1226
31175W        W47649   2.182  12.772   0.155 -0.4499 -0.0097 -0.1681
31176W        W47650  11.517   8.718  14.063 -0.2685  0.2412 -0.0960
31177W        W47651   2.579  18.752   1.548 -0.3996 -0.1225 -0.3215
31178W        W47652  10.620   3.112   4.722 -0.3860 -0.0391 -0.2744
31179W        W47653   4.913   4.733  11.847  0.0402  0.3242 -0.1492
31180W        W47654  17.118  11.737  10.889  0.1519 -0.2746 -0.1414
31181W        W47655  15.966  13.342  13.911 -0.0097 -0.2850  0.0211
31182W        W47656   1.306   6.634  11.551 -0.4454  0.0269 -0.0159
31183W        W47657  11.832   9.345   2.648  0.1689  0.1356 -0.0675
31184W        W47658   6.107   8.828  12.154  0.0735  0.0566 -0.1119
31185W        W47659  19.514  10.907   3.924 -0.0359  0.4429  0.2146
31186W        W47660   4.411   8.858  14.226  0.0010  0.0439 -0.0460
31187W        W47661  12.651  17.714   9.455  0.3174 -0.0140  0.0161
31188W        W47662   0.536  10.842   3.234  0.0387  0.2994  0.1013
31189W        W47663   0.933   4.258  12.179  0.2002 -0.2747  0.1100
31190W        W47664  13.702   4.263   1.756  0.2301 -0.0351  0.1496
31191W        W47665  12.701   5.270  12.474  0.2428  0.1307 -0.0953
31192W        W47666  10.549   4.034   1.193  0.2024  0.0264 -0.0936
31193W        W47667  17.240   6.562  13.490 -0.2669 -0.0379 -0.0846
31194W        W47668   7.463   8.687   9.884 -0.3617  0.4182 -0.2159
31195W        W47669   9.806  17.707   2.092 -0.0796  0.2068 -0.1323
31196W        W47670   8.777  12.329   0.096 -0.0690 -0.3705  0.1575
31197W        W47671  13.546   5.619   0.811 -0.0526 -0.4839  0.0267
31198W        W47672   3.399   2.938   3.578  0.2563 -0.0994  0.0910
31199W        W47673   4.945   3.128  11.519 -0.0278 -0.1312  0.2179
31200W        W47674   1.881   7.457  13.888  0.1271  0.1930 -0.1512
31201W        W47675  18.567   4.676   2.648  0.0622 -0.0004 -0.2884
31202W        W47676   3.388  12.338  14.204  0.1128  0.1382  0.2328
31203W        W47677  10.708   7.830   4.223  0.1729 -0.3997  0.1965
31204W        W47678   7.854  17.741   1.022 -0.3517  0.0278  0.0662
31205W        W47679  11.571   9.823  11.951 -0.0395  0.1602 -0.2040
31206W        W47680   9.485  17.148   2.189  0.0932 -0.3946 -0.0072
31207W        W47681  17.470  12.029   2.476 -0.2353  0.0039 -0.1715
31208W        W47682  13.249   4.177   2.021 -0.0311 -0.1180 -0.0448
31209W        W47683   0.189   5.756  11.767  0.2306  0.2485 -0.3160
31210W        W47684  18.940  14.319  14.448 -0.1331  0.0702 -0.0530
31211W        W47685  19.406   4.068   2.503 -0.2484 -0.0185  0.0370
31212W        W47686   5.999  14.197   4.276 -0.1293 -0.0376 -0.3627
31213W        W47687  16.991   5.877   0.634 -0.0588  0.2841 -0.0949
31214W        W47688  14.246  12.893  12.439  0.3566 -0.1757 -0.2278
31215W        W47689  11.936  14.569   4.124  0.2768 -0.0565 -0.0658
31216W        W47690   1.814   5.880   3.287  0.0849  0.1251  0.1416
31217W        W47691   4.312  11.060   3.667 -0.0639  0.2578 -0.0520
31218W        W47692  12.558   9.858  14.020 -0.0954 -0.2778  0.3210
31219W        W47693  18.150   7.471  12.394 -0.3712  0.1340  0.1903
31220W        W47694   8.460  12.607   1.939  0.2236 -0.0587 -0.3639
31221W        W47695  14.857  15.592  14.196 -0.1347  0.2703  0.0981
31222W        W47696   3.473  16.008   1.651  0.3770 -0.0458 -0.0075
31223W        W47697  18.298   3.342   0.796 -0.3083 -0.1926 -0.1322
31224W        W47698  15.875   9.096   3.900  0.0973 -0.0897  0.1335
31225W        W47699  14.062  13.319  12.510 -0.2600 -0.2032  0.1316
31226W        W47700   4.910   9.247   2.730 -0.0067  0.1644 -0.0730
31227W        W47701  11.748  11.655  14.317  0.0007 -0.2257 -0.0332
31228W        W47702  13.242   3.628   3.815  0.1284  0.1980  0.0079
31229W        W47703  12.647   3.377   1.093 -0.0202 -0.1411 -0.1092
31230W        W47704  10.559   3.900   2.316  0.1561 -0.4712  0.0454
31231W        W47705  15.988   9.557  12.248  0.0062 -0.1666 -0.0931
31232W        W47706  17.757   6.114   1.942  0.1210 -0.2594  0.2967
31233W        W47707   8.986   2.970   2.597  0.2773  0.1420  0.2209
31234W        W47708   1.878   1.194  12.275  0.1203  0.0728 -0.2335
31235W        W47709   0.425  18.880   0.709  0.0282  0.4020 -0.1188
31236W        W47710  13.251   4.390   1.189  0.1407  0.3134 -0.3100
31237W        W47711   8.691   4.387  13.419  0.3102 -0.1459  0.1293
31238W        W47712   5.544   5.638  14.149 -0.2848  0.0020 -0.2731
31239W        W47713   6.655  17.525  10.932  0.2233  0.0073 -0.0579
31240W        W47714   3.445  13.110  11.055  0.2090 -0.2089 -0.0551
31241W        W47715   0.504  13.454   1.139 -0.2399  0.0433  0.2912
31242W        W47716  17.923  18.688   0.175 -0.0702  0.3216  0.1906
31243W        W47717  14.341  15.925   3.343 -0.2894 -0.0293  0.1213
31244W        W47718   0.618  17.010  12.348 -0.2529 -0.0525 -0.0398
31245W        W47719  14.923   6.604   4.101  0.2069 -0.0276 -0.0737
31246W        W47720   6.939  13.644   4.266  0.0516  0.0227 -0.0221
31247W        W47721   0.119   6.741   4.353 -0.0970  0.0663 -0.4819
31248W        W47722  15.354   8.429  14.532 -0.0461  0.2741  0.0667
31249W        W47723  12.729   2.759   2.892 -0.2010  0.1484 -0.1785
31250W        W47724  15.572  18.394   3.720 -0.2549 -0.0922 -0.1061
31251W        W47725   3.849  16.950   3.982 -0.1978  0.0336 -0.2169
31252W        W47726   2.463  14.708   2.266 -0.0473  0.2541 -0.2736
31253W        W47727  10.479   4.519   2.064  0.1798 -0.2550  0.1438
31254W        W47728   6.831  16.722   4.111  0.0259 -0.0920 -0.0458
31255W        W47729  18.072   4.626   3.645 -0.1816  0.2791 -0.0674
31256W        W47730   4.193   2.217   3.876  0.1829 -0.2779  0.0397
31257W        W47731   0.778   8.274  13.873 -0.3801  0.1305 -0.0892
31258W        W47732   2.714  12.343   3.922 -0.0438  0.1292 -0.0348
31259W        W47733  14.459   8.104   3.733 -0.1915  0.2338 -0.0885
31260W        W47734   2.711  17.660   0.897 -0.0024 -0.3631  0.0033
31261W        W47735  19.007  16.211   1.312 -0.0791  0.3163  0.1149
31262W        W47736  17.000  15.674  12.375 -0.1698  0.1370  0.0948
31263W        W47737  17.073  12.869  10.808 -0.0688 -0.1357 -0.0392
31264W        W47738   2.223   1.145  11.237  0.2215 -0.5963  0.1609
31265W        W47739  17.694  14.727  10.990 -0.0119 -0.2953 -0.1495
31266W        W47740   8.502   9.543   3.019  0.0014 -0.0268  0.1993
31267W        W47741   8.868   8.191   1.053  0.3032 -0.0116 -0.0575
31268W        W47742  14.225  18.523   4.413 -0.0106  0.1092  0.1579
31269W        W47743   1.743   5.482   0.364  0.1908  0.2597 -0.2413
31270W        W47744   3.022  11.695   1.544 -0.1005 -0.0862 -0.0203
31271W        W47745  16.157  17.850  13.485  0.1558  0.3222  0.2674
31272W        W47746   5.509   2.318  14.151  0.0093  0.2224 -0.0594
31273W        W47747   9.238   9.822  11.871  0.3507 -0.3064 -0.1001
31274W        W47748   5.298  19.173  14.163  0.0623 -0.1514 -0.0321
31275W        W47749   8.940   0.929   2.033  0.0872 -0.0410  0.0576
31276W        W47750   2.638   9.237  10.723 -0.2627  0.2626  0.5210
31277W        W47751   4.178   7.607   2.085 -0.1314  0.2051 -0.2441
31278W        W47752   8.840  18.538   3.562 -0.2268  0.2232  0.0490
31279W        W47753   1.532   7.928  11.749 -0.1338 -0.3232 -0.1812
31280W        W47754   4.466   5.089   4.716  0.1335 -0.2392 -0.1191
31281W        W47755  13.610   7.696   0.561 -0.1842  0.1376 -0.2584
31282W        W47756  11.524  11.843  11.109 -0.0151  0.1351 -0.4714
31283W        W47757   0.944  15.443   2.065  0.2990  0.1044  0.0402
31284W        W47758   5.616   1.020   2.706 -0.1170  0.3155 -0.1870
31285W        W47759  18.383  12.228  11.149  0.0274  0.0485  0.0129
31286W        W47760   4.989  18.117   3.631 -0.2114 -0.0754  0.0918
31287W        W47761   1.619   1.647  10.904 -0.0274 -0.1291 -0.0328
31288W        W47762  10.540   1.582   5.038 -0.0219 -0.2108  0.0126
31289W        W47763   7.068  18.887  11.429  0.1200 -0.3441  0.0666
31290W        W47764   0.820  10.926   4.711 -0.2039 -0.0480  0.0319
31291W        W47765  11.472   4.024   1.311  0.0148  0.0420 -0.3215
31292W        W47766   8.792  15.863   1.963  0.2229 -0.0751  0.4342
31293W        W47767   4.873  15.328   3.403  0.3229  0.1465 -0.0595
31294W        W47768  14.472   0.770  14.297 -0.2696 -0.1598  0.0510
31295W        W47769   4.490   4.342  13.606 -0.1681 -0.0076  0.0692
31296W        W47770   9.526   2.809   8.800  0.0377 -0.1560  0.1003
31297W        W47771  12.415   0.207   4.412 -0.2677 -0.2007  0.0776
31298W        W47772   7.979  12.500   2.789 -0.0384 -0.1408 -0.3014
31299W        W47773   2.224  18.346   1.323  0.1816 -0.0133  0.0465
31300W        W47774   9.771  17.547   3.463 -0.1792 -0.1112 -0.0302
31301W        W47775   5.110  13.396   2.522  0.1150  0.0718 -0.0736
31302W        W47776   8.419  15.482   3.975  0.1129 -0.1573 -0.0694
31303W        W47777   2.456   3.737  13.541 -0.0390 -0.1148 -0.0958
31304W        W47778  12.901   0.193  10.695  0.0861  0.0542 -0.1282
31305W        W47779   3.168  11.919  14.004 -0.2279  0.1636  0.0849
31306W        W47780   4.099   4.790   1.102 -0.0531 -0.1237 -0.2668
31307W        W47781  11.802  10.656   1.519 -0.4989 -0.2313 -0.1123
31308W        W47782   4.662   9.099   4.642 -0.4822 -0.1118  0.1586
31309W        W47783  13.199  11.050  10.470  0.4696  0.1190 -0.0504
31310W        W47784   1.665   6.396   2.402  0.1014  0.1330  0.1635
31311W        W47785  19.340   3.005   3.772 -0.2124 -0.1407 -0.1741
31312W        W47786  18.660   9.949  13.402 -0.0964 -0.0297  0.3069
31313W        W47787  14.488  16.858  10.915 -0.1890 -0.0950 -0.1710
31314W        W47788  19.445  10.943  12.670  0.2407  0.0714  0.2032
31315W        W47789   2.780   7.840  10.876  0.3078 -0.4986 -0.1025
31316W        W47790   4.469   7.437   3.926  0.2909  0.1765  0.0185
31317W        W47791  16.113  12.478   4.117 -0.0251  0.1919 -0.5004
31318W        W47792  11.776  17.608  11.334 -0.0911 -0.0815  0.0525
31319W        W47793   1.721  17.441   0.986  0.2314 -0.3510 -0.0910
31320W        W47794   3.395  16.359  11.298 -0.3218  0.0070  0.0794
31321W        W47795  11.865   9.574   3.772  0.1151 -0.1132  0.0191
31322W        W47796  11.117  15.620   4.744 -0.0149  0.1146  0.0648
31323W        W47797   7.158   5.946   0.793 -0.1164  0.1329 -0.2337
31324W        W47798   8.167  19.107  12.741  0.0848 -0.2217 -0.1765
31325W        W47799   7.358  17.550  14.525  0.1184  0.0199 -0.0892
31326W        W47800  10.766  10.376  11.294 -0.2396 -0.2251  0.0142
31327W        W47801   8.801  15.056  11.666  0.1684  0.2723  0.1777
31328W        W47802  12.636  12.540  11.549 -0.0191  0.1144  0.1325
31329W        W47803  15.538  17.298   3.132 -0.0501 -0.0134 -0.3161
31330W        W47804   6.006  12.670  11.677  0.0895  0.0027 -0.3316
31331W        W47805  13.975  10.517   0.847  0.0819 -0.3095  0.0033
31332W        W47806   3.517   1.248  14.548  0.1511 -0.1376 -0.2643
31333W        W47807   7.116  16.917  11.115 -0.2044 -0.0330 -0.0213
31334W        W47808   7.971   1.603   0.556  0.2102  0.3568  0.1044
31335W        W47809  11.995   2.949   3.356  0.0513  0.2559  0.1480
31336W        W47810   6.844  17.683  14.455  0.2331  0.0017  0.2375
31337W        W47811  16.769  19.095   3.992  0.0463  0.0289 -0.0847
31338W        W47812   0.295  18.302   0.530  0.2134 -0.3406  0.1030
31339W        W47813  15.091  14.443   0.901  0.2193 -0.0134 -0.1899
31340W        W47814   8.787  10.780  14.446 -0.1578 -0.2064 -0.2400
31341W        W47815  14.231   7.075   1.204  0.1613  0.0407  0.0109
31342W        W47816   9.579  11.905  12.700 -0.3462  0.1008  0.1186
31343W        W47817  13.766   2.476  10.371 -0.1778  0.0680  0.0520
31344W        W47818  17.171  12.167   1.284 -0.0102  0.0621 -0.0444
31345W        W47819   3.596  13.988  10.645  0.0101 -0.3001 -0.1406
31346W        W47820  17.065   0.702  13.013 -0.0298  0.1622  0.2130
31347W        W47821  10.809   0.857  11.490  0.1552  0.1524 -0.2581
31348W        W47822  19.117   3.309  11.263 -0.1654  0.1903  0.2324
31349W        W47823  12.811  16.828   9.376  0.0739  0.0574  0.2079
31350W        W47824  15.808   6.586  14.203 -0.2574  0.1051  0.1554
31351W        W47825   9.210  10.509  14.378 -0.3508  0.2975  0.1285
31352W        W47826  12.651  15.419  10.812  0.2354 -0.1511  0.3014
31353W        W47827  14.538   2.762  14.556 -0.1170  0.2309 -0.0124
31354W        W47828   3.197   2.646  14.459 -0.5157  0.1093 -0.3096
31355W        W47829  14.156   9.887  13.215 -0.0249 -0.1047 -0.1622
31356W        W47830   0.369   9.823  11.195 -0.0406 -0.1785 -0.1949
31357W        W47831  12.673  10.884  12.617  0.2182  0.1402 -0.1553
31358W        W47832   5.547  14.943  11.766 -0.2193  0.0857  0.0894
31359W        W47833  11.264  16.202   3.771  0.2103  0.5503  0.5849
31360W        W47834  19.557  18.385  11.956 -0.2622  0.1164 -0.1671
31361W        W47835   0.849   3.787   4.560  0.3610  0.2302  0.0898
31362W        W47836   9.712   3.622   2.567 -0.4919 -0.0322 -0.3528
31363W        W47837   8.247  16.687   3.564 -0.1371  0.2384  0.1714
31364W        W47838   5.598  16.611  11.004 -0.0099  0.0391  0.2680
31365W        W47839   2.659  11.360   3.090  0.0550  0.0510 -0.1069
31366W        W47840   7.963   0.257  13.183  0.3159 -0.0261 -0.0054
31367W        W47841   2.251  16.479   2.793 -0.0694 -0.0604 -0.0912
31368W        W47842  15.498   9.158  10.814 -0.0321  0.3462  0.1071
31369W        W47843   4.920   2.305   9.077 -0.2237 -0.1753  0.0303
31370W        W47844  11.219   6.495   2.085  0.0067 -0.2117 -0.4748
31371W        W47845  15.479   9.803   1.824 -0.0481 -0.1196 -0.2482
31372W        W47846   7.622   0.118  10.332 -0.2970  0.2780  0.2294
31373W        W47847   8.617  11.331   2.284 -0.0397 -0.2472 -0.0930
31374W        W47848   8.420  14.368   3.710  0.0348 -0.2749 -0.0705
31375W        W47849  19.538  15.850  12.058  0.0836 -0.1781 -0.1356
31376W        W47850   1.319  16.448  12.557 -0.0915 -0.1320  0.3187
31377W        W47851   7.485   8.537  12.977 -0.1275  0.2450 -0.1055
31378W        W47852  17.534  14.303  13.480 -0.0309  0.0184  0.0218
31379W        W47853  18.280  12.922  13.460 -0.2751 -0.2695 -0.0451
31380W        W47854  10.975   7.149  10.746  0.1432  0.0599 -0.1216
31381W        W47855   8.176  14.525  12.801  0.0200 -0.2613  0.1737
31382W        W47856   8.279   9.576   2.581 -0.1683 -0.1292  0.2636
31383W        W47857  13.422   9.035   3.511  0.1994 -0.2568  0.2146
31384W        W47858  12.068   4.181   4.180 -0.0946 -0.0705  0.0937
31385W        W47859   1.371  12.819  14.353  0.1459 -0.1798  0.2027
31386W        W47860  15.449   3.654  13.858 -0.0312 -0.2044  0.0779
31387W        W47861  16.316  13.596  14.342 -0.0499  0.1091  0.1682
31388W        W47862   2.913  12.627   2.651 -0.1570 -0.3408  0.1261
31389W        W47863  13.109   0.758  12.694  0.2003  0.0335 -0.1341
31390W        W47864  15.067  15.902   3.642 -0.0664  0.0590  0.2955
31391W        W47865  12.673  19.128  14.205 -0.0065  0.0289 -0.0850
31392W        W47866  18.066   5.719   2.072  0.1562  0.0200  0.0805
31393W        W47867  16.376  13.130   5.855 -0.0759  0.1283  0.0229
31394W        W47868  14.306  13.177  13.685  0.3164 -0.3031  0.1414
31395W        W47869  12.278   6.776   0.007  0.0014 -0.2692 -0.0266
31396W        W47870  14.496  15.180   2.708 -0.3790 -0.2043  0.0609
31397W        W47871   6.156  13.543   2.700  0.1229 -0.4667  0.2582
31398W        W47872   9.280   4.554   1.788  0.1425  0.1026 -0.4012
31399W        W47873  12.125  13.223  13.774 -0.0349  0.1203  0.0915
31400W        W47874   2.109  15.621  14.311  0.0761  0.1465  0.0634
31401W        W47875   3.569  16.102  14.074  0.1760 -0.2738 -0.2720
31402W        W47876   7.237   6.854  14.264 -0.2369 -0.3682 -0.0853
31403W        W47877  15.088   3.471   5.401 -0.0972 -0.1246  0.1302
31404W        W47878   9.175  13.112   3.767 -0.0403  0.0048  0.0200
31405W        W47879   8.023  18.866  14.300  0.2046  0.0395 -0.4060
31406W        W47880   0.904   3.125  10.065 -0.0945  0.0708  0.0512
31407W        W47881   8.603   8.071  13.186 -0.1889 -0.6117  0.1081
31408W        W47882   4.756  14.411  12.806  0.2299 -0.1728 -0.0854
31409W        W47883  13.844  12.041   2.454 -0.1558  0.1098  0.0392
31410W        W47884   5.325   4.863  10.459  0.0542 -0.0291  0.1505
31411W        W47885  16.012  11.552  13.054  0.0559 -0.0272 -0.0678
31412W        W47886   4.312  18.620   1.841 -0.3906  0.3111 -0.0069
31413W        W47887  11.450   3.627   0.695  0.1066 -0.0629  0.2444
31414W        W47888  16.900   7.833   2.420  0.1088 -0.0869 -0.0766
31415W        W47889  12.725   6.598   2.295 -0.1582 -0.1124 -0.1333
31416W        W47890   4.330   6.189  10.275 -0.2639  0.2029  0.1811
31417W        W47891  11.204   2.073   3.393  0.2083 -0.0962  0.3239
31418W        W47892   6.623  13.091  14.350  0.1248  0.0101 -0.1959
31419W        W47893  16.091   7.641   1.161 -0.0484  0.1218  0.0824
31420W        W47894   1.797  14.979   5.343  0.0016  0.1976 -0.1927
31421W        W47895   1.914   3.342   1.407  0.0489  0.0418 -0.1358
31422W        W47896  13.162   1.149  10.431 -0.0201  0.3070  0.0276
31423W        W47897  18.148   6.219  11.953 -0.2918 -0.1342  0.0243
31424W        W47898   1.714  12.363   2.903  0.0946  0.0760  0.1840
31425W        W47899  16.476  13.517   0.696 -0.0744 -0.0911 -0.2693
31426W        W47900   7.446   4.231  14.566 -0.1891 -0.0560 -0.1953
31427W        W47901   0.479   9.180   1.632  0.3284  0.0892 -0.3072
31428W        W47902   0.143  10.612  12.395  0.2390  0.1579  0.2081
31429W        W47903  15.217  16.112  10.283 -0.1692  0.1203  0.0090
31430W        W47904   9.353  11.515   3.781  0.1019  0.2183  0.2369
31431W        W47905  17.410   4.211  10.230  0.1312  0.3401  0.0361
31432W        W47906  11.401  10.194  13.358  0.0052 -0.0879 -0.0246
31433W        W47907  13.062   7.591   0.700 -0.0724  0.0909  0.0025
31434W        W47908  14.551   1.630   4.572  0.4546 -0.1905 -0.4869
31435W        W47909  11.694   0.003  10.438 -0.1458 -0.1043 -0.3899
31436W        W47910  10.490  13.164  11.727  0.0052 -0.0433  0.2317
31437W        W47911   6.683   5.047  14.469 -0.1243 -0.4877 -0.1433
31438W        W47912  10.027  13.307   3.440 -0.0696  0.2535  0.1329
31439W        W47913   1.052   8.111  13.400  0.1399 -0.1542  0.0290
31440W        W47914  15.726   3.677   4.003 -0.0831  0.3445  0.0094
31441W        W47915   8.123   2.209  10.999  0.0125 -0.0954 -0.0683
31442W        W47916   5.907   8.484   1.713  0.1794 -0.2062 -0.1544
31443W        W47917   3.585  14.991  11.813 -0.3382 -0.3405  0.2712
31444W        W47918  14.298   1.219   5.206  0.0353 -0.1964  0.1733
31445W        W47919   6.743   3.666  11.153  0.0565 -0.1276  0.1041
31446W        W47920   7.947   5.084   2.206  0.3537  0.2650  0.0268
31447W        W47921   6.923  17.484  10.298  0.1084  0.3798  0.0415
31448W        W47922  12.487  15.420   1.228  0.2416  0.0054  0.1411
31449W        W47923   4.413  16.832   0.676 -0.3153  0.0416 -0.0782
31450W        W47924   8.577   0.587   1.683 -0.1354  0.0550 -0.0792
31451W        W47925  17.514   5.728  11.241 -0.2786 -0.3005 -0.1060
31452W        W47926   7.754  15.877   1.220 -0.0206 -0.0052  0.2602
31453W        W47927   2.268   3.378  13.984 -0.1550 -0.0354 -0.1549
31454W        W47928   3.686   0.283  13.766 -0.1496 -0.4736 -0.0681
31455W        W47929  13.211   6.751   0.158  0.3145 -0.0757 -0.1094
31456W        W47930   3.992   3.517   4.223  0.0590 -0.1043  0.4185
31457W        W47931   5.053  15.181   2.964 -0.1969  0.1742  0.3028
31458W        W47932   6.751   1.583   9.706 -0.0351  0.0388  0.1837
31459W        W47933  19.142  12.996   4.285  0.0396  0.0817  0.0762
31460W        W47934   7.017  10.432  13.087  0.2475 -0.0807 -0.2248
31461W        W47935  16.905  18.039  11.190 -0.1485 -0.0492 -0.1273
31462W        W47936   0.653   6.925   2.340 -0.0794  0.0124 -0.2340
31463W        W47937   3.294  12.384   0.073 -0.2165 -0.0229  0.2340
31464W        W47938  18.981   8.559  13.202  0.2322  0.0169 -0.3172
31465W        W47939  11.129  13.424   4.629  0.1159  0.1363  0.3181
31466W        W47940  16.819  12.548  14.589 -0.1282  0.3348 -0.2450
31467W        W47941   0.311   9.019   2.875 -0.0709 -0.0357 -0.0448
31468W        W47942   4.422   4.652  10.591 -0.2383 -0.0701  0.1051
31469W        W47943   3.144  14.910   4.860  0.1039  0.1858  0.0683
31470W        W47944  16.331   8.016  12.883  0.1323  0.1564 -0.0854
31471W        W47945   3.562   5.128  13.034  0.1582 -0.2898  0.1097
31472W        W47946   5.580  13.466   4.077  0.1795 -0.1936 -0.1290
31473W        W47947  11.461   5.013  10.642 -0.0733  0.1800  0.3657
31474W        W47948  13.871   0.821   4.142 -0.1653 -0.0122 -0.1270
31475W        W47949   1.030   3.617   0.116  0.0137  0.0595 -0.0097
31476W        W47950  10.616  16.680  10.038  0.2638 -0.1598  0.0577
31477W        W47951  17.308   7.589  10.341 -0.2780 -0.1696  0.0582
31478W        W47952   3.591   6.045  13.585  0.0172 -0.2105  0.0415
31479W        W47953   1.431   1.272  14.229  0.1851 -0.2682 -0.0575
31480W        W47954  16.641  16.838  12.473  0.1683 -0.3524 -0.0860
31481W        W47955   4.647   1.588   1.876  0.2083  0.2834 -0.2792
31482W        W47956  15.457   9.493  11.964 -0.3116 -0.2842  0.2701
31483W        W47957   9.702  10.589   2.829 -0.2283 -0.2415  0.1765
31484W        W47958  17.531   0.883   2.753  0.0128  0.2677 -0.0824
31485W        W47959   7.314  14.525   2.376  0.0808  0.0024  0.2248
31486W        W47960  18.177   0.566   2.323  0.0200 -0.0047  0.0903
31487W        W47961   4.294  19.095  13.826  0.3030  0.0353  0.4243
31488W        W47962  15.842   2.857  11.530  0.0489  0.0057  0.0304
31489W        W47963  17.486   1.240   0.251 -0.0688  0.3110 -0.1416
31490W        W47964   1.308  17.089  13.146 -0.3531 -0.0624 -0.1662
31491W        W47965   0.438  15.848   3.590  0.0919 -0.1646  0.1885
31492W        W47966   9.394  14.256  13.569 -0.1567 -0.1805  0.2869
31493W        W47967  17.244   7.919  11.564  0.0464  0.1396  0.2426
31494W        W47968  15.837  10.378  10.596 -0.5051  0.1606  0.2850
31495W        W47969  16.849  10.631  12.959  0.1041  0.0126  0.0390
31496W        W47970   1.910  15.755   9.930 -0.2588  0.0946  0.1059
31497W        W47971   6.307   9.854   2.018 -0.4116  0.0125  0.2183
31498W        W47972  11.858  16.801  10.745  0.0546 -0.0025  0.0856
31499W        W47973   2.928   1.076   4.646 -0.1450  0.0505 -0.0722
31500W        W47974  14.515  17.233  10.582 -0.1745  0.2501 -0.3567
31501W        W47975   2.017  14.430   0.671 -0.3786 -0.2047 -0.0438
31502W        W47976  15.186   5.221   2.915  0.2758  0.1205 -0.0202
31503W        W47977   3.717   8.881  14.662  0.1268 -0.2925  0.1454
31504W        W47978   7.478  11.065  13.618 -0.1471 -0.0736  0.0561
31505W        W47979   7.135   7.695  13.214  0.0611  0.2104 -0.1546
31506W        W47980  14.893   8.371  14.186 -0.2230  0.1096  0.3119
31507W        W47981  10.210  18.038  12.133  0.1636  0.0492 -0.0548
31508W        W47982  19.085   0.998   3.291 -0.2052  0.0442  0.3650
31509W        W47983  14.561   5.518   9.827 -0.0829  0.0865 -0.0573
31510W        W47984  13.455   6.867  12.084  0.0328 -0.1891 -0.0137
31511W        W47985   3.487  14.513  13.146 -0.1276 -0.0861  0.1970
31512W        W47986   2.796  11.228   3.548 -0.2002 -0.2031 -0.2532
31513W        W47987   3.439   9.291   1.349  0.2212 -0.1369  0.2429
31514W        W47988  18.083   7.009   3.708  0.1140  0.4220 -0.0681
31515W        W47989   7.132   8.628   4.727 -0.0401 -0.3395 -0.1127
31516W        W47990   1.797  18.670  10.504 -0.0605 -0.2431  0.0679
31517W        W47991   8.051   1.862   1.905  0.1959 -0.0254  0.1571
31518W        W47992   9.584   0.845   2.899  0.0962  0.0529 -0.2973
31519W        W47993  10.126   5.573   0.682 -0.0028  0.2206  0.3812
31520W        W47994   3.606   0.920  10.726 -0.1212  0.0020 -0.1522
31521W        W47995   9.545  15.529   0.856 -0.3564  0.0396  0.0664
31522W        W47996  12.838   9.560   4.298 -0.0263 -0.2858 -0.0848
31523W        W47997  12.058  14.803   2.456  0.0804  0.0011 -0.0415
31524W        W47998  10.391   9.217   0.270 -0.0684  0.2962 -0.0239
31525W        W47999   4.451   0.120   9.697  0.2501 -0.0537  0.1359
31526W        W48000  11.812   0.164   4.927  0.0188  0.0001 -0.0573
31527W        W48001  15.401   5.951  11.429 -0.1079  0.3896 -0.2076
31528W        W48002  16.911  10.726  14.345 -0.0044  0.2237 -0.0428
31529W        W48003   3.425  18.103   4.249  0.1577  0.1725 -0.0988
31530W        W48004   8.544   4.241   4.204  0.1697 -0.1429 -0.0798
31531W        W48005  18.632   1.290   9.050  0.0356 -0.2051  0.1896
31532W        W48006  16.276  11.594   0.605  0.3127  0.3618 -0.2594
31533W        W48007  11.730  13.035   4.882  0.2210 -0.0585  0.0811
31534W        W48008   4.272   0.746  13.420 -0.0174 -0.1899  0.1259
31535W        W48009  18.034  19.000  13.615  0.0426  0.0315 -0.1457
31536W        W48010   3.952   7.414   0.308 -0.0027  0.0060 -0.1076
31537W        W48011  13.193  13.614   4.087 -0.1577 -0.1477  0.0357
31538W        W48012   8.733   8.809   0.534  0.1064  0.0791 -0.3622
31539W        W48013   4.943  11.282  12.316 -0.5677 -0.0137 -0.0924
31540W        W48014   9.595   1.203   2.490 -0.1371 -0.0191 -0.0418
31541W        W48015  17.447   1.588   4.585  0.1271  0.2622 -0.0482
31542W        W48016  15.761  17.222  10.746 -0.0289  0.1949 -0.0148
31543W        W48017   3.459  19.408  11.568  0.0742  0.3597 -0.1057
31544W        W48018  17.447  10.069   0.268  0.0215  0.2706 -0.2007
31545W        W48019  14.429   8.240  14.363 -0.0685  0.0949 -0.3427
31546W        W48020  12.560   3.583   2.016 -0.0706 -0.1745  0.1168
31547W        W48021   0.428   8.323   1.165 -0.0216 -0.1675 -0.3434
31548W        W48022  17.157   4.790   9.319 -0.0376 -0.0189 -0.1709
31549W        W48023   9.050  17.445   5.050  0.2841  0.1401 -0.3002
31550W        W48024  16.664   0.211  12.494 -0.1651  0.0519 -0.0081
31551W        W48025  11.804  15.936  12.463  0.0783 -0.1697 -0.0357
31552W        W48026  10.680  15.625  12.358  0.3920 -0.1180  0.1782
31553W        W48027   5.986  10.226  10.110 -0.0811 -0.2515  0.0432
31554W        W48028   4.498  19.001  14.592  0.1256 -0.1400 -0.0710
31555W        W48029  12.929   3.900  12.257  0.2835  0.0860  0.1469
31556W        W48030   9.963  13.788  12.066 -0.0607 -0.2408  0.0603
31557W        W48031  10.569   5.211  10.091 -0.2276 -0.4689  0.0794
31558W        W48032  19.546  14.031   2.142  0.0379 -0.0135  0.0743
31559W        W48033   9.588   3.042  13.179  0.0695  0.1258 -0.0885
31560W        W48034   5.031   3.734   1.279  0.0977 -0.3075  0.0135
31561W        W48035   8.524   5.495   1.511 -0.1307  0.2108 -0.0829
31562W        W48036  13.445   8.524  13.231 -0.2486 -0.0078 -0.2284
31563W        W48037   8.059  11.408   2.237  0.0227 -0.0419  0.1553
31564W        W48038  16.402  16.393  12.569  0.0056  0.0732  0.0342
31565W        W48039  11.433  13.203  13.493 -0.1216 -0.2705 -0.5388
31566W        W48040   3.522   9.616   2.773  0.0706  0.1581 -0.2668
31567W        W48041   2.114   0.041  10.720 -0.3295  0.2165  0.2074
31568W        W48042  16.628  17.631   0.782 -0.1715 -0.0012 -0.1913
31569W        W48043   6.293   7.534  13.043 -0.2748 -0.0474  0.2835
31570W        W48044  17.983  17.783   3.378  0.0112 -0.0606  0.0470
31571W        W48045   6.224  14.199  10.947 -0.0265  0.0314 -0.0526
31572W        W48046   4.591  11.677  14.635  0.0500 -0.1077  0.1912
31573W        W48047  10.422   8.145   2.521 -0.0877  0.1320 -0.1144
31574W        W48048   5.155   8.319  14.155  0.1855 -0.3043  0.0173
31575W        W48049  14.702   5.003  11.993 -0.2675 -0.2096  0.0461
31576W        W48050   7.538   0.788  11.117  0.1942  0.2804  0.0830
31577W        W48051  10.933  12.864   5.646  0.0674 -0.0272  0.2289
31578W        W48052  17.691   8.826   0.015  0.2359 -0.0337  0.3118
31579W        W48053   5.608   4.142   2.095 -0.5515 -0.0034  0.3317
31580W        W48054  13.891   2.120   1.813 -0.2817 -0.1082 -0.0829
31581W        W48055   9.653  13.881   3.646 -0.0205 -0.3621 -0.1239
31582W        W48056   6.384   2.262   4.764  0.2266  0.0028  0.2390
31583W        W48057   9.544  16.337   1.952 -0.0520  0.1534 -0.2387
31584W        W48058   7.667  12.771   2.451  0.0985 -0.0746  0.0089
31585W        W48059   4.258   2.900  12.813 -0.2133 -0.0091 -0.2017
31586W        W48060   2.628  16.076  12.977 -0.1962  0.4089  0.1754
31587W        W48061  14.328  19.442   9.856 -0.0170  0.0826  0.0668
31588W        W48062   6.988  10.794   4.879 -0.4408 -0.1913 -0.0382
31589W        W48063  11.878   7.170   1.135  0.3251  0.5796  0.0757
31590W        W48064  16.488  18.659   1.700 -0.0175 -0.1514 -0.1834
31591W        W48065  10.840  12.711  13.641 -0.1207  0.2017  0.0147
31592W        W48066  15.068  10.379  13.515 -0.0956 -0.2298 -0.2710
31593W        W48067  14.861   1.293   4.361  0.0915 -0.1267  0.0273
31594W        W48068  11.967   0.582   3.886 -0.2245 -0.1818  0.0700
31595W        W48069   3.027  19.195   0.238 -0.1398  0.0098  0.0352
31596W        W48070   3.737  11.420   1.880  0.0531 -0.1444 -0.0095
31597W        W48071  11.285  11.942  12.024  0.0405 -0.0755 -0.0764
31598W        W48072  16.401  16.417  12.063  0.2924 -0.2000 -0.0828
31599W        W48073  19.389   5.083   9.179  0.0021  0.4461  0.0374
31600W        W48074   7.645   2.662  11.711  0.0519  0.0466  0.3305
31601W        W48075   5.544  15.955   0.239 -0.0252  0.2305  0.3226
31602W        W48076   8.862   5.679  11.280  0.0030  0.1007  0.0131
31603W        W48077  14.400  14.517   5.252 -0.0354  0.0033  0.0730
31604W        W48078   6.479  12.418   3.361 -0.1299  0.1813 -0.0280
31605W        W48079   6.643  11.746   4.945  0.0364  0.1881  0.3012
31606W        W48080   5.697   1.099  13.165 -0.0363 -0.0284  0.1975
31607W        W48081  16.539   6.161  14.241  0.1521 -0.0854 -0.1262
31608W        W48082  13.196   7.563  12.177 -0.0260 -0.1735  0.4811
31609W        W48083   0.508   3.811   0.520  0.2749  0.0256  0.0727
31610W        W48084  10.957  13.879   2.340  0.2629 -0.0108  0.0206
31611W        W48085  11.813   3.797   3.538 -0.0999 -0.2530 -0.4647
31612W        W48086  10.862   2.960  14.042 -0.0052 -0.1086  0.0532
31613W        W48087  14.144  13.805  12.573  0.1085  0.2106  0.0332
31614W        W48088   6.130  19.550   0.248  0.1514  0.2061 -0.0148
31615W        W48089   0.041   6.895  12.469 -0.0802  0.1211 -0.0163
31616W        W48090   6.591  14.660  13.049  0.2075 -0.0092 -0.2577
31617W        W48091  14.841  10.213   4.118  0.3175 -0.2599 -0.0171
31618W        W48092   2.063   8.287  12.800  0.3465 -0.2330  0.1118
31619W        W48093   6.042   6.770  11.836 -0.6027  0.1795  0.0523
31620W        W48094   5.895  14.444  11.472 -0.2078 -0.0998 -0.0827
31621W        W48095   2.311   9.038  13.200 -0.0967  0.2633 -0.1541
31622W        W48096  17.199   0.902   2.342 -0.3755  0.1725  0.1075
31623W        W48097   3.558  11.111  13.723 -0.1415 -0.1566 -0.1328
31624W        W48098  10.138  10.518   3.453 -0.0026  0.2112  0.1132
31625W        W48099   4.267   6.572   4.770 -0.2604  0.0858  0.3190
31626W        W48100  16.613   1.527  12.599 -0.0578 -0.0863  0.0439
31627W        W48101  10.759  19.427  13.774  0.1058  0.0189  0.2961
31628W        W48102  10.896   3.823   9.621 -0.0775 -0.4671 -0.1373
31629W        W48103   3.373  14.271   3.635 -0.0504 -0.0077  0.0377
31630W        W48104  10.051   2.099   9.044 -0.2483 -0.3434 -0.1439
31631W        W48105  17.791   2.098   5.227  0.0225 -0.1054  0.2216
31632W        W48106   6.684   8.575   1.089 -0.4543  0.0098  0.0448
31633W        W48107  11.918   4.831   0.880  0.3362 -0.0667  0.0037
31634W        W48108  12.279  10.172   2.246 -0.0692 -0.1177  0.1831
31635W        W48109   3.949  13.041  11.085 -0.2882  0.1208  0.0176
31636W        W48110   7.253   5.806   1.269  0.0227 -0.1136 -0.1204
31637W        W48111  11.849  15.154   4.299 -0.0742  0.1168 -0.1503
31638W        W48112  15.237  14.102  13.823 -0.1520 -0.0157  0.1064
31639W        W48113  10.901   3.127  14.609  0.3742  0.1528 -0.2002
31640W        W48114   4.133   4.077  11.350  0.1604 -0.6394  0.1544
31641W        W48115  18.730  11.614   4.608  0.0900 -0.0139  0.1375
31642W        W48116  11.325   8.563  10.896  0.1228 -0.2559  0.2497
31643W        W48117   1.947  15.930   0.987  0.0588 -0.2555 -0.2083
31644W        W48118  14.272  12.535  11.472 -0.0410  0.1347 -0.1401
31645W        W48119  10.078   7.135  12.920  0.0951  0.1951 -0.2530
31646W        W48120  10.470  16.544   1.329 -0.1031 -0.3448  0.1366
31647W        W48121   7.770   0.084  12.223  0.0674  0.0710 -0.2330
31648W        W48122  11.987  14.726   4.602 -0.0790  0.3796  0.1680
31649W        W48123   4.973  18.781   0.017  0.4342 -0.2666  0.0753
31650W        W48124  18.926  19.002   0.242  0.0932 -0.0632 -0.2601
31651W        W48125  15.328  15.836   1.407  0.0264 -0.0187  0.1853
31652W        W48126   7.314   7.889   4.158  0.2103  0.0303 -0.2918
31653W        W48127  16.048  17.010   1.920  0.1180 -0.2641 -0.0511
31654W        W48128  18.677  14.631  12.807  0.0642 -0.3580 -0.0583
31655W        W48129   8.617   1.930  11.091  0.1609  0.0647 -0.0886
31656W        W48130  14.857  13.820   4.080 -0.0539 -0.2444 -0.1429
31657W        W48131  15.966   0.978   1.666 -0.2994 -0.1362  0.1876
31658W        W48132  10.751  16.002   2.691 -0.1164 -0.0797  0.1051
31659W        W48133  18.335  16.777   0.163  0.0444 -0.1320  0.2219
31660W        W48134   0.797  15.953  10.993  0.1291 -0.1212 -0.0029
31661W        W48135   8.257  15.703  11.692  0.0647  0.0580  0.4570
31662W        W48136   7.014   4.338   1.103  0.0004 -0.1545 -0.0503
31663W        W48137  12.111  18.609  13.164 -0.0067 -0.1210  0.1116
31664W        W48138   6.714  17.214   9.898 -0.2296 -0.2241 -0.0481
31665W        W48139   6.495  14.043  12.525  0.5243 -0.0512  0.2489
31666W        W48140   4.634  14.108  12.414 -0.1440 -0.1786 -0.0598
31667W        W48141  19.353   0.146  13.447  0.0468 -0.1034  0.1828
31668W        W48142   6.313   8.080  12.808  0.2043 -0.2242 -0.0569
31669W        W48143   6.138   0.551   1.612 -0.0347  0.3159 -0.0334
31670W        W48144   8.529   1.065   1.774  0.3809  0.0973 -0.3806
31671W        W48145   9.592   6.941   0.276  0.0400  0.1974  0.0405
31672W        W48146   1.824   1.913   0.961 -0.1648  0.0697  0.0960
31673W        W48147   3.389   0.700  13.487  0.4096 -0.0551  0.5093
31674W        W48148   0.195   7.379   3.544  0.3124  0.0039  0.1508
31675W        W48149  15.418   2.552   2.447  0.1641 -0.2250 -0.3623
31676W        W48150  14.191  16.020  13.648 -0.0403 -0.1824 -0.1214
31677W        W48151   5.329  11.767   1.395  0.1678  0.0176 -0.1687
31678W        W48152   8.027   9.115   2.182  0.0934  0.0812  0.0961
31679W        W48153  13.798   8.649   2.185  0.3532 -0.0063  0.1287
31680W        W48154   1.816   7.989  13.719  0.3772 -0.0190 -0.3917
31681W        W48155  19.079  13.507  12.426 -0.1473  0.0979  0.2119
31682W        W48156  13.666  15.489   0.900 -0.0855  0.3637 -0.0935
31683W        W48157   3.662  15.486   0.654  0.0065  0.0592 -0.1613
31684W        W48158   7.886   0.786   1.182 -0.0498 -0.0377 -0.2321
31685W        W48159   5.963  16.730   4.420 -0.0152  0.0248 -0.3235
31686W        W48160   2.009   3.025   0.306  0.0164 -0.1564  0.1030
31687W        W48161  17.167  15.213  14.200  0.0483  0.2249  0.3909
31688W        W48162   0.778  14.199   4.315 -0.1092  0.3671 -0.0251
31689W        W48163   3.821   6.273   0.226  0.0250 -0.0609  0.1753
31690W        W48164   4.953   9.977   3.240  0.1342  0.1815  0.2175
31691W        W48165  16.985   9.741   2.895  0.1780  0.2225  0.2096
31692W        W48166  15.553   6.769   1.475 -0.1466  0.0935  0.2098
31693W        W48167  11.895  15.394  13.305 -0.1066 -0.2505  0.0454
31694W        W48168  15.838  19.164   2.676 -0.0246 -0.0969 -0.1524
31695W        W48169  10.553  14.756   9.796 -0.1863 -0.0169 -0.0747
31696W        W48170   8.951   1.969  12.969  0.1525 -0.1437 -0.0780
31697W        W48171  17.898   3.200   2.300  0.1355 -0.0869  0.0913
31698W        W48172   6.360  17.583   2.367 -0.1833  0.0080  0.0864
31699W        W48173   1.805  17.827   2.722 -0.0050  0.3090  0.0503
31700W        W48174   5.888  11.207  13.606  0.1334 -0.0107  0.0654
31701W        W48175  12.291  16.438   4.103 -0.0114  0.0742  0.0115
31702W        W48176   3.878   2.528  11.402 -0.0450  0.1175  0.1269
31703W        W48177  14.787  19.402   3.239 -0.1257  0.0230  0.1001
31704W        W48178  18.290   4.929  13.364 -0.0763 -0.1174 -0.2855
31705W        W48179   7.412   1.173  13.182 -0.0614  0.4311 -0.0895
31706W        W48180  11.177   3.938   0.949  0.2944 -0.1146 -0.2089
31707W        W48181  12.780   2.156  14.261  0.0994 -0.0837  0.1389
31708W        W48182  19.242   9.542   1.750  0.0192  0.1183  0.2762
31709W        W48183  13.867   8.315  11.579  0.1065 -0.3809  0.1514
31710W        W48184  17.235   9.391   3.148 -0.1203  0.1543 -0.1937
31711W        W48185  17.392  16.310   4.333 -0.1781 -0.2018 -0.2301
31712W        W48186  19.337  17.340  12.871 -0.2082  0.0340 -0.1718
31713W        W48187   0.426   2.577  13.487 -0.1960  0.1013 -0.3883
31714W        W48188   3.735   5.758   0.324 -0.2451 -0.0212  0.2388
31715W        W48189  11.443   6.144  11.264 -0.1006 -0.2210  0.2772
31716W        W48190   7.759  12.804  13.694 -0.1741  0.1747  0.3658
31717W        W48191  10.423  18.740  11.540 -0.0927 -0.3040 -0.1089
31718W        W48192  14.275  14.215   1.252 -0.2363  0.4425  0.2098
31719W        W48193   5.956   6.152  14.316  0.0757 -0.0682  0.0314
31720W        W48194  11.405   1.406   2.832  0.1043 -0.1473  0.1143
31721W        W48195   8.723   1.218  13.141 -0.1098 -0.3507 -0.0361
31722W        W48196   9.848  16.274   2.834 -0.1133  0.0720  0.1958
31723W        W48197   6.994  11.441  11.544 -0.0851  0.3652 -0.2489
31724W        W48198  13.409  15.944  10.413  0.0997 -0.1730 -0.0728
31725W        W48199  15.099   8.726   3.329  0.1442  0.0066 -0.0640
31726W        W48200   2.969   4.037   4.837 -0.1328  0.6076 -0.0472
31727W        W48201   7.966  19.596  12.727 -0.0088  0.0224 -0.2708
31728W        W48202   7.443  14.278  14.429 -0.3885 -0.2732  0.2444
31729W        W48203  12.300  17.686  14.070 -0.2948 -0.2334  0.0512
31730W        W48204  14.271  15.021  11.316 -0.1780  0.0328 -0.0627
31731W        W48205   0.929  15.165   4.667  0.0362 -0.1449 -0.2002
31732W        W48206   7.260   3.183   0.716 -0.2066  0.0873  0.1512
31733W        W48207  13.981   7.004  14.437 -0.0290  0.0818  0.4251
31734W        W48208  14.360  17.781  12.009 -0.1617 -0.0565  0.1068
31735W        W48209  19.032   2.556  14.019  0.1346  0.4606  0.0072
31736W        W48210   3.682   5.679  13.268 -0.1249 -0.2525  0.0617
31737W        W48211   7.589   2.158   2.784  0.0062  0.3727  0.3063
31738W        W48212  13.541   1.801  12.570 -0.1869  0.1696  0.2545
31739W        W48213  14.931   0.289   2.458 -0.0739 -0.1609 -0.0553
31740W        W48214   5.192   7.977   3.729  0.1315  0.0016 -0.2063
31741W        W48215  13.384   1.594  13.907  0.0807  0.0250 -0.2055
31742W        W48216   1.354   4.042  12.182  0.3331  0.1859 -0.3242
31743W        W48217   4.987   2.496   0.497 -0.0053 -0.2283  0.2706
31744W        W48218   3.499   0.708   1.157  0.2609 -0.1806 -0.1904
31745W        W48219   7.968   4.577   2.080 -0.0726 -0.1227  0.2719
31746W        W48220  12.521  16.951   4.262  0.0643  0.0841 -0.1066
31747W        W48221  10.150  15.280  11.093 -0.0298 -0.4241  0.1064
31748W        W48222  11.947  14.776   0.046 -0.2626 -0.4986 -0.1266
31749W        W48223  12.848   8.410  11.018 -0.1584 -0.1785  0.0358
31750W        W48224   9.335   4.140   9.875  0.3149  0.2045 -0.1431
31751W        W48225  18.878   8.931  10.625  0.0766  0.1839  0.1916
31752W        W48226  15.451  19.269  12.977  0.3497  0.3093 -0.2001
31753W        W48227  16.187  17.838   2.635 -0.4322  0.0762  0.2771
31754W        W48228  12.653  13.794   0.588 -0.2385  0.0664 -0.0247
31755W        W48229   8.342  11.586   3.319  0.1495 -0.0099 -0.1637
31756W        W48230   2.251   2.021  12.157 -0.2946  0.1132 -0.0893
31757W        W48231  19.057  13.776   2.352 -0.1377  0.2481  0.0982
31758W        W48232   5.037  14.061  11.620  0.2492 -0.0361  0.0173
31759W        W48233   5.365   2.837  13.554  0.0049 -0.0315 -0.0558
31760W        W48234   1.724  11.759  11.285  0.2742 -0.1060  0.4638
31761W        W48235  10.054   4.659   0.606  0.0771 -0.0403  0.1075
31762W        W48236  10.116  11.944   1.538  0.1927 -0.0738 -0.0632
31763W        W48237  10.306  15.179   2.482 -0.0394  0.0149  0.0668
31764W        W48238   6.801  19.032  10.272 -0.1414 -0.0644 -0.2652
31765W        W48239  18.986   0.998   9.317  0.1965  0.0273 -0.0870
31766W        W48240   1.647   3.885   3.861 -0.0112 -0.2527  0.0484
31767W        W48241   0.029  11.477   0.952 -0.1378  0.3543 -0.2465
31768W        W48242   6.083  14.962  11.520 -0.0697  0.2535 -0.1860
31769W        W48243  15.887   1.243   9.199 -0.0788  0.0907 -0.0096
31770W        W48244   0.816  13.540   4.985  0.1819  0.1192  0.0777
31771W        W48245   7.909  17.488   3.595  0.0236  0.2427  0.1272
31772W        W48246  16.442   2.717   9.943  0.0804  0.3189  0.1136
31773W        W48247  10.329  15.699   0.431 -0.0804 -0.2334 -0.0794
31774W        W48248  10.546  15.954   4.992  0.1818 -0.1993  0.0795
31775W        W48249  17.533   0.331   1.393  0.3906 -0.1178  0.0306
31776W        W48250  14.606   7.715   9.998 -0.0710  0.4166  0.1295
31777W        W48251  12.736   9.677  14.504 -0.0111 -0.0894  0.1391
31778W        W48252   3.689  18.405  13.656 -0.0484  0.2489  0.0722
31779W        W48253   3.794   0.762  12.479 -0.1198 -0.1477 -0.0173
31780W        W48254   2.431   4.030   5.018  0.1701  0.3617 -0.2180
31781W        W48255   1.456   2.299   1.092  0.1560 -0.0444  0.0989
31782W        W48256   1.695   6.081  13.712 -0.0854  0.0478 -0.1938
31783W        W48257   7.668  18.160  10.968 -0.3503  0.0858 -0.0565
31784W        W48258  12.450  18.682   2.317 -0.0388  0.0737 -0.4242
31785W        W48259   6.286  15.724  10.463 -0.1277  0.0226  0.2464
31786W        W48260   7.650   1.089   1.549  0.0885 -0.0156  0.0947
31787W        W48261   4.872  17.094   2.658  0.0336 -0.0091 -0.0222
31788W        W48262  12.904   1.204   2.816  0.2382 -0.0424 -0.3009
31789W        W48263   0.050   9.299  11.353  0.1411 -0.1272 -0.1561
31790W        W48264   8.796   9.804  11.614  0.1996 -0.3836 -0.1406
31791W        W48265   7.670   7.029   1.632 -0.3075 -0.0622  0.0478
31792W        W48266   3.529  15.687   2.954 -0.0256  0.2649 -0.0988
31793W        W48267  17.556  14.282   3.525  0.0248 -0.2028 -0.1287
31794W        W48268   4.155   1.485   2.644  0.1899 -0.0892  0.2684
31795W        W48269   9.801   4.482   3.228  0.2810 -0.1043 -0.0715
31796W        W48270   7.626  14.885   9.695  0.0082 -0.1226  0.2279
31797W        W48271   8.829   6.662  13.488 -0.1107  0.0649  0.2035
31798W        W48272  12.481   2.006   1.111  0.0074 -0.2465 -0.0685
31799W        W48273   6.893   9.231  12.483  0.1624  0.1501  0.1787
31800W        W48274   1.769   6.257   0.003 -0.2293  0.0143  0.1977
31801W        W48275   2.031  17.549   1.895  0.0265  0.0136  0.2624
31802W        W48276  11.100  19.468  10.313 -0.0744 -0.1600  0.0301
31803W        W48277  19.461  18.233   1.122  0.0753  0.4850  0.2381
31804W        W48278  10.031  15.755  14.661  0.1147 -0.0245  0.1227
31805W        W48279  16.659  18.772  13.994 -0.1173  0.0561  0.0353
31806W        W48280  14.147   6.432   2.929 -0.2045 -0.0565  0.3938
31807W        W48281   4.634  18.283   3.351  0.1027 -0.0920 -0.2051
31808W        W48282  17.731   0.796  10.544  0.1594  0.0543 -0.1299
31809W        W48283   9.400  11.183   1.767  0.1986 -0.1820 -0.1739
31810W        W48284   0.410  10.809  10.253  0.2606 -0.2712  0.1423
31811W        W48285   9.702  10.646   1.855 -0.2245 -0.1547  0.2142
31812W        W48286  18.082   4.376   1.904 -0.0747  0.1310  0.3062
31813W        W48287  19.096   5.876   0.711  0.0332 -0.1203  0.2537
31814W        W48288   7.926   0.347   2.841 -0.0435 -0.4150  0.1401
31815W        W48289   0.954   6.595   2.001  0.1555 -0.1374  0.0611
31816W        W48290  13.120   9.349  13.360  0.0976  0.0989 -0.1093
31817W        W48291   3.370  19.520   4.526  0.0133 -0.1580 -0.1958
31818W        W48292   2.879   6.636  10.448 -0.4140 -0.0210  0.0211
31819W        W48293   5.100  16.033   0.791  0.0559 -0.0493 -0.0679
31820W        W48294   2.585   1.495  12.341 -0.2053  0.1344  0.0622
31821W        W48295  14.309   5.242   4.314  0.2783  0.1439 -0.3105
31822W        W48296  11.742   3.994   0.849 -0.0299  0.1781 -0.0185
31823W        W48297  10.813   5.467  13.576  0.3244  0.3000 -0.0289
31824W        W48298  17.876   4.029   9.012  0.4105  0.1716  0.1036
31825W        W48299  16.494  12.319  14.144  0.2894 -0.1643  0.0191
31826W        W48300   8.835   5.894   0.499  0.0620  0.0475  0.1160
31827W        W48301  11.439   2.793   5.335  0.1477  0.1232 -0.1581
31828W        W48302  14.686  17.576   3.937  0.2761  0.1622  0.0285
31829W        W48303   2.582   1.850  11.061  0.0293  0.1138 -0.5432
31830W        W48304  10.550  17.647   2.444  0.2106  0.2626 -0.1118
31831W        W48305  11.198  16.332  11.942  0.1891 -0.1270 -0.4393
31832W        W48306   7.029  15.887  13.003 -0.2441 -0.4169 -0.1124
31833W        W48307   6.766  14.450  12.650  0.1732  0.1890 -0.3005
31834W        W48308   8.848   1.191   1.350 -0.2807  0.2240  0.1321
31835W        W48309   0.967  19.354   0.345  0.0530  0.1484 -0.3027
31836W        W48310   3.575  19.520  13.314  0.1155 -0.2170 -0.0021
31837W        W48311   5.978   3.933  11.247  0.0277  0.0847 -0.2868
31838W        W48312   0.646  10.863   2.179 -0.1277  0.1153  0.0355
31839W        W48313  18.342  15.553  12.020  0.1253 -0.0923  0.0203
31840W        W48314   2.141   9.260   9.501 -0.1012  0.1128  0.1910
31841W        W48315  16.595   1.500   3.779  0.1244  0.0061  0.3119
31842W        W48316  10.704   8.737   3.615 -0.0824 -0.2000 -0.3303
31843W        W48317  19.169   5.408  13.631 -0.1195  0.1963 -0.0282
31844W        W48318  12.935   7.127   0.529  0.1527 -0.2515  0.1054
31845W        W48319  10.213  18.035   3.692 -0.2714  0.1326 -0.3201
31846W        W48320   3.877  18.713   3.880  0.3098  0.3939  0.1952
31847W        W48321  18.931   9.334   4.535  0.1854 -0.0170  0.3320
31848W        W48322  11.654   8.389  10.535 -0.0381 -0.0976 -0.6286
31849W        W48323  18.576   0.955   3.425 -0.1131 -0.0765  0.0891
31850W        W48324  15.066   1.311   1.433 -0.2788 -0.2753 -0.4506
31851W        W48325  17.812   7.987  13.538  0.0336  0.1784  0.0323
31852W        W48326   8.308   9.083  12.582 -0.1724  0.0257 -0.0822
31853W        W48327   3.399  16.949   1.960  0.4934 -0.0900 -0.1772
31854W        W48328  12.796   9.909   0.374  0.0469 -0.0227  0.1820
31855W        W48329   2.299  13.579   1.152  0.0851 -0.0449 -0.2307
31856W        W48330  13.238   3.993  14.158 -0.0267 -0.0113 -0.1492
31857W        W48331   9.489  18.409   0.305 -0.1829 -0.0304  0.1567
31858W        W48332  11.540   9.467  14.182  0.0189 -0.0833 -0.0197
31859W        W48333   4.856  11.076   1.676  0.0085  0.0992  0.0012
31860W        W48334  13.329  19.580   0.155  0.0882  0.0802  0.0293
31861W        W48335  17.746  10.920   0.835  0.0057  0.2563  0.0540
31862W        W48336   8.694  14.657   9.913  0.1694 -0.0300 -0.1441
31863W        W48337   4.416   9.424  11.644  0.0611  0.1407  0.2898
31864W        W48338   0.292  11.890  13.092  0.0374 -0.1118  0.0322
31865W        W48339  12.439   9.307  10.544  0.0588 -0.2612 -0.2174
31866W        W48340   2.495   0.553  10.118 -0.0467 -0.0327 -0.0462
31867W        W48341   0.799   5.522   0.065  0.0255 -0.1191  0.0934
31868W        W48342   8.093  15.659  11.131  0.2669 -0.0322  0.1360
31869W        W48343  17.438  10.135   5.637 -0.1870 -0.0553 -0.0068
31870W        W48344   6.339  17.269  12.449  0.1100 -0.1363  0.0475
31871W        W48345   4.792  11.017   9.746  0.0219  0.1085  0.0664
31872W        W48346  10.976  13.038  11.480 -0.1431  0.2192  0.0779
31873W        W48347   2.849   4.059  12.556 -0.1639 -0.0261  0.3351
31874W        W48348  13.037   5.420   1.102 -0.0837  0.0075 -0.0268
31875W        W48349   4.527   6.216   4.072  0.2026  0.1352  0.0959
31876W        W48350  15.404   3.077   2.533  0.1443 -0.0417 -0.0848
31877W        W48351  18.187  10.562  11.427 -0.0578 -0.1704  0.0696
31878W        W48352  14.120   2.368  12.260 -0.2877  0.1521  0.3079
31879W        W48353   9.267  15.277  13.696 -0.1555  0.1174  0.5053
31880W        W48354  14.026   5.892   1.704  0.1366 -0.2000 -0.1889
31881W        W48355  14.934   3.091  12.466 -0.1132  0.1354  0.1795
31882W        W48356   5.613  19.386   3.543  0.2303  0.4311 -0.1164
31883W        W48357  12.775   4.043   3.040 -0.0770  0.0758 -0.0482
31884W        W48358   7.569   3.447  11.609  0.0545 -0.4013  0.0113
31885W        W48359  18.212   0.893  10.679 -0.3238 -0.0943  0.0457
31886W        W48360  16.829  18.841   2.378 -0.2090 -0.2272 -0.0692
31887W        W48361   0.437   6.137   2.143  0.2209 -0.1955 -0.2162
31888W        W48362  15.913   2.935   1.169 -0.0232  0.0410 -0.0865
31889W        W48363   5.502   6.684  10.718 -0.0089 -0.0766 -0.0367
31890W        W48364   8.496   4.448   3.364 -0.1573 -0.1812  0.0624
31891W        W48365  16.241  17.644  11.897 -0.1093 -0.2831  0.2036
31892W        W48366   3.181   3.705   2.829 -0.3393 -0.0944  0.1231
31893W        W48367  18.553   8.754  12.329  0.0456  0.4362  0.2609
31894W        W48368   7.035  11.982   1.711  0.0813 -0.0571 -0.1269
31895W        W48369  15.661  13.068   1.852  0.4244  0.2261 -0.1389
31896W        W48370  16.526   2.287   1.164  0.0454  0.2467  0.0376
31897W        W48371  13.609   1.669  13.057 -0.0585 -0.0701  0.0772
31898W        W48372   2.329  18.772  10.608  0.0194  0.1599 -0.0553
31899W        W48373  17.256  17.133   4.420  0.2340  0.4040 -0.0886
31900W        W48374  13.079  13.191  12.608 -0.0528  0.0969 -0.2197
31901W        W48375   4.128   8.406  11.734  0.2340  0.1397  0.0485
31902W        W48376   4.788   1.925  12.128 -0.0693 -0.0464  0.2266
31903W        W48377  18.891  15.476   4.288 -0.2816 -0.2373 -0.0097
31904W        W48378  14.229   0.815   3.791 -0.0076  0.1301  0.0771
31905W        W48379  18.789  11.280   9.160  0.3857 -0.1636  0.0496
31906W        W48380   4.167  13.101  11.520 -0.2450 -0.0981  0.0632
31907W        W48381   9.648   7.408  11.065 -0.0094  0.1522  0.2395
31908W        W48382  16.298  19.187  10.145  0.2475  0.0557 -0.0814
31909W        W48383  18.962   4.101  13.262  0.2056  0.5086 -0.0616
31910W        W48384  15.275  16.940  12.371 -0.1221 -0.3153  0.2391
31911W        W48385   8.883   6.828   4.815 -0.1495 -0.1620  0.1200
31912W        W48386   8.151  15.778   0.891  0.0034  0.0474 -0.1466
31913W        W48387   2.704   0.946  13.777  0.1149  0.0350  0.1904
31914W        W48388   8.585   7.155   3.941 -0.4167 -0.3730 -0.1381
31915W        W48389  10.556  13.558  13.343  0.1805 -0.1029  0.1786
31916W        W48390   0.475  13.696   2.300  0.0396 -0.0955 -0.0909
31917W        W48391   6.008  11.751   3.845  0.1083 -0.1314 -0.2813
31918W        W48392  14.787  17.177   1.375  0.0535 -0.1973 -0.2922
31919W        W48393  16.843   2.074  10.480  0.4419 -0.1626 -0.3351
31920W        W48394  10.250  18.380   2.877  0.1977  0.0255 -0.2758
31921W        W48395   7.385  16.160   0.921 -0.2883 -0.2040 -0.0067
31922W        W48396   5.470   9.907  13.628 -0.3107  0.1698  0.2842
31923W        W48397   1.600  15.970  13.923 -0.1682  0.2864 -0.0458
31924W        W48398   9.729  14.256   1.624 -0.2504  0.0926  0.1605
31925W        W48399  19.415  16.900  10.796 -0.3628 -0.0123 -0.0445
31926W        W48400  16.740   8.045   3.549  0.0382 -0.1468  0.0545
31927W        W48401   1.897   4.428  13.095 -0.0628  0.2229 -0.0877
31928W        W48402   3.319   8.522  11.789 -0.0199  0.0125  0.1582
31929W        W48403  16.621   6.310   0.119  0.3436 -0.0713  0.2437
31930W        W48404  10.922  12.309   3.465 -0.0282  0.0140  0.2120
31931W        W48405   9.398   1.427  14.344  0.2491  0.0730 -0.2148
31932W        W48406   9.105  18.456  12.037  0.0685  0.1502 -0.0231
31933W        W48407  17.654  18.654   1.163  0.4145  0.0317 -0.0230
31934W        W48408   9.910   9.956  14.066 -0.0284  0.0946  0.0356
31935W        W48409   1.753   8.848   2.961  0.2736 -0.3256 -0.0420
31936W        W48410   4.682  13.101   1.310  0.1232 -0.0170  0.0276
31937W        W48411  19.315  15.253   0.621 -0.0842 -0.0804 -0.2033
31938W        W48412  15.700   0.292  13.716 -0.1865 -0.1862  0.1983
31939W        W48413  17.467  16.973  11.888  0.1754  0.0374  0.0304
31940W        W48414   0.884   5.383   1.891  0.1729 -0.1876  0.0576
31941W        W48415   0.822   8.470  12.941  0.3868 -0.0204  0.0530
31942W        W48416  16.045   5.292   0.195 -0.1777  0.2382  0.1135
31943W        W48417  13.881  13.261   2.740 -0.2428 -0.3054  0.1052
31944W        W48418  13.154   6.223  10.947 -0.2859  0.0057  0.0185
31945W        W48419   3.377  19.338  14.555  0.0803  0.0324 -0.0003
31946W        W48420   0.935   6.272   1.219 -0.0098 -0.0612  0.0644
31947W        W48421  11.535  11.653   3.176  0.2329 -0.0681  0.3935
31948W        W48422   0.987  17.958   1.172  0.2737 -0.1304 -0.0534
31949W        W48423  13.638   2.007   3.603  0.0799 -0.1349 -0.2715
31950W        W48424  12.200  15.117   2.821 -0.0718  0.1346 -0.0581
31951W        W48425   6.272   6.348  10.583  0.4810 -0.0532  0.3095
31952W        W48426  14.874   1.107   1.038 -0.1524  0.3688  0.1287
31953W        W48427  16.754  17.256  14.658 -0.1133 -0.1927  0.1933
31954W        W48428   9.127   4.761   0.887  0.1274 -0.4867 -0.0925
31955W        W48429  15.071   9.436  10.563 -0.0991 -0.0755  0.1367
31956W        W48430  16.770  18.846  12.197 -0.0879 -0.0944  0.2229
31957W        W48431   8.405  18.351   4.086  0.0147  0.2401 -0.3277
31958W        W48432  15.226  13.796  13.434  0.0972 -0.0452  0.2399
31959W        W48433   9.883  12.398   4.917 -0.2305 -0.3345  0.2233
31960W        W48434   0.500  19.572  11.781 -0.1766  0.0921 -0.1155
31961W        W48435   0.496   9.102  11.195  0.0937  0.0937 -0.0522
31962W        W48436   4.150   8.062   2.422  0.0368  0.1372 -0.3089
31963W        W48437  17.078   3.793   9.982  0.2482  0.2228  0.1193
31964W        W48438  11.925   9.207  10.894 -0.1169 -0.2910  0.0716
31965W        W48439  10.649   3.889   3.643  0.0610  0.1934  0.0262
31966W        W48440   3.466  13.027   2.955  0.3592  0.2949 -0.3394
31967W        W48441   7.640  18.686   1.649 -0.1546 -0.1207 -0.2746
31968W        W48442   0.946  13.728   4.238  0.5321  0.1156  0.1981
31969W        W48443  15.895   2.328  11.636 -0.1397 -0.1751 -0.0288
31970W        W48444   0.042   9.682  11.658  0.1670  0.0929  0.1572
31971W        W48445   0.397  15.660  10.918 -0.1059 -0.2336 -0.2898
31972W        W48446  18.995  19.439   4.116 -0.1127 -0.1701  0.0672
31973W        W48447   3.924  18.670  10.700  0.1004 -0.3881 -0.0386
31974W        W48448   9.787  18.515  13.962  0.0126  0.1515 -0.3096
31975W        W48449  14.096  10.571   3.496  0.2710  0.0920 -0.3396
31976W        W48450   5.183  11.840   3.372 -0.0747 -0.0639  0.0419
31977W        W48451  14.761  13.297   1.400  0.0368 -0.0804  0.2945
31978W        W48452   5.694   2.939   9.980  0.2323 -0.0118  0.1293
31979W        W48453   1.606  16.175  13.393 -0.1847 -0.5007  0.1659
31980W        W48454  18.746   4.874  11.943  0.1075 -0.1361  0.1735
31981W        W48455   9.436  14.819   3.535  0.0973 -0.0367  0.1096
31982W        W48456   7.375   4.808  11.425 -0.1482 -0.1805  0.0460
31983W        W48457   0.179   3.107   3.758 -0.0547 -0.0372  0.0292
31984W        W48458  15.862  17.691   2.962 -0.1706 -0.0409  0.1945
31985W        W48459  14.164   2.785  14.163 -0.2436  0.1561 -0.1000
31986W        W48460  17.982  15.120   2.558  0.1622  0.1583  0.1599
31987W        W48461   9.195   8.686  11.420  0.1938  0.0388  0.1802
31988W        W48462   8.923   0.410  12.892  0.1548  0.0169  0.2222
31989W        W48463  19.432  10.589   2.561 -0.0751 -0.1637 -0.1028
31990W        W48464   4.463   8.260   2.970  0.2041  0.1413 -0.3774
31991W        W48465   6.165   0.974  13.836  0.1253 -0.0705  0.0198
31992W        W48466   7.173   9.616   4.326  0.0797 -0.0539  0.0624
31993W        W48467  10.485  11.532  11.576 -0.3808  0.0475 -0.0511
31994W        W48468   3.811  11.799   5.662 -0.0970  0.1681  0.0846
31995W        W48469   4.799  16.766  12.731  0.1532  0.4139 -0.0091
31996W        W48470  12.642  19.237   5.291  0.5922 -0.0446 -0.1901
31997W        W48471  13.790  11.496  10.816 -0.1501  0.1732  0.0080
31998W        W48472   5.981  10.545   1.435  0.1345 -0.1572  0.0579
31999W        W48473   4.975  16.939   1.503  0.1094  0.0892  0.0632
32000W        W48474   8.187   7.355   3.766 -0.2678  0.0545  0.0151
32001W        W48475   3.198  15.190   3.667 -0.0592  0.1599 -0.1707
32002W        W48476   2.862  14.261   0.991 -0.2472 -0.1422 -0.0167
32003W        W48477  19.165  17.830  13.659 -0.2554  0.0150 -0.2209
32004W        W48478  12.180  11.267  14.198  0.0794  0.3474  0.0114
32005W        W48479   3.057  19.504   3.733 -0.2434 -0.2070  0.0936
32006W        W48480  16.225  13.517  12.561 -0.0723  0.0463  0.0747
32007W        W48481   2.784   7.421   4.944 -0.0423 -0.1321 -0.0076
32008W        W48482  12.779  16.484   5.101  0.1240  0.2926 -0.1396
32009W        W48483  18.532   7.518   0.420 -0.0020  0.0311 -0.0943
32010W        W48484   8.650   3.545   3.088  0.1038  0.0095 -0.1387
32011W        W48485   9.325   3.469  14.308  0.0530 -0.0927 -0.3164
32012W        W48486  12.405   0.282  11.612 -0.3380 -0.0898  0.0598
32013W        W48487   1.386  19.053   0.139 -0.0813  0.2864 -0.3197
32014W        W48488  11.923  10.978  10.581 -0.0711  0.1450 -0.1534
32015W        W48489  10.843  11.017   1.067 -0.2433  0.3252 -0.0804
32016W        W48490   9.533  18.119   1.679  0.1060  0.3668  0.1887
32017W        W48491  13.709   1.264   1.135 -0.1672  0.2417  0.1472
32018W        W48492  12.829   1.439   0.378 -0.2543  0.2288 -0.1755
32019W        W48493   9.824  15.891   4.656 -0.2111 -0.0330 -0.2217
32020W        W48494  10.893  11.186   2.263  0.0124 -0.1784  0.0267
32021W        W48495   7.259  10.743  10.894  0.3089  0.1536 -0.2457
32022W        W48496  18.251   8.229  11.378 -0.0484  0.0742  0.0089
32023W        W48497   3.800   3.010  12.538 -0.0055  0.2500  0.2333
32024W        W48498  12.778   7.781  12.165  0.0553 -0.0402 -0.0332
32025W        W48499  17.268   1.097  14.033  0.0652 -0.1377 -0.1887
32026W        W48500  10.621  10.825   1.467 -0.1023 -0.4291 -0.0533
32027W        W48501   1.970  11.499   0.405  0.1086  0.0278 -0.0191
32028W        W48502   6.338  11.752  12.124 -0.4829 -0.1350  0.1499
32029W        W48503   0.626  13.613  13.354 -0.2051 -0.3639  0.2427
32030W        W48504  13.283   4.502  13.861  0.2149  0.1730 -0.1073
32031W        W48505   8.049   1.916   2.771  0.1202  0.1135 -0.4265
32032W        W48506   1.594   6.877  11.171 -0.2087 -0.0111  0.1714
32033W        W48507  11.577   1.505  12.057  0.0857  0.0039  0.1207
32034W        W48508  16.408  14.070  10.658 -0.2297 -0.0294  0.0731
32035W        W48509   7.043  14.151   4.401 -0.0437 -0.2078 -0.0619
32036W        W48510  10.133  14.494  13.230  0.0559 -0.1873  0.2561
32037W        W48511  19.012  16.151   0.812 -0.0713 -0.0234  0.2849
32038W        W48512   2.226  14.736   4.975  0.1567  0.3870 -0.3504
32039W        W48513   7.576  14.563   1.883  0.0473 -0.0374 -0.0459
32040W        W48514   9.727   4.517  14.447 -0.0714  0.0157  0.0284
32041W        W48515   1.020  17.545   3.317 -0.1128  0.2297 -0.0035
32042W        W48516  16.004  13.813  14.666  0.3651  0.2299 -0.2633
32043W        W48517  19.300  12.576   2.397  0.1645  0.0616  0.0678
32044W        W48518  14.566   9.078   0.886  0.1204  0.0580 -0.2707
32045W        W48519  18.950   6.606   0.246 -0.1727  0.2805 -0.2996
32046W        W48520   6.301  12.048   0.337  0.2529 -0.0591  0.2090
32047W        W48521   3.457   9.317   2.333  0.0897 -0.0450  0.3174
32048W        W48522   4.456   7.678   3.421 -0.3058 -0.0016  0.0343
32049W        W48523   4.954   5.249  13.562  0.0523 -0.3220 -0.3758
32050W        W48524  10.176  16.379  12.124  0.2292  0.2668 -0.2452
32051W        W48525  13.996  10.190   4.058 -0.0200  0.0884  0.1273
32052W        W48526  10.629   3.955  14.386 -0.2225 -0.1115  0.0038
32053W        W48527  13.397   6.425  11.809 -0.2153 -0.0466 -0.0084
32054W        W48528  13.301  13.324  14.497 -0.1813 -0.2514  0.0983
32055W        W48529  16.375  14.163  10.189  0.0950  0.1929 -0.1989
32056W        W48530  15.125   2.970   0.122 -0.0409  0.0431 -0.1452
32057W        W48531   4.141  18.190  11.399 -0.2258 -0.2335 -0.2002
32058W        W48532  13.812   1.687   2.952  0.0024 -0.3190 -0.1518
32059W        W48533  10.692  18.184  14.647  0.2047  0.0992 -0.2015
32060W        W48534  16.012  19.019  10.965 -0.1133 -0.1580  0.0019
32061W        W48535  15.876  12.216  10.834  0.3571  0.1656 -0.1583
32062W        W48536  10.566   7.912  10.014 -0.2355 -0.2854  0.2529
32063W        W48537  18.793  11.819  12.075  0.1675 -0.0263 -0.0367
32064W        W48538  14.699   6.679   9.907  0.0633  0.0807  0.0471
32065W        W48539   7.399  15.405   3.862  0.0030 -0.2404 -0.1493
32066W        W48540  16.461  11.972   0.018 -0.2749 -0.1673  0.0312
32067W        W48541  16.163   5.554   2.697 -0.0765  0.2445 -0.0264
32068W        W48542   3.956  19.248  10.342 -0.1114 -0.1020  0.2296
32069W        W48543  10.097  10.164  10.367 -0.0756  0.2992 -0.0775
32070W        W48544  14.907  10.395  12.974  0.2647 -0.3092  0.1457
32071W        W48545   0.092  13.226   2.724 -0.1161 -0.0096 -0.3492
32072W        W48546  16.405   8.978   2.548 -0.3879 -0.0947 -0.3135
32073W        W48547   8.377  15.379  13.969 -0.2304 -0.2825  0.1798
32074W        W48548  11.854  16.556  10.253 -0.1380 -0.4678 -0.0008
32075W        W48549  14.127  14.970   9.625 -0.0298  0.1923 -0.2436
32076W        W48550   9.898   7.761  12.582  0.0627  0.0777 -0.1787
32077W        W48551   4.904   0.734  14.317  0.0701  0.1579 -0.1610
32078W        W48552  18.717  18.324  12.993  0.2625 -0.0659 -0.1966
32079W        W48553   5.962   7.551  14.030 -0.0966 -0.0592  0.0708
32080W        W48554   9.073  19.481   4.127 -0.0902  0.1011 -0.1121
32081W        W48555  17.285  12.952   3.180 -0.0744 -0.1316 -0.1375
32082W        W48556  12.090   4.340   0.909  0.2093  0.2284 -0.0766
32083W        W48557  13.597   1.612   3.969  0.0712  0.0149 -0.1710
32084W        W48558  17.077   9.041  11.503  0.3783  0.0739 -0.1199
32085W        W48559   8.524   9.404  12.916  0.1167  0.1200 -0.1289
32086W        W48560  16.524   4.512   0.313 -0.1340 -0.0054 -0.1328
32087W        W48561  17.643  19.477  10.697  0.0247 -0.0954 -0.0491
32088W        W48562   0.706  10.106   1.638 -0.0155  0.3174  0.6788
32089W        W48563   4.664   5.521   1.293  0.1109  0.0639  0.0313
32090W        W48564   0.986   1.513  12.630  0.0334  0.0578 -0.1437
32091W        W48565   3.537  14.653   2.426 -0.1867 -0.1648 -0.1064
32092W        W48566   7.261  17.608  12.372 -0.2559  0.3793  0.0375
32093W        W48567   2.083   2.045   4.547 -0.3173 -0.1439  0.3831
32094W        W48568   7.140  12.445  12.410 -0.0930  0.1853  0.1943
32095W        W48569   9.370   7.483   0.520  0.1462  0.0878  0.1331
32096W        W48570   2.240  12.719   4.989 -0.1156  0.1053 -0.2872
32097W        W48571   8.174  19.461   1.471  0.1072 -0.2001 -0.0352
32098W        W48572  19.128  12.873   0.022 -0.0070  0.2850  0.0634
32099W        W48573  15.394   5.868   1.674 -0.2535 -0.0771  0.3171
32100W        W48574   0.467  16.541  14.508  0.2606  0.0971  0.1264
32101W        W48575   2.446   6.005   4.245 -0.1150 -0.1855 -0.0429
32102W        W48576  18.137  18.444  10.971  0.1795  0.1179  0.0351
32103W        W48577  13.231   1.382  10.929  0.1263 -0.1745  0.2808
32104W        W48578  18.999  17.833  10.772 -0.3183  0.1556 -0.0479
32105W        W48579  15.122  10.081   2.944  0.2183  0.1969 -0.0524
32106W        W48580   1.099  16.757   2.525 -0.0170 -0.0468 -0.1289
32107W        W48581  13.669  16.763   0.018 -0.1751 -0.1488 -0.2616
32108W        W48582   7.770   6.673   4.250  0.0116  0.1834  0.0985
32109W        W48583   1.093  18.071   0.700  0.0729 -0.2585  0.2825
32110W        W48584  15.000   1.172   2.313 -0.0002  0.0454 -0.1338
32111W        W48585  16.306   3.466   1.920  0.0727  0.3288 -0.2163
32112W        W48586  17.689  19.022  10.413  0.1793 -0.0648 -0.4085
32113W        W48587  15.243   3.511  14.405  0.0404  0.1637 -0.1108
32114W        W48588  11.358  18.034   2.197 -0.0660 -0.2068  0.0920
32115W        W48589  10.034  18.198   5.068  0.1382  0.1537  0.2716
32116W        W48590  11.860  12.068   3.195 -0.4122  0.0757 -0.0304
32117W        W48591  10.424  16.814   5.774  0.4535  0.2905 -0.1167
32118W        W48592   0.246   6.605   0.450 -0.1471 -0.0669  0.5337
32119W        W48593   2.476   0.464   4.143  0.1277 -0.0047  0.1236
32120W        W48594   5.777  13.088   5.494  0.2579  0.0838 -0.2583
32121W        W48595  17.960   3.717  13.649  0.0603  0.0241  0.3508
32122W        W48596  13.395   4.309   0.329  0.0639 -0.0035  0.2210
32123W        W48597  15.445  16.231   1.748  0.2492 -0.2401  0.3421
32124W        W48598   3.824  16.709   4.465 -0.0340 -0.0216  0.3270
32125W        W48599  12.304   5.416   3.782  0.0372  0.2794 -0.4197
32126W        W48600  18.126  10.100   1.326 -0.0596 -0.1723 -0.0297
32127W        W48601  17.194  16.513  10.875 -0.2534 -0.2242 -0.2827
32128W        W48602   5.420   4.886  14.450  0.0965  0.2161  0.0320
32129W        W48603   6.478  15.932   1.331  0.0191 -0.2584  0.1390
32130W        W48604  13.477   5.741   3.033 -0.0950 -0.1413 -0.2207
32131W        W48605   3.114   5.735  12.463  0.2687  0.1542  0.1513
32132W        W48606  13.536  11.123  12.207 -0.2649  0.1370  0.2954
32133W        W48607   1.426   3.665  11.057  0.0923 -0.1202 -0.0270
32134W        W48608  13.430   7.955   2.734  0.1293 -0.1367  0.2066
32135W        W48609   4.789   1.027   3.192  0.2673 -0.2718  0.0195
32136W        W48610   4.335  13.765   0.813 -0.0224  0.1525 -0.0256
32137W        W48611   8.647  15.515  13.571  0.1329 -0.2984 -0.4193
32138W        W48612   6.264   2.346  11.932 -0.1341  0.1535  0.0567
32139W        W48613   3.268   2.592   0.432  0.2295 -0.1676  0.0113
32140W        W48614  12.721  12.470   3.876  0.1498 -0.1020  0.0348
32141W        W48615  13.697   1.465   2.518  0.0058 -0.0982 -0.1953
32142W        W48616   6.018  11.944   1.742 -0.3583 -0.1228  0.2888
32143W        W48617  13.223   9.759  12.101  0.0397  0.1147  0.0733
32144W        W48618   7.050   7.279   3.054 -0.0739  0.1052  0.0012
32145W        W48619  10.397  10.225   3.128 -0.0666 -0.1739  0.2222
32146W        W48620   9.515   1.313  13.894  0.2476 -0.1960  0.2337
32147W        W48621   7.025  15.791   1.296 -0.1534 -0.1219  0.3091
32148W        W48622   3.055   1.731  12.493 -0.2830 -0.3055 -0.0949
32149W        W48623   6.250  16.928  12.036 -0.0104 -0.0361 -0.2510
32150W        W48624   7.033  18.438   3.751  0.1356  0.3100  0.1121
32151W        W48625  13.684  14.616  11.796 -0.4787 -0.0232 -0.0963
32152W        W48626   5.708   2.714  11.205 -0.1296 -0.3320  0.1264
32153W        W48627  13.413   4.955  10.356  0.2882 -0.1391  0.0806
32154W        W48628   4.010   1.270   2.176 -0.0979  0.1417 -0.1510
32155W        W48629   2.886  15.003  10.846  0.0895 -0.2226  0.0425
32156W        W48630  15.031  14.382   2.679  0.2241  0.0658  0.2423
32157W        W48631   0.264  13.947   1.718 -0.1633  0.0777 -0.2497
32158W        W48632  14.560   3.863   1.840  0.0063  0.3263  0.0536
32159W        W48633  16.213   1.888   4.867  0.2016  0.2425  0.1169
32160W        W48634   3.912  11.101  12.645  0.0434  0.4951 -0.0298
32161W        W48635  18.101  14.446  10.819 -0.1518 -0.0438 -0.0000
32162W        W48636  14.003  19.001  11.969 -0.0567 -0.3665  0.4782
32163W        W48637   1.459   3.549  12.513 -0.5046 -0.0294  0.0550
32164W        W48638   0.568  19.314  12.266 -0.0875  0.0078 -0.0579
32165W        W48639   8.266  11.168   1.256  0.0630 -0.4239 -0.1951
32166W        W48640   4.772   0.372  13.974  0.1529  0.0048 -0.0675
32167W        W48641  16.080   6.903  13.815  0.1927  0.0662 -0.2492
32168W        W48642  18.183   1.684  13.554 -0.0794 -0.5030 -0.1368
32169W        W48643   5.146   9.188  10.544 -0.1580  0.0078 -0.0958
32170W        W48644  11.761   3.617   1.192 -0.0375  0.0773 -0.1163
32171W        W48645  10.958   3.554   3.800  0.3925  0.2590  0.0378
32172W        W48646   1.736   7.960  12.681 -0.0393 -0.0843 -0.0451
32173W        W48647   9.312  13.334  10.746 -0.4337  0.0577  0.0504
32174W        W48648   5.973  10.513  12.920 -0.0768 -0.0605  0.1307
32175W        W48649  18.021   3.017  11.001  0.0538  0.1816  0.0037
32176W        W48650  14.478   0.991  12.199  0.1856 -0.1295 -0.2579
32177W        W48651  18.661  14.814  11.250  0.2193 -0.0564 -0.2125
32178W        W48652   7.130  12.843   3.140 -0.1259 -0.1277  0.0185
32179W        W48653  14.904  11.500  11.996  0.4976 -0.1622  0.4111
32180W        W48654   9.659  10.922  12.545 -0.0051  0.2351  0.2409
32181W        W48655  16.771  19.130  13.588 -0.1104 -0.3258  0.0215
32182W        W48656   5.567  14.558   3.188 -0.2508 -0.0356  0.1511
32183W        W48657  12.150  18.793  10.923  0.1622  0.1871  0.1653
32184W        W48658   0.649   3.465   2.644 -0.0863 -0.1739 -0.0517
32185W        W48659   9.153  10.365   0.534 -0.0852  0.4888  0.5211
32186W        W48660  15.732  12.525  13.622  0.2592 -0.1916 -0.0219
32187W        W48661   9.078  18.172   3.025  0.1384  0.0106  0.0959
32188W        W48662   9.479   4.808   2.903 -0.0324  0.1021 -0.1686
32189W        W48663   3.060   5.321   4.042 -0.0229 -0.0047 -0.1588
32190W        W48664  17.253   5.972   4.283 -0.2268  0.0413  0.2644
32191W        W48665   7.369  15.409  11.438 -0.1443 -0.0652 -0.0292
32192W        W48666  16.908  16.502   9.037 -0.0135 -0.0101 -0.1291
32193W        W48667  14.288  19.464  12.452 -0.0940 -0.1977  0.0491
32194W        W48668   0.619   7.345   3.837 -0.0158 -0.3576  0.1341
32195W        W48669  12.533   1.290  12.170 -0.0099  0.0654  0.1016
32196W        W48670   8.932   8.672  10.452 -0.1845 -0.0936 -0.1824
32197W        W48671   4.605   3.780   0.422  0.0611 -0.1302 -0.2091
32198W        W48672  12.934   7.562   1.942  0.0654  0.0569  0.2196
32199W        W48673  14.321   7.240   3.800 -0.0760 -0.3531  0.0020
32200W        W48674   2.763   4.751   0.568  0.0545  0.2133 -0.0408
32201W        W48675  10.423   1.464  13.458  0.0012  0.1666  0.1716
32202W        W48676  11.343   8.510   2.202  0.0531  0.0392 -0.0630
32203W        W48677   3.272   4.737  13.320 -0.0482 -0.1435 -0.1691
32204W        W48678  11.608   5.470  11.005  0.0006 -0.1002 -0.1839
32205W        W48679   7.983   2.818   2.079 -0.0245 -0.1589  0.2514
32206W        W48680  11.298   7.595   3.517 -0.1615 -0.6108  0.0802
32207W        W48681  15.636  14.897   4.131  0.1733 -0.1707  0.0408
32208W        W48682   7.730  19.433  11.791 -0.1041 -0.0615 -0.0365
32209W        W48683  19.064  12.682  10.494  0.3687 -0.1047  0.0752
32210W        W48684   6.070   9.643  10.271 -0.0988 -0.3763 -0.0295
32211W        W48685  17.751  13.998  14.264 -0.2094  0.1248 -0.0274
32212W        W48686   0.050   8.950   0.829  0.1507  0.2974  0.0897
32213W        W48687   0.990   7.151   5.514 -0.2445  0.1625  0.2024
32214W        W48688  16.937   6.072   1.202  0.1693  0.2629 -0.0557
32215W        W48689  14.468  15.690  13.174 -0.0789  0.1365  0.0785
32216W        W48690   5.855  10.255   0.628 -0.1425 -0.1650  0.1965
32217W        W48691   7.932   5.584   2.089  0.0136  0.1581 -0.2043
32218W        W48692  13.455   4.542  10.672 -0.3021  0.3041 -0.2825
32219W        W48693   4.902   0.963  12.086  0.0456 -0.1452  0.0060
32220W        W48694   8.669   7.311   1.871 -0.0232 -0.0207 -0.2406
32221W        W48695  18.520   7.902   3.586 -0.1967 -0.0943  0.1583
32222W        W48696   7.501  16.396  11.798 -0.1628 -0.1172  0.3403
32223W        W48697  10.861  15.662  11.811  0.2047 -0.1666 -0.1197
32224W        W48698   7.984  10.602   3.521  0.3028  0.0562 -0.2034
32225W        W48699  16.961   4.343  10.950 -0.2502 -0.3282  0.3750
32226W        W48700  15.956   4.167   4.523  0.0255  0.1537 -0.2518
32227W        W48701   0.353  15.403  14.536 -0.1127 -0.1259 -0.0600
32228W        W48702  17.875   7.814   3.078 -0.3558 -0.1217 -0.1468
32229W        W48703  16.647  18.487   1.241 -0.3815 -0.0882 -0.2167
32230W        W48704   3.923   1.461   0.837  0.0200 -0.2354 -0.2076
32231W        W48705   0.078   1.427  10.665 -0.0808  0.2089  0.0512
32232W        W48706   4.325   8.545   1.445  0.0593  0.1634 -0.1393
32233W        W48707  13.091  16.042   1.679 -0.1315  0.5794  0.1007
32234W        W48708  11.750   4.938   0.132  0.0328 -0.1970 -0.0396
32235W        W48709   2.655   0.517  11.674 -0.1890  0.0901  0.0721
32236W        W48710   8.338  11.254   1.718 -0.2837 -0.0947  0.1348
32237W        W48711   8.115  17.218  13.791 -0.1582  0.3167 -0.0565
32238W        W48712  18.889   8.804   0.471  0.3301 -0.3117  0.1086
32239W        W48713   5.798  17.875  12.341  0.0647 -0.0221 -0.1479
32240W        W48714   5.750   5.649  12.722 -0.0857  0.0345 -0.2295
32241W        W48715   7.625  14.623  11.353 -0.2669  0.1263  0.1172
32242W        W48716   5.825   6.367  11.675  0.2613  0.1946  0.0336
32243W        W48717   2.875   8.429  11.679  0.0997 -0.2384 -0.2153
32244W        W48718  17.843   2.004  13.716  0.1922 -0.4399 -0.2133
32245W        W48719  18.014   6.347   3.233 -0.0443 -0.3778 -0.0002
32246W        W48720   8.572   1.141   0.663  0.0920 -0.0532  0.0048
32247W        W48721   5.352   7.203   0.886  0.2115 -0.0997 -0.2215
32248W        W48722   8.391   7.325   1.410 -0.2570 -0.1288 -0.2565
32249W        W48723   7.469   0.394   2.590 -0.0510  0.0964  0.1380
32250W        W48724  11.308  12.223  13.908 -0.0842  0.0544 -0.0633
32251W        W48725  13.707   8.464   0.790 -0.0492  0.2973 -0.3777
32252W        W48726  10.865  12.503  12.755 -0.1789  0.1907 -0.0699
32253W        W48727  16.300   5.734   9.973  0.0020  0.2055  0.0003
32254W        W48728   7.075   5.269   1.594  0.1220 -0.0610  0.1826
32255W        W48729   9.160   7.038   3.796 -0.0472  0.1677 -0.1516
32256W        W48730   7.881   9.974   9.081 -0.2505 -0.0758 -0.1171
32257W        W48731  10.417   6.140   2.714  0.0145  0.1514 -0.3314
32258W        W48732  13.062  14.270   3.163 -0.3518  0.0099 -0.0840
32259W        W48733   9.462   4.793  11.487  0.0964 -0.1984  0.1965
32260W        W48734   1.124   6.997  10.447 -0.0781 -0.2530 -0.1515
32261W        W48735   3.428  14.016   1.634  0.1395  0.2589  0.5506
32262W        W48736  17.155   5.525   2.230 -0.0762 -0.0487 -0.0825
32263W        W48737  16.718  15.683   2.097  0.0712  0.0415  0.0817
32264W        W48738  16.472   1.612  14.117 -0.0415  0.2167  0.1825
32265W        W48739  18.080   5.176   4.504 -0.0389 -0.0987  0.2788
32266W        W48740  17.048  10.879   3.917 -0.2786  0.0734  0.1231
32267W        W48741   7.488  14.555   1.371 -0.0825 -0.0886 -0.1488
32268W        W48742   6.831  15.489   3.592 -0.0540 -0.2658  0.0809
32269W        W48743  14.975   7.492   1.720  0.0026  0.0994 -0.1346
32270W        W48744  12.362  17.481  13.593  0.1928 -0.1458 -0.0826
32271W        W48745  10.336   0.507   0.132 -0.1018  0.3407  0.2737
32272W        W48746   8.421  12.908  13.533  0.4396  0.1093 -0.0278
32273W        W48747   6.646  16.902   1.300 -0.0481 -0.0402 -0.3465
32274W        W48748   0.830   8.895   3.262 -0.0101 -0.0580  0.0222
32275W        W48749   6.395   8.631  14.368  0.2303 -0.1247  0.2343
32276W        W48750   2.529  17.991   2.977  0.1255  0.0846 -0.1999
32277W        W48751   8.792  13.104   2.918 -0.3409  0.0783 -0.1201
32278W        W48752   2.853  10.372   4.056  0.0269 -0.1946  0.1746
32279W        W48753   1.960   3.829  11.147  0.0269 -0.0012 -0.0109
32280W        W48754  15.763  12.776  11.449  0.0683 -0.0334  0.1420
32281W        W48755   1.593  16.087   1.372 -0.0679  0.3197 -0.1148
32282W        W48756  16.948  16.210  14.476 -0.3101 -0.2265 -0.1103
32283W        W48757   8.530   3.072  13.991  0.4692  0.0345 -0.0405
32284W        W48758   9.047  15.028  13.286  0.3016 -0.0793  0.2598
32285W        W48759  10.307   8.886  13.918 -0.0784  0.1644  0.1172
32286W        W48760  16.986  17.014  10.146  0.0309 -0.0538  0.1173
32287W        W48761   9.043   9.755   2.145 -0.1559  0.2182 -0.0817
32288W        W48762   3.024   0.337   9.437 -0.3169  0.1074 -0.7203
32289W        W48763   6.295   5.378   0.047 -0.0298 -0.1158 -0.0205
32290W        W48764  13.316  10.834   0.146  0.2437 -0.1029  0.1245
32291W        W48765  19.250   0.216  11.588  0.1313 -0.0897 -0.0309
32292W        W48766   6.772   7.694  12.302 -0.2816 -0.0983 -0.3911
32293W        W48767   3.486   6.609  11.735  0.0937  0.2232 -0.1414
32294W        W48768   4.398   2.755   4.593  0.1705  0.0020 -0.1881
32295W        W48769   2.926  17.803   4.139 -0.1142  0.3155 -0.0248
32296W        W48770  19.550   9.226   1.414 -0.6804  0.1216  0.0532
32297W        W48771  17.996   9.601   1.267  0.2918 -0.0593  0.1630
32298W        W48772  19.584   1.700  13.840  0.3738  0.1667 -0.1171
32299W        W48773   2.319  15.552   0.979  0.1455  0.1588 -0.1152
32300W        W48774   6.777  18.897  10.770  0.4958  0.2507  0.4528
32301W        W48775   8.081   6.483   3.790 -0.0394  0.1332 -0.1932
32302W        W48776  11.817  13.746   5.325 -0.1308  0.0813  0.2022
32303W        W48777  17.766   2.786   0.638  0.1676 -0.3973  0.1547
32304W        W48778   8.905  14.002   1.755  0.4112 -0.0164  0.1908
32305W        W48779  13.121  15.180  10.758 -0.0052  0.0118 -0.2340
32306W        W48780   6.068  12.509   5.122 -0.0580 -0.2495  0.2633
32307W        W48781   2.988  16.776  12.093 -0.4072 -0.2286 -0.0955
32308W        W48782  13.955   6.730   1.580  0.0338  0.4841 -0.0844
32309W        W48783   7.425   4.859   1.649  0.2457  0.3749 -0.0747
32310W        W48784  12.777  17.492  12.680  0.0553  0.1842 -0.1545
32311W        W48785   4.340   9.562   4.783  0.2557 -0.1612 -0.1375
32312W        W48786  17.113   5.989   2.565 -0.0409 -0.0057 -0.1456
32313W        W48787  19.129   2.810   2.794  0.0375 -0.1971  0.0766
32314W        W48788  15.798  12.238  12.609  0.1536 -0.1768  0.0842
32315W        W48789  10.956   2.275   1.863 -0.1335  0.3631 -0.2007
32316W        W48790  16.004   0.646  14.386  0.1758 -0.1814 -0.0079
32317W        W48791  18.800   6.231   2.135 -0.2752 -0.1384  0.5823
32318W        W48792   8.093  18.599  10.843 -0.0646 -0.2182 -0.3057
32319W        W48793  16.916  17.418  12.464 -0.0504  0.3530 -0.0204
32320W        W48794   3.507  19.500   1.286 -0.0872  0.1471  0.1475
32321W        W48795   6.249  13.215   4.731 -0.0485  0.1311  0.1398
32322W        W48796   7.753   0.973  12.635  0.1121  0.2087  0.4199
32323W        W48797  10.766  19.007  11.233  0.2690  0.0438 -0.1546
32324W        W48798   9.258   6.548   0.213 -0.0486 -0.2786 -0.0132
32325W        W48799  10.282  10.318   2.478  0.3843 -0.0795 -0.1170
32326ION     NA48800  19.076  15.548   5.395 -0.2584 -0.0751  0.1106
32327ION     NA48801  16.508  19.302  10.967  0.0154 -0.3697 -0.0251
32328ION     NA48802   6.907   4.510   5.038  0.1595 -0.0617 -0.0861
32329ION     NA48803   6.309  16.967   3.271  0.1568 -0.0199  0.1170
32330ION     NA48804  15.051  10.881   5.087 -0.0093 -0.0698 -0.0089
32331ION     NA48805   1.807   5.567   9.176  0.0113 -0.2779  0.1696
32332ION     NA48806   3.349   7.565   9.737 -0.1644  0.0076  0.2739
32333ION     NA48807   6.323   0.318   9.358 -0.2888 -0.1804  0.0649
32334ION     NA48808  19.314   0.279  12.429 -0.2555 -0.4263 -0.0692
32335ION     NA48809  17.506  19.146  11.600  0.0444 -0.1588 -0.0599
32336ION     NA48810   3.966  17.856   9.059  0.1116  0.1512  0.1669
32337ION     NA48811  11.073  19.416   9.836 -0.1832 -0.0955 -0.1195
32338ION     NA48812   2.326  16.736   4.086 -0.1507 -0.0373  0.1939
32339ION     NA48813  16.092   2.614   9.471 -0.0018  0.1864 -0.2045
32340ION     NA48814  17.914   6.924   5.549 -0.3384 -0.1021  0.3278
32341ION     NA48815  13.423   8.919   9.361 -0.3910  0.1406  0.0664
32342ION     NA48816   0.229  14.724   9.635 -0.0291  0.0198  0.1206
32343ION     NA48817   5.604   2.167   2.760 -0.0046 -0.0209  0.4321
32344ION     NA48818   5.762   8.602   9.167 -0.0009 -0.0498 -0.0969
32345ION     NA48819  17.915  15.851   5.001  0.2392 -0.1829  0.1055
32346ION     NA48820   9.592  12.449   1.468 -0.0748 -0.1492  0.1361
32347ION     NA48821   7.272  11.866  10.457  0.2192  0.0694  0.0797
32348ION     NA48822   8.597  17.365   5.245  0.0901  0.2303  0.0237
32349ION     NA48823  14.724  13.766   9.894 -0.3118  0.4026 -0.0643
32350ION     NA48824  14.291   8.611   9.543  0.4165  0.1129 -0.0297
32351ION     NA48825   3.205  13.392   0.327 -0.1492 -0.0037  0.1860
32352ION     NA48826   2.641   9.176   9.682 -0.1453 -0.0287 -0.2265
32353ION     NA48827  15.107  18.443   9.508  0.1680  0.3835 -0.1604
32354ION     NA48828  18.013   0.759   9.257 -0.3265 -0.0329 -0.0095
32355ION     NA48829  14.512   1.738   9.335  0.0603  0.0264 -0.1806
32356ION     NA48830   4.006  14.018   5.014 -0.2224  0.0245  0.2483
32357ION     NA48831  10.465   3.456  14.608  0.0714 -0.1111 -0.0294
32358ION     NA48832   7.875   6.982  14.625  0.2662 -0.3994 -0.0617
32359ION     NA48833   7.281  12.264   9.579 -0.0782 -0.0509 -0.3297
32360ION     NA48834   0.607   3.767   9.328  0.0134 -0.2808 -0.0154
32361ION     NA48835  12.019  12.943  11.105 -0.0476 -0.3036 -0.3237
32362ION     NA48836   4.703  14.301   0.182 -0.3437  0.0215  0.0940
32363ION     NA48837  14.808   0.081   5.224 -0.0842 -0.1467  0.1831
32364ION     NA48838   6.135  19.297   9.217 -0.0215 -0.1004  0.0094
32365ION     NA48839  19.124  12.759   1.936  0.2114 -0.1339  0.0233
32366ION     NA48840   1.219   9.037   9.619  0.1737  0.2561 -0.0198
32367ION     NA48841   5.994  10.876   9.590 -0.0177  0.3296  0.0359
32368ION     NA48842  12.356  11.452   9.813  0.0082 -0.2564 -0.0666
32369ION     NA48843  12.153  12.186   5.351 -0.1779  0.3126  0.1470
32370ION     NA48844   0.470   1.287   1.585  0.0878  0.1675  0.0521
32371ION     NA48845   8.299   9.766   9.264 -0.3273 -0.1279 -0.2941
32372ION     NA48846   3.093  14.196   9.614 -0.2125  0.1565 -0.0732
32373ION     NA48847   0.163   3.448   0.339 -0.0251 -0.1720 -0.2955
32374ION     NA48848   2.050  12.503   9.477 -0.1647  0.1053  0.2788
32375ION     NA48849   2.665  11.403   9.593 -0.1724  0.2840  0.2532
32376ION     NA48850  17.834   8.711   5.070 -0.0320  0.2244 -0.1680
32377ION     NA48851  19.093  13.130   9.237 -0.3623 -0.0309  0.0193
32378ION     NA48852  12.087  14.203  10.325 -0.2077 -0.0482 -0.1934
32379ION     NA48853  14.991   6.797   9.532 -0.4302 -0.0660 -0.2058
32380ION     NA48854   7.307   9.756   9.579  0.2727 -0.5036 -0.1492
32381ION     NA48855   6.709  14.549   9.585  0.0468 -0.2198  0.0414
32382ION     NA48856   4.710   8.627   9.378 -0.1676 -0.2341 -0.0432
32383ION     NA48857  17.584  15.034   4.732 -0.1458 -0.0761  0.0325
32384ION     NA48858  17.749   2.603   9.548 -0.0117  0.2551 -0.1545
32385ION     NA48859  10.300   6.512   9.606  0.1051 -0.0296 -0.0850
32386ION     NA48860  17.822   6.126   5.505  0.0109  0.0810 -0.0234
32387ION     NA48861  12.631  12.943   9.885 -0.0055  0.1407  0.0570
32388ION     NA48862  14.472  10.528   9.879  0.0306  0.0731 -0.0156
32389ION     NA48863  14.089  11.532  10.053  0.0277 -0.2462  0.3143
32390ION     NA48864   7.313  18.377  10.152  0.2582  0.3537  0.1533
32391ION     NA48865  12.881  17.582  11.869  0.2139  0.2362 -0.0172
32392ION     NA48866   0.604  17.319   0.136  0.0271  0.2728  0.1943
32393ION     NA48867   9.812   6.265  10.498 -0.2804 -0.2648 -0.1017
32394ION     NA48868  14.070   5.449   9.257 -0.0775 -0.0460  0.1658
32395ION     NA48869  11.362   2.314   2.420  0.1178 -0.2227 -0.0849
32396ION     NA48870   7.325  16.685   9.508  0.1055  0.2992  0.3464
32397ION     NA48871   7.171   5.835   3.076 -0.2147 -0.2372  0.1246
32398ION     NA48872  13.170  15.900   9.955  0.3130 -0.0612  0.0373
32399ION     NA48873   4.247  17.325   9.525  0.2230  0.1311  0.1034
32400ION     NA48874   2.080   6.631   1.441  0.2551  0.2405 -0.0864
32401ION     NA48875  16.670   4.698   9.435  0.0138  0.1807 -0.1903
32402ION     NA48876   0.539   7.836   5.130  0.1770 -0.3015 -0.1889
32403ION     NA48877   1.111  18.942   0.721  0.0465 -0.3091  0.2441
32404ION     NA48878  13.028   6.429   0.623  0.1456 -0.0592  0.1858
32405ION     NA48879  17.265   3.524   5.152 -0.1247 -0.3449  0.1032
32406ION     NA48880  19.588   7.685   9.466 -0.1744 -0.0422 -0.2624
32407ION     NA48881  10.046   5.948  10.128  0.2058 -0.0928  0.1512
32408ION     NA48882   9.819   1.244   3.066 -0.0792 -0.0725  0.0667
32409ION     NA48883  12.746   8.647   9.427 -0.1368  0.1521 -0.1838
32410ION     NA48884   8.193  12.943  11.237 -0.2783 -0.0124  0.0721
32411ION     NA48885  17.613   7.249  12.626 -0.2923 -0.0197  0.2037
32412ION     NA48886   0.732   6.347   0.189  0.0232 -0.0818 -0.4128
32413ION     NA48887   9.930  13.755   4.438  0.0548  0.3042 -0.1522
32414ION     NA48888  13.776  13.382   9.740 -0.1554  0.3703 -0.2119
32415ION     NA48889  16.590   0.447   5.113 -0.1216  0.3919  0.1424
32416ION     NA48890   6.529  10.491   1.123 -0.1284 -0.0929 -0.1257
32417ION     NA48891   3.352  13.430   5.109 -0.2845  0.0716 -0.3493
32418ION     NA48892  17.204  13.178   9.450  0.2121 -0.0643 -0.0734
32419ION     NA48893   1.992   6.265   4.812  0.1348 -0.0261 -0.0461
32420ION     NA48894  17.870   6.992   9.549 -0.1280  0.2254  0.2456
32421ION     NA48895  16.519   4.153   2.649 -0.0198  0.1985 -0.0286
32422ION     NA48896   2.064  18.157   9.050  0.1086  0.2761  0.0224
32423ION     NA48897   2.089   6.826  13.075  0.0025 -0.4461 -0.1929
32424ION     NA48898   6.657   7.085   8.917  0.1346 -0.1782 -0.3515
32425ION     NA48899  10.716  17.665   5.612 -0.2652  0.2476 -0.0768
32426ION     NA48900  10.834  15.709  10.436  0.2184 -0.2788 -0.0362
32427ION     NA48901   7.394   3.868   9.083 -0.1115 -0.1824  0.0284
32428ION     NA48902  16.365  18.809   9.329 -0.1186  0.2855 -0.2734
32429ION     NA48903  13.356  11.711   9.798  0.0802  0.3543  0.0752
32430ION     NA48904  18.917  10.334   9.382  0.0320 -0.0849  0.0908
32431ION     NA48905  16.065   2.411  13.627 -0.0339 -0.0660  0.0185
32432ION     NA48906  16.661  15.217   4.486 -0.0810  0.3473  0.1953
32433ION     NA48907   5.833  14.414   9.497 -0.0122 -0.0305 -0.1152
32434ION     NA48908  10.419  11.882  12.367 -0.5115  0.0635 -0.2104
32435ION     NA48909   7.508   1.498   9.393  0.0368 -0.1245  0.2493
32436ION     NA48910  10.066   6.786   0.384  0.0363 -0.0198  0.0290
32437ION     NA48911  16.335   9.170   9.777 -0.0453  0.0334  0.2419
32438ION     NA48912  14.457   0.125   9.421  0.0889 -0.2825  0.2249
32439ION     NA48913   6.061   2.128   9.189  0.1947  0.2599  0.4273
32440ION     NA48914  13.300   3.971   9.580 -0.0160 -0.3635  0.1712
32441ION     NA48915   2.909   6.577   2.170  0.0118  0.2669 -0.0757
32442ION     NA48916  19.200   5.966   9.612  0.0040  0.4441  0.0877
32443ION     NA48917  15.714  15.083   9.263  0.1867  0.2205  0.0257
32444ION     NA48918  14.743  13.252   9.853  0.0992  0.3994  0.0236
32445ION     NA48919  15.227  14.326   9.605 -0.0447  0.0280 -0.2670
32446ION     NA48920   0.045   2.455   9.211  0.3481  0.1285 -0.1777
32447ION     NA48921   1.486   7.056   9.256  0.0290 -0.2502  0.0372
32448ION     NA48922  17.392   9.327  13.492  0.1879  0.0316  0.0260
32449ION     NA48923  17.964   9.265   9.847 -0.1441  0.2393  0.2525
32450ION     NA48924  11.948   8.339   9.488  0.1421  0.3902  0.0262
32451ION     NA48925   0.096   5.962   9.988  0.1543  0.1469 -0.2790
32452ION     NA48926  10.356   9.689   9.524 -0.2417 -0.1673  0.2013
32453ION     NA48927  18.815  18.361   9.250 -0.1340  0.0970 -0.1154
32454ION     NA48928   3.727   5.316  12.253 -0.0962 -0.1924  0.0457
32455ION     NA48929   5.578  19.411   9.937 -0.2928 -0.1795 -0.0812
32456ION     NA48930   8.444   7.695   2.082  0.1832 -0.0860  0.1424
32457ION     NA48931  12.818  18.399   9.445  0.0569  0.0967  0.3208
32458ION     NA48932   2.580   1.760  13.352  0.4395  0.1789  0.1692
32459ION     NA48933   8.231   8.323   9.615 -0.0267  0.1512 -0.1285
32460ION     NA48934   8.849   6.921   5.334  0.0258 -0.1487 -0.1543
32461ION     NA48935   3.859  10.696  14.087 -0.2537 -0.1742  0.0261
32462ION     NA48936  17.872  11.398   1.585  0.0712 -0.0776  0.0906
32463ION     NA48937  10.944  10.688   9.408 -0.0984 -0.0858 -0.0843
32464ION     NA48938   9.507  12.824   9.663 -0.3383  0.1879  0.3192
32465ION     NA48939   4.786  12.345   5.503  0.0448 -0.0362  0.0592
32466ION     NA48940   8.577   1.880  12.099  0.0793  0.3124  0.3357
32467ION     NA48941   1.217  18.696   9.058  0.1254 -0.1757 -0.0597
32468ION     NA48942   8.368   0.251  12.045 -0.0790  0.0657  0.0093
32469ION     NA48943   8.216   2.167   9.514  0.0067  0.0648  0.1076
32470ION     NA48944   3.216   1.587   2.315  0.0280  0.3774  0.0019
32471ION     NA48945  10.341  13.872  10.119  0.0784 -0.1898  0.0362
32472ION     NA48946   5.455   1.939   9.905  0.0527  0.1536 -0.3653
32473ION     NA48947  11.553  16.665   9.903 -0.0413  0.0532  0.0273
32474ION     NA48948   4.106   6.352   9.835  0.2292 -0.2821  0.2511
32475ION     NA48949  16.468  12.671   1.613  0.4314  0.1163 -0.2538
32476ION     NA48950  14.399  12.500  13.772 -0.1806  0.5424  0.2519
32477ION     NA48951  12.565  19.096   9.386  0.1056 -0.2885 -0.1397
32478ION     NA48952  13.978   9.536  10.119  0.3850  0.2887 -0.0793
32479ION     NA48953   8.383  11.159   9.425  0.1508 -0.1514  0.4592
32480ION     NA48954   7.345   3.447   3.029 -0.1996 -0.1651  0.2559
32481ION     NA48955  13.146  19.201   2.635  0.0063  0.2796 -0.2126
32482ION     NA48956  18.514   5.553   9.393  0.1287 -0.3980  0.0958
32483ION     NA48957   5.723  16.067   9.472  0.0027 -0.1246 -0.1556
32484ION     NA48958  13.309  17.466   9.746 -0.0046  0.0775 -0.0667
32485ION     NA48959   8.147  13.459   9.957  0.2618 -0.0852 -0.3284
32486ION     NA48960   1.410   5.050  12.156  0.1334 -0.0188 -0.1490
32487ION     NA48961   8.563   1.336   4.991  0.0473  0.1135 -0.0127
32488ION     NA48962  19.340   0.416   9.903 -0.1669  0.1639  0.1028
32489ION     NA48963   2.231  17.080  13.491  0.0258 -0.1564  0.1895
32490ION     NA48964  19.081  10.753  10.056  0.0871 -0.3843 -0.1195
32491ION     NA48965  17.762  17.997   9.720  0.2369  0.0186  0.2895
32492ION     NA48966  16.128   0.029   9.186 -0.1690  0.2322  0.2971
32493ION     NA48967   5.385   6.515   9.603  0.2091  0.0171 -0.0024
32494ION     NA48968  11.908  10.564   3.616  0.0152  0.1498  0.1441
32495ION     NA48969   3.918  14.198   9.849 -0.0165  0.0508  0.2611
32496ION     NA48970   7.380   9.544  14.085 -0.0315  0.1274 -0.2752
32497ION     NA48971   8.980  16.416   9.867 -0.3015  0.0094  0.2171
32498ION     NA48972  14.146   6.161   0.851 -0.0711  0.1579 -0.0089
32499ION     NA48973  18.371   1.400  11.374  0.1398 -0.1807  0.3391
32500ION     NA48974  17.969   2.829  11.476 -0.3498 -0.0833  0.0382
32501ION     NA48975  18.447  17.543   9.629 -0.1140  0.1808  0.0760
32502ION     NA48976  18.074  14.019   9.845  0.1209 -0.0678 -0.1007
32503ION     NA48977   2.024   3.096   9.308  0.0128  0.0173  0.0710
32504ION     NA48978  17.310  12.324   9.038 -0.1533 -0.2238  0.1185
32505ION     NA48979  16.189  11.968   0.933  0.1099 -0.1550  0.0175
32506ION     NA48980   8.279   3.100   4.750  0.1556 -0.3363  0.0029
32507ION     NA48981  15.597   8.902  10.314  0.0188 -0.1146 -0.0675
32508ION     NA48982  12.325  12.275   2.417 -0.1212  0.2160 -0.1013
32509ION     NA48983  11.112   6.429   4.938 -0.2704  0.1671  0.0755
32510ION     NA48984   4.445   3.094   9.133 -0.1963 -0.0109 -0.1786
32511ION     NA48985   0.701   4.991   0.278 -0.1327 -0.3261  0.2127
32512ION     NA48986  10.533   0.681   4.914 -0.0339  0.3112 -0.0873
32513ION     NA48987   8.637   7.788  12.792  0.3840 -0.0185  0.0359
32514ION     NA48988   1.934  11.050   9.366 -0.2115  0.0799  0.0722
32515ION     NA48989  15.425  19.201   1.937 -0.2664 -0.0840  0.0152
32516ION     NA48990   2.330   3.911   9.180 -0.1073  0.1576  0.2480
32517ION     NA48991  13.303   7.221   9.584  0.0903  0.0495  0.0845
32518ION     NA48992   3.071  18.950   9.202  0.1530  0.3415 -0.0030
32519ION     NA48993   2.003   4.724   9.187  0.2822  0.0915 -0.0230
32520ION     NA48994  16.932   9.792   9.876  0.0681 -0.2345  0.2099
32521ION     NA48995  12.303   5.199   9.603  0.2262  0.1265 -0.1424
32522ION     NA48996   1.134  15.013   1.781 -0.0607  0.0267 -0.5116
32523ION     NA48997   2.076  14.238   9.754  0.1746  0.0406  0.0562
32524ION     NA48998  16.384  13.113   5.243  0.0906 -0.0048 -0.1106
32525ION     NA48999  14.614   3.191   9.431 -0.0814 -0.1608 -0.1060
32526ION     NA49000  13.513  10.516   9.798  0.0642  0.3624 -0.0391
32527ION     NA49001   2.660   0.404  13.840 -0.0440  0.2557 -0.2463
32528ION     NA49002   5.520   9.384  10.861 -0.0274 -0.2104  0.1959
32529ION     NA49003  13.184   3.891   3.409 -0.1214  0.1361 -0.1858
32530ION     NA49004   9.003  13.558   9.736 -0.0698  0.0431 -0.3420
32531ION     NA49005   5.009   9.377  11.811 -0.0097 -0.3100 -0.1821
32532ION     NA49006   0.496  13.928   4.647  0.0312 -0.3180 -0.1452
32533ION     NA49007   8.984   7.566   9.266 -0.0540  0.2351  0.0016
32534ION     NA49008   3.686   0.291   9.093 -0.3893 -0.0447 -0.2362
32535ION     NA49009  11.934   9.663   9.497  0.0416  0.3331  0.0036
32536ION     NA49010   5.499   3.168   1.871  0.2764 -0.1624 -0.0706
32537ION     NA49011  18.288   7.629   0.885 -0.0042  0.1145 -0.1277
32538ION     NA49012  15.571  19.316   5.110  0.1711  0.3064 -0.1488
32539ION     NA49013   3.589  11.688   9.266  0.0213 -0.2025 -0.0761
32540ION     NA49014   9.982   1.268   5.197  0.1535 -0.1706  0.0050
32541ION     NA49015   2.097   2.272   2.856  0.1035  0.1336 -0.0022
32542ION     NA49016  18.178  11.277   3.185  0.3935 -0.0634 -0.2079
32543ION     NA49017  19.581  15.767  14.116  0.0207  0.0663  0.4357
32544ION     NA49018  10.356  10.024   1.685 -0.0117  0.1957  0.3136
32545ION     NA49019  12.817  13.941   9.824  0.1012 -0.1172 -0.1567
32546ION     NA49020  11.282   4.400   9.001 -0.1785 -0.1480 -0.0389
32547ION     NA49021  18.353  12.571   8.954  0.2709 -0.0410  0.2684
32548ION     NA49022   6.699  14.382  10.692  0.1497 -0.0572 -0.1522
32549ION     NA49023   5.865   3.238  11.901 -0.1562  0.2928 -0.0169
32550ION     NA49024  10.539   7.206  12.564  0.0277  0.2462  0.3265
32551ION     NA49025   2.496  13.148  13.958  0.1132  0.2641  0.0771
32552ION     NA49026   8.897  18.884   9.380 -0.0039  0.2480 -0.1149
32553ION     NA49027   9.816   2.302   5.089 -0.1415 -0.2756  0.0188
32554ION     NA49028   7.881   6.562   9.599  0.4391 -0.0942 -0.0904
32555ION     NA49029  11.551  13.201   1.928 -0.3284  0.0729 -0.0206
32556ION     NA49030   6.515   1.330   9.274 -0.2303 -0.2108 -0.1100
32557ION     NA49031  11.065   7.945   9.325  0.1267 -0.1141  0.0711
32558ION     NA49032   7.987  14.651   5.783  0.1916 -0.1354  0.2452
32559ION     NA49033   5.590   5.692   4.531  0.0454  0.0825 -0.2400
32560ION     NA49034   8.410   3.103   9.378 -0.5396  0.0421 -0.0079
32561ION     NA49035   3.401  16.091   5.333 -0.2189  0.2030  0.0380
32562ION     NA49036  12.188  15.118   5.631  0.0005 -0.1476  0.0230
32563ION     NA49037   7.263   7.310   9.500  0.0277  0.1943 -0.0899
32564ION     NA49038   8.694   3.856   9.267 -0.1300 -0.3900 -0.1788
32565ION     NA49039   2.774   3.067   9.239 -0.0261  0.1212 -0.0500
32566ION     NA49040  15.558  17.171   9.441 -0.1355  0.2434  0.0216
32567ION     NA49041   7.826  14.208   1.651  0.1186  0.5087  0.2309
32568ION     NA49042   2.171  17.755  12.168  0.3761 -0.2288  0.1292
32569ION     NA49043   8.035  16.799   9.901  0.0397  0.0243 -0.2780
32570ION     NA49044   5.940  13.281   1.712  0.0539  0.3561  0.2740
32571ION     NA49045   2.962  13.722  12.528  0.0870 -0.2124 -0.2306
32572ION     NA49046   9.578  13.702  12.847 -0.3361 -0.1501  0.0070
32573ION     NA49047  11.633  12.687   9.806 -0.1382 -0.1190  0.2610
32574ION     NA49048  17.419  12.876   4.966 -0.3682  0.0689  0.4936
32575ION     NA49049  16.876  15.794  11.346 -0.1995 -0.1377 -0.0716
32576ION     NA49050   2.245  15.715   9.214  0.2031 -0.0687 -0.0195
32577ION     NA49051  12.286  10.916   4.798  0.0305 -0.2401 -0.1501
32578ION     NA49052  15.196   1.004   9.314  0.4165 -0.0488  0.1114
32579ION     NA49053  15.298   1.952   9.846 -0.2032  0.1153 -0.2146
32580ION     NA49054  10.362  17.972   9.817  0.0736 -0.1858 -0.1771
32581ION     NA49055  10.957   7.264   9.382 -0.3137  0.0509  0.1591
32582ION     NA49056  13.704   9.749   9.459 -0.0442 -0.0799  0.1469
32583ION     NA49057  13.735  18.143   5.350 -0.3216 -0.1199  0.2811
32584ION     NA49058   8.703   5.023   2.275 -0.1560 -0.2766  0.1576
32585ION     NA49059  14.517  12.232   9.882 -0.2175  0.0194 -0.1427
32586ION     NA49060   6.713  17.211   2.700  0.1215 -0.1937 -0.2916
32587ION     NA49061  17.651  17.959  10.690 -0.2275  0.2267  0.1150
32588ION     NA49062  14.101   6.431   9.404 -0.0133  0.0846  0.0055
32589ION     NA49063  16.826  11.104  14.009 -0.0725  0.2862  0.0855
32590ION     NA49064   5.091  10.898   5.371 -0.0144 -0.0934 -0.1993
32591ION     NA49065   8.033  14.838   3.442 -0.2882  0.3840 -0.0326
32592ION     NA49066  10.713   9.487  12.059  0.0164 -0.0780 -0.1193
32593ION     NA49067   7.965  19.224   9.499 -0.0684 -0.3325 -0.3682
32594ION     NA49068   5.618  11.639   4.575 -0.1851  0.3011 -0.2939
32595ION     NA49069   7.807  12.342   0.896  0.0391 -0.0592 -0.0725
32596ION     NA49070   0.471  17.057  13.447 -0.0236 -0.4536  0.3331
32597ION     NA49071  17.852   6.083   9.570  0.0615 -0.1888 -0.3294
32598ION     NA49072   8.674  17.064  14.034 -0.0859  0.0781 -0.1581
32599ION     NA49073  16.419   2.653   2.586  0.2309  0.1525 -0.1162
32600ION     NA49074  16.214   4.659  13.545 -0.0505 -0.0748 -0.0464
32601ION     NA49075   7.042  12.114  13.830 -0.1209 -0.0217  0.0092
32602ION     NA49076  13.053   9.963   2.155  0.0033  0.0723  0.1765
32603ION     NA49077   2.611   5.280  10.691 -0.0061  0.1764  0.0491
32604ION     NA49078  18.392   7.492   9.920  0.3254  0.3629 -0.1229
32605ION     NA49079  12.950  12.964  11.007 -0.0735 -0.2283  0.0369
32606ION     NA49080  11.966  16.949   0.731  0.0806 -0.0163 -0.3687
32607ION     NA49081  14.886  16.130   4.439 -0.0417 -0.0145  0.1109
32608ION     NA49082   7.442   9.075   4.921  0.2803  0.4487 -0.2892
32609ION     NA49083  18.187  19.497   9.308  0.0950 -0.1878 -0.0644
32610ION     NA49084  19.039   4.558   9.852  0.0005  0.2313  0.0113
32611ION     NA49085   5.995  15.404   5.038  0.0182 -0.0357  0.0279
32612ION     NA49086  12.587  14.825  10.073  0.3533 -0.0868 -0.0998
32613ION     NA49087   2.826  14.993   9.516  0.1410 -0.0457  0.0549
32614ION     NA49088  18.627   3.157  13.456 -0.0486  0.1298 -0.1768
32615ION     NA49089   5.914  11.800   9.501  0.2996  0.0274 -0.4036
32616ION     NA49090  18.069  18.326   0.981 -0.0268  0.0120  0.1371
32617ION     NA49091   8.962   8.115  10.569 -0.2556  0.1841 -0.2059
32618ION     NA49092   1.959   8.856   9.699 -0.0237 -0.0119  0.1991
32619ION     NA49093  13.709   2.711   9.339  0.3340 -0.0907  0.0163
32620ION     NA49094  15.949  13.550   9.635  0.0431  0.0325  0.0841
32621ION     NA49095  10.458   8.289   3.347 -0.1574 -0.0517 -0.3312
32622ION     NA49096   4.160   1.328   4.615 -0.2155 -0.1672 -0.0026
32623ION     NA49097  11.486   6.334   9.286 -0.2146 -0.2425  0.0968
32624ION     NA49098   9.209   4.534   4.943  0.1886 -0.0081  0.1767
32625ION     NA49099  17.747   3.692   9.395  0.3149 -0.1360  0.0399
32626ION     NA49100  19.095  17.910   0.924  0.1311  0.2509  0.1670
32627ION     NA49101   0.181  15.785   9.831  0.1176 -0.2345  0.0023
32628ION     NA49102  17.945  10.557   9.474  0.2659  0.0758 -0.0166
32629ION     NA49103  12.068   5.774   1.135 -0.0737  0.0626  0.0624
32630ION     NA49104   6.840  17.521   9.287 -0.0955  0.0026 -0.0566
32631ION     NA49105   1.479   4.041   9.115 -0.1827  0.3356 -0.1560
32632ION     NA49106   3.340  16.599   9.597  0.0918 -0.0499  0.0008
32633ION     NA49107   9.551   8.244   9.313  0.1100  0.0079  0.2110
32634ION     NA49108  16.919   5.659   9.610  0.3002  0.2605 -0.0875
32635ION     NA49109   8.497  12.775   9.619 -0.2232 -0.4115  0.0732
32636ION     NA49110  12.984   9.224   5.022 -0.2693 -0.1172 -0.0255
32637ION     NA49111  12.360  17.647   1.782  0.1463 -0.1098 -0.1138
32638ION     NA49112  17.520   1.713  13.338 -0.0983 -0.3035 -0.0739
32639ION     NA49113   6.200  10.931  11.814 -0.2047  0.5664  0.0261
32640ION     NA49114   6.199   9.412   9.477  0.0064  0.0442 -0.0826
32641ION     NA49115   3.806  11.607  12.647 -0.1727 -0.4985 -0.1868
32642ION     NA49116   5.290  17.770   9.240  0.1009  0.0087 -0.1717
32643ION     NA49117  18.733   2.407   9.184 -0.3771 -0.3899  0.2202
32644ION     NA49118   4.368  14.893   1.953 -0.2811 -0.0136 -0.0578
32645ION     NA49119  12.706   3.699   9.348 -0.0675  0.2385  0.0558
32646ION     NA49120   3.928  18.494  12.596  0.0300  0.0153 -0.1273
32647ION     NA49121  19.332  17.780   9.655 -0.0830 -0.1247 -0.1371
32648ION     NA49122   5.468   0.366   9.038  0.0142 -0.0452  0.1969
32649ION     NA49123  15.738   0.476  13.179  0.0294 -0.2333 -0.3280
32650ION     NA49124   7.387   5.975   5.047 -0.0433  0.0098 -0.4541
32651ION     NA49125  16.695  16.107   2.560  0.0790  0.1423  0.0302
32652ION     NA49126   3.419  10.716   9.116  0.0334 -0.0423  0.3728
32653ION     NA49127  10.396   3.390   3.872 -0.2402  0.0181 -0.1636
32654ION     NA49128  12.950   9.599   9.663  0.2009 -0.3034 -0.0513
32655ION     NA49129   1.476  16.300   9.341 -0.1352  0.0280 -0.0663
32656ION     NA49130  17.591  12.405  11.435 -0.2972 -0.4963 -0.2815
32657ION     NA49131   9.658  13.211   5.158 -0.0705  0.0594 -0.0375
32658ION     NA49132  16.550  17.821   3.005 -0.3299  0.1658  0.0284
32659ION     NA49133  19.077   4.181   2.135 -0.0504  0.1130 -0.4724
32660ION     NA49134   0.186  10.665   9.349  0.2133 -0.1518  0.1105
32661ION     NA49135  17.509   1.606   4.030  0.1472 -0.3050  0.1828
32662ION     NA49136   6.227  15.258   9.645  0.0072 -0.1759 -0.0690
32663ION     NA49137   0.443  10.623   4.906 -0.0261  0.2320  0.3980
32664ION     NA49138   9.168  15.450  10.062  0.0027 -0.2523  0.0777
32665ION     NA49139   5.641  10.684  13.703 -0.2763 -0.1842  0.1114
32666ION     NA49140   4.318   5.514   5.074 -0.2679  0.0222  0.0248
32667ION     NA49141  16.023   8.159   9.899 -0.3431 -0.2917 -0.2598
32668ION     NA49142   0.697  19.547   9.239  0.0185  0.0829  0.1268
32669ION     NA49143   4.502  15.256   9.556 -0.1183  0.0689  0.2936
32670ION     NA49144  11.161  15.944   5.725 -0.2418 -0.4253  0.0167
32671ION     NA49145   1.259  14.705   9.443 -0.1517  0.0685  0.3565
32672ION     NA49146   4.504   7.610   4.763  0.2854 -0.0218 -0.0101
32673ION     NA49147   6.551  19.534   3.767 -0.2357 -0.0250  0.0150
32674ION     NA49148   8.878  17.267   9.772  0.2509  0.1256  0.0485
32675ION     NA49149   6.672   6.109   9.220  0.2351 -0.1238  0.0017
32676ION     NA49150   2.897  10.185   5.074  0.0133 -0.0877  0.1096
32677ION     NA49151  10.622   2.961  13.091 -0.3008 -0.2457  0.1275
32678ION     NA49152   7.997   4.751  10.690  0.1195 -0.2677 -0.3644
32679ION     NA49153  17.437  12.192   1.922  0.0771 -0.2817  0.2100
32680ION     NA49154  17.528  13.870   5.313  0.4256  0.0447 -0.1688
32681ION     NA49155   5.963  17.172   9.325 -0.1202 -0.1878 -0.2061
32682ION     NA49156  17.329   8.635  12.316  0.1537 -0.1853  0.4471
32683ION     NA49157   4.380  15.679  11.421 -0.1883 -0.3456 -0.0633
32684ION     NA49158  17.439  16.579   9.774  0.1093 -0.1637  0.0141
32685ION     NA49159   5.610   0.476  13.980  0.0511 -0.0208  0.2337
32686ION     NA49160   1.131  10.474   9.292  0.0663  0.2182 -0.1779
32687ION     NA49161   2.596   0.239   9.189 -0.2847 -0.1449  0.1684
32688ION     NA49162   3.473   5.812   9.511 -0.0076  0.0689 -0.0608
32689ION     NA49163  19.427  14.365   1.045 -0.2675 -0.0266 -0.0350
32690ION     NA49164  11.155   1.517   9.490 -0.2828  0.0329  0.0173
32691ION     NA49165  16.128  10.801  10.526 -0.3328 -0.0064  0.3292
32692ION     NA49166   5.173  10.277   9.293  0.0752  0.0311 -0.2857
32693ION     NA49167  16.130  18.053   9.395  0.0084 -0.1478  0.3152
32694ION     NA49168  19.091   8.110   5.232 -0.2136 -0.0904  0.1786
32695ION     NA49169   8.940  11.678   9.991 -0.1011 -0.2008 -0.1337
32696ION     NA49170  10.456   8.769   9.455 -0.0254  0.0392 -0.0660
32697ION     NA49171   4.487  16.570   5.124  0.3415 -0.2776  0.1111
32698ION     NA49172  10.795   3.612   8.832  0.1362  0.3443 -0.0138
32699ION     NA49173   6.007  13.855  12.603  0.0505 -0.5400  0.0569
32700ION     NA49174  16.965  15.718  10.089  0.0339 -0.0859 -0.0665
32701ION     NA49175  12.544   0.508   9.547 -0.0612  0.0055 -0.1793
32702ION     NA49176  15.062   3.874   9.505 -0.1390 -0.0020 -0.0207
32703ION     NA49177   0.231  12.428  10.801 -0.0224 -0.1126  0.1468
32704ION     NA49178   2.929   4.573   9.187  0.1587 -0.1280  0.0402
32705ION     NA49179  14.587  13.286   0.354  0.1415 -0.0419 -0.2997
32706ION     NA49180   1.930   2.648   4.978  0.1568  0.1824  0.3091
32707ION     NA49181  16.728   0.970   1.216 -0.0478  0.1043  0.0573
32708ION     NA49182   7.940  10.156  10.700 -0.1066  0.0550 -0.2703
32709ION     NA49183  14.020  15.486   9.543 -0.0091  0.1645  0.0387
32710ION     NA49184   9.072   6.603   2.484 -0.4010 -0.2132  0.1936
32711ION     NA49185  19.196  19.416   9.271 -0.0262  0.2434  0.3978
32712ION     NA49186  17.412   2.153   9.414 -0.2055 -0.2694  0.3075
32713ION     NA49187  16.214   5.042   9.446  0.2064 -0.1474 -0.1555
32714ION     NA49188  17.528   8.380   9.786  0.1849 -0.0463 -0.0447
32715ION     NA49189  10.410  15.922   5.492 -0.2921  0.1471 -0.1234
32716ION     NA49190   1.210  19.601   9.169  0.0013  0.0107 -0.1440
32717ION     NA49191   0.600   0.765   9.464  0.1052 -0.0263  0.0693
32718ION     NA49192   7.029  17.328   5.279 -0.1867 -0.4312 -0.0855
32719ION     NA49193  12.160   3.127   1.257 -0.3062  0.0474  0.0076
32720ION     NA49194   3.096   4.226  14.339  0.1230  0.1851 -0.4022
32721ION     NA49195   2.836   8.411   9.635  0.1907 -0.1386 -0.0618
32722ION     NA49196   4.069   7.436  10.122  0.1965  0.0981 -0.0587
32723ION     NA49197   3.234   6.902  11.355 -0.0991  0.0851  0.2048
32724ION     NA49198  11.944  19.596   9.887 -0.1320 -0.1496 -0.0369
32725ION     NA49199   9.306   1.608   9.939  0.2413 -0.3015  0.0874
32726ION     NA49200   6.161   5.441   9.306 -0.0949  0.0311  0.0073
32727ION     NA49201   4.914  14.508   9.614 -0.1347  0.0284 -0.1088
32728ION     NA49202   4.094  10.274   9.109 -0.0710 -0.0033  0.0813
32729ION     NA49203  11.613  17.162   5.671 -0.1995  0.0546 -0.0732
32730ION     NA49204   1.079  15.439   9.543 -0.1965  0.1743 -0.2856
32731ION     NA49205  15.220   3.650   9.976 -0.0380 -0.0311 -0.1338
32732ION     NA49206  15.137   3.935  12.907 -0.1628 -0.1234  0.0121
32733ION     NA49207  14.622   7.176   1.555  0.2130 -0.0788  0.1423
32734ION     NA49208  15.804   6.424   9.716  0.0236  0.2705 -0.1410
32735ION     NA49209   6.581  11.859   9.532 -0.2819 -0.1776  0.2802
32736ION     NA49210   1.071   8.788   0.413 -0.1498  0.2592 -0.0444
32737ION     NA49211   4.877  18.544   9.190  0.0055  0.1033 -0.0951
32738ION     NA49212  10.118  12.577   4.489  0.0215 -0.2570  0.1232
32739ION     NA49213  10.190  18.887   9.720  0.0359 -0.1303 -0.4082
32740ION     NA49214   2.930  18.027   9.118 -0.0273 -0.0434 -0.2609
32741ION     NA49215  17.350  14.567   9.723 -0.2220  0.2873  0.1469
32742ION     NA49216   9.578   7.047   9.541  0.0742 -0.1645  0.1510
32743ION     NA49217  17.744  15.392   9.745 -0.2175 -0.4649 -0.2112
32744ION     NA49218   6.814  10.872   9.227  0.0086  0.2126 -0.1307
32745ION     NA49219  13.384   5.766   9.316  0.0304 -0.3859  0.0289
32746ION     NA49220   1.070   7.519   0.588 -0.1483 -0.0069 -0.2004
32747ION     NA49221   5.237   3.114   9.098  0.2488 -0.1451 -0.2287
32748ION     NA49222  16.836   8.398  10.170  0.2128  0.2364 -0.5236
32749ION     NA49223   7.872   3.027   9.307 -0.0196  0.1538 -0.0137
32750ION     NA49224   1.083  17.748   9.381  0.3630  0.0827 -0.2621
32751ION     NA49225  18.123  16.600  10.167  0.1491  0.3423  0.1082
32752ION     NA49226  14.134  19.066   9.434  0.5150  0.1202  0.0046
32753ION     NA49227   7.113  19.611   9.142 -0.2057 -0.4791 -0.1323
32754ION     NA49228  14.423   7.666  12.429  0.2393 -0.0491  0.0007
32755ION     NA49229   4.145   5.485  10.552  0.1945 -0.0861 -0.1424
32756ION     NA49230  11.763   7.404   9.416 -0.0062  0.0289  0.0010
32757ION     NA49231   4.889  13.598  10.689 -0.3297  0.1251 -0.0582
32758ION     NA49232  10.341   1.300   9.628 -0.2321  0.2262  0.3301
32759ION     NA49233   3.903  15.705   9.354  0.1883 -0.1773  0.2532
32760ION     NA49234  15.459  17.822   9.310 -0.0825 -0.2039 -0.3262
32761ION     NA49235   2.120  13.318   9.857  0.1412 -0.0185 -0.0441
32762ION     NA49236   1.281   5.054   9.304  0.0057 -0.1404  0.0313
32763ION     NA49237   9.463  14.229  10.321  0.0935  0.1133  0.2572
32764ION     NA49238   9.584   9.344   9.156  0.1449 -0.1057 -0.0778
32765ION     NA49239  16.268  12.479   9.725 -0.2534 -0.1970 -0.0913
32766ION     NA49240   0.254   1.562   9.589  0.1460  0.2327  0.2594
32767ION     NA49241   8.395   4.775   9.632 -0.0155 -0.1867  0.0927
32768ION     NA49242   8.678   8.986   9.171  0.1436  0.2051  0.2963
32769ION     NA49243  10.399   4.009   5.021 -0.1369  0.0401  0.1992
32770ION     NA49244   6.685  16.105   9.628 -0.0273  0.6865 -0.1245
32771ION     NA49245  10.734   3.335   9.695 -0.2449  0.0569 -0.3053
32772ION     NA49246   2.407  10.616  10.659  0.1198 -0.0052 -0.1576
32773ION     NA49247  12.700   7.901   9.700 -0.0241 -0.1858  0.2299
32774ION     NA49248   3.563  11.072   4.353  0.0083 -0.0358 -0.0541
32775ION     NA49249   0.269  17.224   9.947  0.3502 -0.1545 -0.0075
32776ION     NA49250  18.462   2.151   9.668  0.0431  0.1710 -0.0664
32777ION     NA49251  18.150   1.635   9.030  0.0547  0.1209  0.4298
32778ION     NA49252  18.452  15.259   9.854  0.0693  0.0511  0.0268
32779ION     NA49253   8.826   0.178   2.743 -0.2610 -0.2439  0.2317
32780ION     NA49254  10.290   0.241   9.755 -0.0325 -0.3517 -0.0959
32781ION     NA49255   7.145  13.287   5.392  0.3667 -0.1373  0.0262
32782ION     NA49256  18.899  11.187   4.386 -0.2822  0.1260  0.3340
32783ION     NA49257  12.379   6.122   9.441  0.0198 -0.1872 -0.0288
32784ION     NA49258  18.722   6.421   5.368 -0.0295  0.0230 -0.0664
32785ION     NA49259   9.937   4.547   9.224  0.0085  0.0627 -0.2268
32786ION     NA49260  13.691  14.340   5.313  0.0698  0.0390 -0.2718
32787ION     NA49261  12.865   3.464   4.884 -0.0984 -0.3005 -0.1177
32788ION     NA49262  10.056   0.122   0.642  0.2697  0.0156 -0.1235
32789ION     NA49263  13.892   4.397  11.319  0.4068  0.0276  0.0143
32790ION     NA49264   5.142   1.829   9.031 -0.2186  0.0201 -0.4933
32791ION     NA49265   5.209  16.009   4.841 -0.0329  0.1985  0.1456
32792ION     NA49266   7.250   0.042   1.077  0.0020  0.0367 -0.0856
32793ION     NA49267  19.418   4.158   9.183 -0.0677  0.0023 -0.1274
32794ION     NA49268  13.573   8.016   9.422  0.0938 -0.1712 -0.0531
32795ION     NA49269  12.845  12.305  12.744  0.0015  0.1229  0.0087
32796ION     NA49270   9.867   1.265  14.265 -0.0598 -0.2378  0.0969
32797ION     NA49271  10.071  13.196  12.991 -0.1130 -0.2253 -0.5070
32798ION     NA49272   4.071  19.066   8.967  0.2216  0.0010 -0.1470
32799ION     NA49273   6.205   4.064   9.533 -0.1463 -0.2741  0.1020
32800ION     NA49274   9.977   8.644   0.757  0.3946 -0.0216  0.2243
32801ION     NA49275  12.146   7.754  10.445 -0.2919  0.1617 -0.2601
32802ION     NA49276  18.028   3.098  10.121 -0.1061  0.3262 -0.0639
32803ION     NA49277   0.551  11.363   9.058 -0.1864 -0.0059  0.2406
32804ION     NA49278  13.761   0.159   5.137  0.0922 -0.1824 -0.1696
32805ION     NA49279  11.461  12.728   0.768 -0.3281  0.0376 -0.0203
32806ION     NA49280   4.977  11.497   9.732  0.3815  0.1574 -0.0676
32807ION     NA49281   1.808   6.420   9.533 -0.0607  0.1228 -0.0736
32808ION     NA49282   6.921   9.432   9.083  0.0637 -0.0782  0.1731
32809ION     NA49283   8.847   9.921  10.239 -0.1077 -0.2233  0.4039
32810ION     NA49284  12.348   7.071   5.055 -0.0745  0.1729  0.1435
32811ION     NA49285   0.902   2.007   9.325  0.5506  0.2248  0.0931
32812ION     NA49286   5.349   3.069   4.537 -0.1658 -0.1362  0.1041
32813ION     NA49287   9.933  13.122   9.757  0.0230 -0.0559  0.2458
32814ION     NA49288   3.636   4.967   9.480  0.1090 -0.1238 -0.0623
32815ION     NA49289   2.437   8.807  12.681 -0.0947 -0.3818  0.0909
32816ION     NA49290  15.629   5.955   4.908  0.3705 -0.1311  0.1892
32817ION     NA49291   0.755  16.401   9.643 -0.0251  0.0933  0.2211
32818ION     NA49292  17.433  11.475   9.456 -0.1142 -0.0661  0.1067
32819ION     NA49293  16.043   5.078  12.575  0.0508 -0.0598 -0.0724
32820ION     NA49294   2.999   9.885   3.083 -0.2406  0.1742 -0.1474
32821ION     NA49295   3.587   2.608   4.325 -0.5367 -0.1465 -0.1537
32822ION     NA49296  19.253  13.986   9.362  0.1267  0.0109 -0.1022
32823ION     NA49297  15.623   2.676   5.156  0.1753 -0.1053  0.0142
32824ION     NA49298   2.053   6.775   5.052  0.1666 -0.1707 -0.1025
32825ION     NA49299  12.965   8.251  11.472 -0.3699 -0.3281 -0.0511
32826ION     NA49300   6.741  13.466   1.821 -0.0642 -0.2550 -0.0419
32827ION     NA49301  15.709  13.991   4.713  0.2243 -0.0203  0.2589
32828ION     NA49302  10.392   7.912   9.511  0.0277  0.0061 -0.1513
32829ION     NA49303   1.101   9.860   0.122 -0.1156 -0.1417 -0.1957
32830ION     NA49304   5.174  12.400   9.667  0.0263 -0.2242 -0.0447
32831ION     NA49305  12.321  16.901   3.039  0.0953 -0.2432  0.0906
32832ION     NA49306   8.761   5.743  10.329  0.0733  0.0397  0.1517
32833ION     NA49307  11.426  15.036   5.520  0.0559  0.0785 -0.4139
32834ION     NA49308   5.473  15.220   9.342  0.1453  0.0407  0.0278
32835ION     NA49309   8.070   2.504   5.411 -0.1971 -0.0088  0.0865
32836ION     NA49310   5.638  13.866   4.544  0.1427 -0.0597  0.2679
32837ION     NA49311  16.090  15.840   9.938 -0.0496 -0.1554 -0.1779
32838ION     NA49312   0.151   1.652   5.286  0.1546 -0.1469  0.1536
32839ION     NA49313  13.513   0.218   9.652  0.3102  0.1779  0.0467
32840ION     NA49314   7.604  11.417   9.279 -0.0464  0.2220  0.1198
32841ION     NA49315   9.316  10.740   9.578 -0.1946  0.1004 -0.3293
32842ION     NA49316   0.606  13.188   9.594  0.5800 -0.0556 -0.1402
32843ION     NA49317  15.029   4.258  10.702 -0.1403  0.3555  0.0486
32844ION     NA49318  11.857  10.103   4.900  0.0634 -0.0221 -0.2923
32845ION     NA49319  12.806   2.277  12.680 -0.1414 -0.3021 -0.2070
32846ION     NA49320   7.257   8.914  10.274  0.4020  0.0531 -0.4407
32847ION     NA49321   9.026   0.728   9.445  0.1032 -0.0404  0.1740
32848ION     NA49322   8.192   0.777   9.644  0.1332 -0.3503 -0.1888
32849ION     NA49323  15.617   4.315   9.518  0.1588 -0.4313 -0.2854
32850ION     NA49324   5.328   9.213   9.529  0.0051 -0.1992 -0.1113
32851ION     NA49325   3.609   2.734   9.077  0.3726 -0.0085 -0.0288
32852ION     NA49326  14.489   1.278   3.656  0.2643 -0.3558  0.2246
32853ION     NA49327   4.251  16.080  12.399 -0.1727 -0.4972 -0.1091
32854ION     NA49328  10.711   5.609   9.464  0.0924  0.1741 -0.1635
32855ION     NA49329  16.613  11.028   9.641 -0.3469  0.0124  0.1509
32856ION     NA49330  13.202   6.369   9.559  0.3385  0.2993 -0.0939
32857ION     NA49331  14.261  14.634  10.003  0.1123  0.1342 -0.2003
32858ION     NA49332   4.374  10.981   3.175 -0.4400  0.0552  0.0380
32859ION     NA49333  19.223  11.396   9.355  0.1801 -0.5520  0.2424
32860ION     NA49334  12.479  15.746   9.998  0.2518 -0.4045 -0.1737
32861ION     NA49335   4.689   6.987   9.626  0.1435  0.0465  0.1472
32862ION     NA49336  17.789  19.210  14.068 -0.2026 -0.2065 -0.3273
32863ION     NA49337  19.141   8.640   1.400 -0.5249  0.1000  0.1989
32864ION     NA49338   1.757  17.068   9.575  0.0207 -0.0384  0.3767
32865ION     NA49339   0.594  18.292   9.240  0.2091  0.2683 -0.1793
32866ION     NA49340   7.577   6.478  13.946  0.2076 -0.2212 -0.0763
32867ION     NA49341   0.474   5.198  10.351 -0.1054 -0.0537 -0.3367
32868ION     NA49342  17.319  14.789   0.940 -0.1202 -0.0603 -0.0390
32869ION     NA49343   5.188   2.706  12.773  0.2733 -0.1947  0.2546
32870ION     NA49344  17.340  13.572   4.690 -0.2292 -0.3492  0.2412
32871ION     NA49345   0.941   5.940   9.649  0.1017  0.2008  0.1700
32872ION     NA49346   2.763   2.075   9.141 -0.0748 -0.1132 -0.1047
32873ION     NA49347   0.616   6.861   9.808  0.0723 -0.1642  0.0143
32874ION     NA49348   1.062   8.340   5.338 -0.3754  0.0733 -0.0849
32875ION     NA49349  11.586  18.109   4.497 -0.0056  0.0993 -0.0892
32876ION     NA49350   0.604   4.259   4.646 -0.2627  0.0483  0.2288
32877ION     NA49351  12.793  11.637   5.613 -0.1679  0.1508  0.1265
32878ION     NA49352  12.193   2.885   4.438  0.1971 -0.3547 -0.0636
32879ION     NA49353  17.888  13.080   0.519 -0.0926 -0.0851  0.1574
32880ION     NA49354  11.059   2.864   9.044  0.2266 -0.2701  0.0831
32881ION     NA49355   3.328  17.443   9.212  0.2108 -0.0029 -0.3373
32882ION     NA49356  14.855  16.519   9.569 -0.2057  0.2137  0.0932
32883ION     NA49357  12.259   6.498   2.220 -0.0396  0.1870 -0.1726
32884ION     NA49358  12.928   1.107  11.818  0.2428  0.0932  0.4572
32885ION     NA49359   3.180  10.449   9.484 -0.1102 -0.2343 -0.2356
32886ION     NA49360  12.578   2.877   9.084  0.2311  0.3619 -0.1269
32887ION     NA49361  18.351   8.199   9.753  0.1562 -0.2803 -0.0733
32888ION     NA49362   9.400  18.159   9.887 -0.2945  0.3621 -0.0123
32889ION     NA49363   2.602  14.922  12.176  0.0094 -0.2323 -0.1290
32890ION     NA49364  11.449   5.182   9.551 -0.4943  0.3264  0.1601
32891ION     NA49365  17.700   0.531  12.825  0.2502 -0.1105 -0.4082
32892ION     NA49366   5.734   9.306   3.000  0.2427  0.0798  0.1294
32893ION     NA49367   2.919  12.541   1.445 -0.0673 -0.1878 -0.0586
32894ION     NA49368  10.744  17.204  10.132  0.2259 -0.1180 -0.0078
32895ION     NA49369  18.628   5.061  13.836  0.5098  0.2002  0.0365
32896ION     NA49370  15.744   7.452   9.715  0.2299 -0.1804  0.0401
32897ION     NA49371  10.427  10.718   9.687  0.5673 -0.1515  0.3924
32898ION     NA49372  12.401   3.045  11.540 -0.2690  0.0099  0.1447
32899ION     NA49373   6.904   3.103   5.256  0.2221 -0.0935  0.2030
32900ION     NA49374  17.410  19.095   1.230  0.0144  0.3096 -0.1517
32901ION     NA49375   7.570   3.863   4.680  0.1547 -0.0251 -0.0982
32902ION     NA49376   3.533   9.836   2.287  0.1381  0.4752 -0.3457
32903ION     NA49377  17.327   8.034   4.974 -0.1376 -0.0801 -0.3367
32904ION     NA49378  17.357   5.199   5.163  0.3746  0.1826 -0.1768
32905ION     NA49379   3.214   2.202  14.637 -0.1306 -0.2111  0.1383
32906ION     NA49380  14.286  15.963   9.719  0.0561 -0.2370 -0.0836
32907ION     NA49381  10.358  11.437   9.585  0.0809  0.1546 -0.0176
32908ION     NA49382   4.769  13.238   5.252 -0.1059 -0.0555  0.0937
32909ION     NA49383  10.027  11.888  11.602  0.2599  0.1933 -0.0357
32910ION     NA49384  13.217   1.148   2.386 -0.4217  0.0633 -0.1981
32911ION     NA49385  11.624   3.137   9.022  0.0991  0.1064 -0.0384
32912ION     NA49386   6.846  18.735   1.614  0.3942 -0.6156  0.1189
32913ION     NA49387  18.926   2.845   9.985 -0.0078  0.0381 -0.0963
32914ION     NA49388  16.784  10.478   2.143 -0.0950 -0.4793  0.0568
32915ION     NA49389  15.958  15.558   4.637  0.1715  0.0398 -0.1527
32916ION     NA49390   7.745   9.034   9.249  0.1340  0.1217 -0.3305
32917ION     NA49391  13.324  14.659   3.336 -0.2043  0.1515  0.0897
32918ION     NA49392  14.600  17.663   9.772 -0.4021 -0.2114  0.3682
32919ION     NA49393  11.534   1.809  13.648 -0.0655  0.2319 -0.1230
32920ION     NA49394   6.880  18.711   4.182 -0.2991  0.1492  0.1564
32921ION     NA49395   4.533   4.663   9.580 -0.1079  0.1826  0.0860
32922ION     NA49396  13.566   9.893  11.629 -0.1174 -0.3437 -0.2156
32923ION     NA49397  11.097   9.303   9.406 -0.2044  0.2178 -0.1363
32924ION     NA49398   0.588  19.465   2.100  0.0984 -0.0255 -0.4074
32925ION     NA49399   8.084  12.045   9.503 -0.4495 -0.2975 -0.0619
32926ION     NA49400  11.895  18.516   5.519 -0.1843 -0.0089  0.2639
32927ION     NA49401   2.120   1.649   1.652 -0.2400  0.3969  0.0636
32928ION     NA49402  13.117  11.340  14.184  0.0433  0.0442  0.0829
32929ION     NA49403  13.595   1.702   9.259  0.0595  0.0632  0.1161
32930ION     NA49404   0.345  15.432  12.205  0.1266 -0.0111  0.4182
32931ION     NA49405   1.779   0.173  11.115  0.0062  0.1557 -0.0216
32932ION     NA49406  10.980  19.043   0.064 -0.1411 -0.2940  0.0893
32933ION     NA49407  10.853   9.877   0.978 -0.0906 -0.0324  0.3185
32934ION     NA49408  15.850  10.568   9.602  0.0175  0.0431 -0.0715
32935ION     NA49409   7.773  10.563   9.324 -0.0397  0.0609 -0.2684
32936ION     NA49410   2.287  18.933   3.941 -0.1986  0.0310 -0.5478
32937ION     NA49411  15.430  13.151   9.630 -0.2842 -0.1042  0.5283
32938ION     NA49412  15.194  11.250   9.513  0.0062 -0.1224 -0.2752
32939ION     NA49413   7.512   8.561  12.461 -0.2338  0.5678 -0.2599
32940ION     NA49414   9.371   4.488   9.067  0.0624  0.1785  0.1938
32941ION     NA49415  14.172  16.893   9.692  0.0492 -0.2168  0.1319
32942ION     NA49416   0.514   3.921   5.075  0.1194  0.3231 -0.3682
32943ION     NA49417  18.146  14.875   5.413  0.0320  0.2299  0.0314
32944ION     NA49418   2.026  17.081   9.116  0.1145 -0.0029  0.2285
32945ION     NA49419   2.104   7.252   0.094 -0.2339 -0.0080  0.1290
32946ION     NA49420   4.924   1.322   8.999 -0.3855  0.0122 -0.4715
32947ION     NA49421   7.729  12.837   5.192  0.0977  0.0623  0.0953
32948ION     NA49422   7.426   0.848   9.363  0.0053 -0.0616  0.0922
32949ION     NA49423   6.632   3.361   9.209  0.0043 -0.3874  0.4029
32950ION     NA49424  15.565  11.187  14.531 -0.1221 -0.0824  0.1068
32951ION     NA49425  16.668  17.266   9.435 -0.0722  0.3783 -0.1547
32952ION     NA49426   9.430   9.211   2.160  0.1222  0.0292  0.2879
32953ION     NA49427   1.571  12.476  11.062 -0.0097 -0.0410 -0.2683
32954ION     NA49428  15.021  17.326   0.542  0.1037 -0.1499  0.0839
32955ION     NA49429   1.286  12.735   9.483  0.1285  0.0157 -0.5301
32956ION     NA49430  15.234   9.428  14.043  0.0889  0.1212 -0.2521
32957ION     NA49431   1.421   0.607  14.451  0.2636  0.0912  0.2459
32958ION     NA49432   3.980  11.306   9.628 -0.1237  0.4205  0.1591
32959ION     NA49433  10.345  15.072  10.138 -0.2371  0.3166  0.0606
32960ION     NA49434   4.369   7.740   9.425 -0.1195 -0.0989 -0.0067
32961ION     NA49435   0.482  11.145   5.042 -0.3357 -0.0099 -0.0347
32962ION     NA49436   9.440   3.776  13.121  0.2285 -0.1379 -0.3024
32963ION     NA49437   7.196   2.990   4.730 -0.1859  0.4187 -0.0087
32964ION     NA49438   8.271   1.281   9.742  0.2528 -0.1300 -0.1126
32965ION     NA49439   6.505  13.744   9.708  0.2945  0.0281  0.1475
32966ION     NA49440   4.093  16.157   9.337 -0.0555  0.1001 -0.0761
32967ION     NA49441  15.988  11.522   9.680  0.1570  0.1546 -0.2354
32968ION     NA49442  13.254   2.289   2.314  0.3815  0.1563 -0.1861
32969ION     NA49443   1.509   7.829   9.411 -0.2941  0.2682 -0.0334
32970ION     NA49444   4.925   4.904   4.578  0.1270 -0.1290 -0.0810
32971ION     NA49445   3.879   8.426   1.235 -0.1372  0.0027  0.1345
32972ION     NA49446   9.534  19.524  12.211 -0.0006 -0.0126  0.1371
32973ION     NA49447   3.632  16.356  12.184  0.0747  0.0782 -0.2290
32974ION     NA49448  13.179  14.997  10.008  0.2277 -0.1600  0.0685
32975ION     NA49449   9.799   4.202  11.788  0.0387 -0.2002  0.3670
32976ION     NA49450  19.515   5.625  12.142 -0.0714  0.3046  0.1088
32977ION     NA49451  14.799   4.872   9.535 -0.3791  0.1400  0.4025
32978ION     NA49452   2.813   6.533   9.567  0.1978 -0.1421 -0.1336
32979ION     NA49453   4.858  16.280   9.824 -0.0222 -0.2865  0.0813
32980ION     NA49454  15.531   7.599  10.626 -0.0385  0.2270  0.1001
32981ION     NA49455   8.062   0.128  14.658 -0.0862  0.0713  0.0567
32982ION     NA49456  15.041  15.682   9.769 -0.1973  0.0763 -0.2197
32983ION     NA49457  18.452  13.640  11.577 -0.0062  0.0344 -0.2095
32984ION     NA49458  15.997   8.949   3.452 -0.2127 -0.1274 -0.0845
32985ION     NA49459   1.346  13.728   9.756  0.2348 -0.0184 -0.1486
32986ION     NA49460   1.116   6.406   4.922  0.0314  0.0191 -0.2043
32987ION     NA49461  15.678  16.448   5.131 -0.2233  0.0698  0.1137
32988ION     NA49462   2.266   7.204   9.331  0.2266  0.0246  0.0731
32989ION     NA49463   1.815  12.084   9.219  0.0642  0.3100 -0.1545
32990ION     NA49464  11.628  15.576  10.018 -0.1030 -0.3515 -0.0107
32991ION     NA49465   0.212   9.133   9.669 -0.2960  0.0983 -0.0872
32992ION     NA49466   7.920  18.003   9.713  0.1090 -0.0151 -0.1306
32993ION     NA49467  19.324   3.333   9.092 -0.2578  0.0153  0.1292
32994ION     NA49468   0.642   7.476   4.333 -0.1684 -0.2897 -0.0408
32995ION     NA49469   0.390  18.587  11.892  0.1594 -0.0904 -0.0939
32996ION     NA49470   1.857  19.594   9.093 -0.0894  0.3231 -0.1234
32997ION     NA49471   2.985   1.092   8.808  0.1490  0.0623  0.3553
32998ION     NA49472   0.112  19.039   9.689  0.3678  0.0140  0.0648
32999ION     NA49473   1.449   2.946  13.901  0.1828 -0.1050 -0.0360
33000ION     NA49474  19.035  13.334   3.357 -0.1017  0.2276  0.0673
33001ION     NA49475   9.841   8.226   4.856  0.0606 -0.0930 -0.2406
33002ION     NA49476  19.361   6.725   9.532 -0.0436 -0.0950  0.1878
33003ION     NA49477   9.092   9.999   9.451 -0.3513  0.1872 -0.0026
33004ION     NA49478  11.793   2.233   9.122  0.0199 -0.0842  0.3082
33005ION     NA49479   9.366   6.155   9.471  0.1754 -0.5623  0.0946
33006ION     NA49480   7.368  14.125   5.300 -0.0324  0.0631 -0.0562
33007ION     NA49481  17.361  10.088   4.806 -0.2951  0.3034 -0.3023
33008ION     NA49482  14.865  11.435   9.806  0.1262  0.0711 -0.2396
33009ION     NA49483  16.820  17.255  10.654 -0.3330  0.0562 -0.2619
33010ION     NA49484   9.661  16.700  10.250 -0.0684  0.1761  0.2449
33011ION     NA49485  11.959  18.336   9.473  0.1228  0.0571 -0.2981
33012ION     NA49486  14.793   6.629   2.138  0.2454 -0.2544 -0.1457
33013ION     NA49487   0.079  12.356   9.328 -0.0157  0.0896  0.1059
33014ION     NA49488  14.627  12.265   2.034 -0.3143  0.1528  0.3191
33015ION     NA49489   3.072  14.752  13.150 -0.1571 -0.0576  0.0714
33016ION     NA49490   2.605   7.278  11.964 -0.3579 -0.0770 -0.2568
33017ION     NA49491  11.995   8.368   3.621  0.0884 -0.2785  0.1271
33018ION     NA49492   6.238   6.407   9.151 -0.1695 -0.1950 -0.2349
33019ION     NA49493   0.954   9.091  10.846 -0.3635 -0.2962 -0.3960
33020ION     NA49494   8.668   3.864  12.506  0.2244 -0.0672  0.4907
33021ION     NA49495  12.053   1.780   9.153  0.0557  0.0316 -0.3821
33022ION     NA49496  17.882   6.779  11.864 -0.3969 -0.3030 -0.3147
33023ION     NA49497   4.958  19.218   4.769  0.0110 -0.0215  0.0299
33024ION     NA49498  12.104  18.451  10.019 -0.4390 -0.0281  0.5788
33025ION     NA49499   5.141   7.747   9.484  0.1117 -0.2698 -0.1761
33026ION     NA49500   5.667  13.191   9.741 -0.0389 -0.1050 -0.2208
33027ION     NA49501  15.417   9.499   9.664 -0.0744 -0.1410 -0.1965
33028ION     NA49502  12.622  13.814   5.665 -0.3525  0.0482 -0.1217
33029ION     NA49503   1.304   9.649   9.597 -0.2628 -0.0212 -0.1709
33030ION     NA49504  14.981   1.943   9.417  0.0716 -0.3869 -0.3142
33031ION     NA49505  12.691  10.159   9.609  0.2928  0.0528  0.1869
33032ION     NA49506   5.997  12.632   5.599  0.2004 -0.1029 -0.1560
33033ION     NA49507   4.574   3.635  12.056 -0.3430  0.1358  0.1732
33034ION     NA49508   6.400   6.988   5.114 -0.0408  0.0124 -0.0057
33035ION     NA49509  15.709  16.038   1.287 -0.7884 -0.1809  0.0930
33036ION     NA49510   4.139  13.164   5.371  0.1235 -0.2019  0.1803
33037ION     NA49511  16.598  14.082   9.780  0.0911 -0.0920 -0.0301
33038ION     NA49512  15.119  10.823  13.771 -0.2225 -0.0364  0.0844
33039ION     NA49513   0.462   9.983   9.212 -0.2104  0.2780 -0.3250
33040ION     NA49514  13.445  13.034  10.244  0.3750 -0.0163  0.2111
33041ION     NA49515  15.118  11.805   5.121 -0.1662  0.4754 -0.1143
33042ION     NA49516  11.594  10.226   5.352 -0.3279 -0.0879  0.0168
33043ION     NA49517  11.329  16.456  10.399  0.1414  0.0260  0.3439
33044ION     NA49518  12.795   2.086   5.140 -0.0030 -0.0328  0.1783
33045ION     NA49519  13.221   6.813   4.977  0.1521  0.3312  0.1639
33046ION     NA49520   7.732   5.561   9.354 -0.0110 -0.0602  0.0345
33047ION     NA49521  11.051   0.713   9.703 -0.0493  0.0522  0.0001
33048ION     NA49522   8.848   1.640   9.375  0.0276 -0.4768 -0.1427
33049ION     NA49523   7.653   4.647   8.973 -0.2540  0.0820  0.1475
33050ION     NA49524  11.088  14.067  10.503 -0.0184 -0.0357  0.2232
33051ION     NA49525   1.172   9.024   2.163  0.2316  0.1014 -0.0131
33052ION     NA49526   9.536  18.971   2.251 -0.3743  0.0128  0.2407
33053ION     NA49527   8.748   6.839   9.293  0.0322  0.0581  0.7524
33054ION     NA49528  16.860   3.210   9.416 -0.0255  0.1099 -0.2700
33055ION     NA49529  11.281  12.431  10.090 -0.0219  0.1113  0.0349
33056ION     NA49530  13.262   3.462   2.390  0.0235  0.1234 -0.6375
33057ION     NA49531   0.935   3.812  11.735  0.0056  0.3219  0.0447
33058ION     NA49532  17.741   5.158   9.483 -0.0073  0.0146  0.2145
33059ION     NA49533  10.997  14.730  10.047 -0.4646  0.0641  0.3110
33060ION     NA49534   6.043  18.160   3.718 -0.2163 -0.1881 -0.0543
33061ION     NA49535   6.381  12.638   9.510 -0.0662  0.1561  0.1511
33062ION     NA49536   2.146   9.896   4.671  0.0054  0.1087  0.0306
33063ION     NA49537  14.283   6.166  14.006  0.1402  0.0592  0.3764
33064ION     NA49538   9.753  12.023   9.805 -0.2603  0.3864 -0.0914
33065ION     NA49539   0.971  17.974   4.667  0.2898  0.1143 -0.1006
33066ION     NA49540  11.969  10.757   9.476  0.1797  0.2455 -0.2622
33067ION     NA49541   9.722   3.630   8.968  0.3236 -0.0141 -0.0927
33068ION     NA49542  19.600  13.725   5.282 -0.0582  0.5057 -0.4569
33069ION     NA49543   2.778  11.458   4.769  0.0673  0.1453 -0.1397
33070ION     NA49544  10.552  17.906  10.334  0.3355  0.0803 -0.1994
33071ION     NA49545   2.776  12.824   9.709  0.0255 -0.0698  0.0707
33072ION     NA49546  12.469   1.442   9.240  0.0237 -0.2264  0.2326
33073ION     NA49547  18.564   3.828   9.389 -0.4310 -0.2103 -0.0305
33074ION     NA49548  10.911   6.100  14.615 -0.0789 -0.2634 -0.2359
33075ION     NA49549  11.841   4.888   2.966 -0.1827 -0.1559  0.1355
33076ION     NA49550   0.881  14.366  12.721  0.0573  0.0039 -0.2885
33077ION     NA49551  16.470   3.069   5.355 -0.0833 -0.1747 -0.1561
33078ION     NA49552   4.144  17.838   4.833  0.2593 -0.0096 -0.2471
33079ION     NA49553  15.890  13.781  12.866  0.0820 -0.0483 -0.0376
33080ION     NA49554  17.661  16.327  13.677  0.2984  0.2337  0.0101
33081ION     NA49555  14.785   5.741   9.472  0.0874  0.3881 -0.1706
33082ION     NA49556  11.716  15.878   3.217 -0.1544 -0.1475 -0.1059
33083ION     NA49557  10.643   1.920   5.404 -0.0052 -0.0937 -0.2342
33084ION     NA49558   8.558   7.801   9.298 -0.2995 -0.2754  0.0737
33085ION     NA49559  14.680   3.512   3.598  0.1483  0.0857  0.0008
33086ION     NA49560  15.473   0.536   4.018  0.0132 -0.0121  0.1495
33087ION     NA49561  13.034  16.485  12.893  0.2591 -0.2135 -0.0346
33088ION     NA49562  13.677   6.104   3.915  0.1130  0.2237 -0.0817
33089ION     NA49563   0.157  11.660   4.980 -0.4195  0.2130 -0.0359
33090ION     NA49564   9.080   0.093   5.313 -0.2045  0.2846  0.2029
33091ION     NA49565   5.729   7.302  11.687 -0.3806  0.2017 -0.0811
33092ION     NA49566  18.874   9.325   9.635  0.1613 -0.1379  0.2456
33093ION     NA49567  10.089   2.679   9.303  0.2774 -0.0755  0.2174
33094ION     NA49568   1.561   0.440   5.111  0.0849 -0.1162  0.1124
33095ION     NA49569   7.344   8.197   9.146 -0.0989 -0.6150 -0.2471
33096ION     NA49570   7.360   2.589   9.458  0.0592  0.0846  0.1120
33097ION     NA49571   1.592  15.889   5.174 -0.1362  0.2167 -0.1222
33098ION     NA49572  12.237  17.494   9.563  0.1092 -0.0338 -0.0818
33099ION     NA49573   4.985  15.798   9.174 -0.1939 -0.0624  0.1477
33100ION     NA49574  11.070   0.078   3.477  0.1062 -0.1556 -0.3808
33101ION     NA49575   7.601   7.250   2.315  0.1023  0.3229 -0.0907
33102ION     NA49576  16.030   1.792   0.451 -0.1791 -0.0113 -0.0168
33103ION     NA49577   9.195   5.442   4.586 -0.1933 -0.3050  0.2687
33104ION     NA49578   8.394  16.833   5.283 -0.2340 -0.0328  0.3542
33105ION     NA49579   3.488   6.162  11.450  0.1836  0.1423  0.1969
33106ION     NA49580  18.381  14.301   9.633 -0.1760 -0.0597 -0.0934
33107ION     NA49581  17.611  19.045   9.866  0.0592  0.0865 -0.6805
33108ION     NA49582   8.108  15.504  10.243 -0.1087 -0.0937  0.2026
33109ION     NA49583   2.183  18.738   9.042  0.2767 -0.0631 -0.0478
33110ION     NA49584  17.644   2.386  12.830  0.2198 -0.1335 -0.2959
33111ION     NA49585  11.448   2.580  10.251  0.2859  0.1695 -0.2739
33112ION     NA49586   4.133  18.266  14.573  0.2537  0.2155 -0.1383
33113ION     NA49587  11.122  18.945  10.035  0.1254 -0.4280  0.2743
33114ION     NA49588   7.154  15.720  12.420 -0.2075  0.0407 -0.1204
33115ION     NA49589   9.989  15.019   5.644  0.0317 -0.0556  0.0142
33116ION     NA49590   5.931   7.319   9.163 -0.0707 -0.2134  0.4531
33117ION     NA49591  11.765   8.774   9.641  0.1951  0.1061  0.2705
33118ION     NA49592   8.493  17.955   9.829 -0.0463  0.5365 -0.2428
33119ION     NA49593  11.911  13.141  13.291 -0.4117  0.4062 -0.1035
33120ION     NA49594   4.763  15.392   2.042  0.0718  0.3509  0.1177
33121ION     NA49595   6.683   4.711   9.119  0.0590 -0.0412  0.0284
33122ION     NA49596  15.371  14.043   1.312 -0.0591 -0.1759  0.0499
33123ION     NA49597  18.331  19.404  11.482  0.1862 -0.1144  0.1206
33124ION     NA49598   3.202  13.508  10.064 -0.3664  0.2830 -0.2115
33125ION     NA49599   7.850  15.394   5.368  0.1013  0.0217 -0.0937
33126ION     NA49600  11.355   9.831   1.770 -0.2682 -0.0556 -0.0746
33127ION     NA49601   1.593  10.784   3.639  0.0032  0.1517 -0.5124
33128ION     NA49602  15.975   8.118   0.914  0.0937  0.0115  0.0299
33129ION     NA49603  14.942  16.263  13.002 -0.0970  0.1172 -0.1884
33130ION     NA49604  17.039   0.719   9.321  0.4112  0.1494  0.2788
33131ION     NA49605  18.154   9.921   9.545  0.2378  0.1796  0.0453
33132ION     NA49606   3.052   7.931   9.391 -0.2336 -0.1952 -0.1781
  19.62305  19.62305  14.66704
