INSANE! Membrane UpperLeaflet>loPI:POPI:DPPI:PYPI:ERGO=180.0:5.0:3.0:2.0:10.0 LowerLeaflet>PSPI:POPI:POPS:YOPS:POPE:YOPE:POPC:YOPC:ERGO=6.0:14.0:21.0:9.0:9.0:21.0:12.0:48.0:60.0
49606
    1loPI    C1    1   4.966  10.134  10.775 -0.0752 -0.1830  0.0150
    1loPI    C2    2   5.145  10.242  11.116 -0.2320 -0.1905  0.1009
    1loPI    C3    3   4.919  10.505  10.917  0.1126 -0.0877 -0.1657
    1loPI   PO4    4   5.199  10.098  10.599  0.1680  0.1639 -0.2436
    1loPI   GL1    5   5.171  10.101  10.230  0.0433  0.0145 -0.0768
    1loPI   GL2    6   4.917  10.051  10.115 -0.1547  0.0338 -0.1113
    1loPI   C1A    7   5.402   9.917   9.911 -0.0180  0.1257 -0.1010
    1loPI   C2A    8   5.602   9.848   9.478  0.0638 -0.4995  0.2767
    1loPI   C3A    9   5.528   9.872   9.058  0.1384  0.0767  0.1613
    1loPI   C4A   10   5.461   9.842   8.597  0.1526 -0.0367  0.0744
    1loPI   C5A   11   5.379  10.089   8.188  0.1766 -0.0590  0.1537
    1loPI   C6A   12   5.023  10.095   7.988 -0.0162 -0.0385 -0.2530
    1loPI   C1B   13   5.113  10.275   9.695 -0.0583 -0.0203  0.0551
    1loPI   C2B   14   5.126  10.156   9.342  0.1334 -0.0363  0.0358
    1loPI   C3B   15   5.143  10.138   8.888  0.0972 -0.3358  0.3775
    1loPI   C4B   16   5.062  10.198   8.508 -0.0139 -0.0418 -0.2405
    2loPI    C1   17   9.600  12.491  10.794 -0.2235  0.0297  0.1845
    2loPI    C2   18   9.356  12.174  10.786 -0.0972 -0.0682  0.1814
    2loPI    C3   19   9.418  12.369  11.129 -0.2845  0.0399  0.1553
    2loPI   PO4   20   9.777  12.437  10.577 -0.3627  0.0749 -0.2789
    2loPI   GL1   21   9.607  12.372  10.209  0.2671 -0.1076 -0.2502
    2loPI   GL2   22   9.592  12.085   9.952 -0.0711  0.4065 -0.0527
    2loPI   C1A   23   9.806  12.397   9.705  0.3574  0.1033  0.0060
    2loPI   C2A   24   9.765  12.357   9.375 -0.1145  0.0345  0.0925
    2loPI   C3A   25   9.871  12.275   8.995  0.0633  0.0929  0.3101
    2loPI   C4A   26   9.785  12.167   8.565 -0.0344  0.1187 -0.0055
    2loPI   C5A   27   9.886  11.943   8.220  0.2650 -0.1746  0.0101
    2loPI   C6A   28   9.885  11.601   7.921  0.2163 -0.1123  0.1041
    2loPI   C1B   29   9.730  11.861   9.439 -0.0444  0.2314  0.1215
    2loPI   C2B   30   9.777  11.780   8.942 -0.0685  0.0313 -0.2392
    2loPI   C3B   31   9.773  11.597   8.672  0.0890  0.1557  0.0293
    2loPI   C4B   32   9.555  11.460   8.303  0.1381  0.1307 -0.2878
    3loPI    C1   33  13.829   2.322  11.162  0.0559  0.0510  0.0136
    3loPI    C2   34  13.789   2.102  11.494 -0.2192 -0.0639 -0.0924
    3loPI    C3   35  13.844   2.498  11.521 -0.0995 -0.0919  0.0914
    3loPI   PO4   36  13.968   2.198  10.901  0.1395 -0.0475 -0.0419
    3loPI   GL1   37  13.946   2.104  10.458  0.3955  0.0599 -0.0721
    3loPI   GL2   38  14.137   2.263  10.418  0.0577  0.2248  0.0366
    3loPI   C1A   39  13.796   2.131  10.022  0.2042 -0.1514  0.4112
    3loPI   C2A   40  13.779   2.066   9.528 -0.1531 -0.4470  0.1357
    3loPI   C3A   41  13.774   2.172   9.057 -0.1372 -0.1248 -0.0100
    3loPI   C4A   42  13.618   2.069   8.617  0.0447 -0.0173 -0.2088
    3loPI   C5A   43  13.684   2.300   8.253  0.0611 -0.2911  0.0505
    3loPI   C6A   44  13.751   2.704   8.267  0.2182 -0.0443 -0.5147
    3loPI   C1B   45  14.276   2.308  10.038  0.0002 -0.1670  0.1814
    3loPI   C2B   46  14.274   2.425   9.594 -0.4554  0.1175 -0.1452
    3loPI   C3B   47  14.255   2.474   9.106  0.1774  0.0390  0.2287
    3loPI   C4B   48  14.106   2.263   8.735 -0.0025 -0.3745  0.1540
    4loPI    C1   49   5.424  10.659  11.072  0.0229 -0.3525  0.0074
    4loPI    C2   50   5.624  10.394  11.295  0.1363  0.0261  0.3671
    4loPI    C3   51   5.608  10.778  11.406 -0.2985  0.1143  0.0275
    4loPI   PO4   52   5.461  10.489  10.806  0.0205 -0.2947  0.1454
    4loPI   GL1   53   5.524  10.410  10.327  0.1262  0.0221  0.1839
    4loPI   GL2   54   5.803  10.572  10.386  0.0757 -0.1527  0.0497
    4loPI   C1A   55   5.530  10.403   9.886  0.1466  0.0446 -0.1354
    4loPI   C2A   56   5.608  10.352   9.456  0.0283  0.3571 -0.2708
    4loPI   C3A   57   5.573  10.446   9.015  0.4204 -0.3363 -0.5410
    4loPI   C4A   58   5.570  10.395   8.482 -0.2698 -0.4147 -0.1963
    4loPI   C5A   59   5.358  10.534   8.013 -0.1396 -0.1100 -0.0886
    4loPI   C6A   60   5.097  10.608   7.773  0.2181  0.0051 -0.0516
    4loPI   C1B   61   5.954  10.709  10.051  0.5230 -0.2635 -0.0575
    4loPI   C2B   62   6.028  10.635   9.642 -0.1618  0.2707  0.0746
    4loPI   C3B   63   6.002  10.644   9.197 -0.0984  0.3377 -0.0901
    4loPI   C4B   64   6.069  10.644   8.728  0.3606 -0.1946 -0.1624
    5loPI    C1   65   0.314  16.589  11.202  0.0825  0.0948 -0.1097
    5loPI    C2   66   0.037  16.641  11.485 -0.0771  0.0771 -0.2606
    5loPI    C3   67   0.408  16.780  11.540 -0.0514 -0.1027  0.0409
    5loPI   PO4   68   0.155  16.619  10.951  0.0703  0.0165  0.1761
    5loPI   GL1   69   0.303  16.630  10.494  0.0983  0.1630  0.1476
    5loPI   GL2   70   0.297  16.380  10.362  0.2683  0.1867  0.1199
    5loPI   C1A   71   0.031  16.812  10.098  0.2419 -0.0167  0.2808
    5loPI   C2A   72  -0.052  16.802   9.720 -0.1109 -0.1835 -0.3139
    5loPI   C3A   73  -0.040  16.759   9.293  0.0201  0.1172 -0.1768
    5loPI   C4A   74  -0.134  16.775   8.812 -0.1498  0.1665 -0.1857
    5loPI   C5A   75  -0.219  16.716   8.405 -0.1753 -0.1734 -0.1458
    5loPI   C6A   76  -0.529  16.990   8.139  0.4329  0.1010 -0.2047
    5loPI   C1B   77   0.358  16.433   9.921  0.2380  0.0975  0.0754
    5loPI   C2B   78   0.347  16.466   9.500 -0.3210 -0.1218  0.1219
    5loPI   C3B   79   0.247  16.435   9.028  0.2182 -0.0837 -0.1360
    5loPI   C4B   80   0.185  16.362   8.624  0.1118 -0.0295 -0.1541
    6loPI    C1   81   2.451   9.656  10.283 -0.3021  0.0522 -0.0756
    6loPI    C2   82   2.488   9.861  10.624 -0.2152 -0.0362 -0.0315
    6loPI    C3   83   2.534  10.047  10.273  0.3508 -0.0733  0.0142
    6loPI   PO4   84   2.440   9.448  10.391 -0.2092 -0.5243 -0.1343
    6loPI   GL1   85   2.559   9.122  10.206 -0.1179 -0.3191  0.1142
    6loPI   GL2   86   2.222   9.221  10.033 -0.0541 -0.2039  0.1732
    6loPI   C1A   87   2.686   9.000   9.836  0.0352 -0.1458 -0.0057
    6loPI   C2A   88   2.734   8.990   9.469 -0.0032 -0.1598 -0.1920
    6loPI   C3A   89   2.872   8.974   9.058 -0.0273  0.0519 -0.1387
    6loPI   C4A   90   2.796   8.968   8.590 -0.0118 -0.2251  0.2367
    6loPI   C5A   91   2.757   8.997   8.219  0.1152  0.2458  0.1082
    6loPI   C6A   92   2.868   8.681   7.922 -0.1757  0.1889 -0.0064
    6loPI   C1B   93   2.279   9.204   9.681 -0.1124  0.0050  0.1218
    6loPI   C2B   94   2.385   9.246   9.221 -0.2158 -0.0447 -0.1152
    6loPI   C3B   95   2.404   9.217   8.805 -0.0187  0.0701  0.2566
    6loPI   C4B   96   2.237   9.184   8.372 -0.1018  0.0861 -0.0091
    7loPI    C1   97   1.476  15.986  11.039  0.0127  0.0082 -0.0720
    7loPI    C2   98   1.830  15.896  11.202 -0.0822  0.1645  0.2292
    7loPI    C3   99   1.754  16.270  11.085 -0.0349  0.0647 -0.1334
    7loPI   PO4  100   1.440  15.766  10.866  0.0728  0.2408  0.1790
    7loPI   GL1  101   1.563  15.569  10.421  0.0244 -0.2524 -0.0995
    7loPI   GL2  102   1.314  15.748  10.392 -0.0409 -0.0426 -0.1249
    7loPI   C1A  103   1.655  15.905  10.066  0.0533 -0.3133 -0.0239
    7loPI   C2A  104   1.582  15.943   9.723  0.0113  0.0929  0.0084
    7loPI   C3A  105   1.663  16.022   9.259  0.2666  0.3120 -0.0195
    7loPI   C4A  106   1.751  15.948   8.864 -0.3273 -0.1505  0.0036
    7loPI   C5A  107   1.619  16.129   8.452  0.0158 -0.0304 -0.2911
    7loPI   C6A  108   1.836  16.239   8.066 -0.0864 -0.1686 -0.2120
    7loPI   C1B  109   1.227  15.710   9.899 -0.0111 -0.0499  0.1433
    7loPI   C2B  110   1.131  15.785   9.491  0.1852 -0.3880  0.2652
    7loPI   C3B  111   1.107  15.777   9.021  0.1287  0.3540 -0.0726
    7loPI   C4B  112   1.165  15.907   8.566  0.0339  0.1963  0.1791
    8loPI    C1  113  14.825   2.635  11.053 -0.0632  0.1929  0.1366
    8loPI    C2  114  14.902   2.936  11.304  0.1691  0.0005  0.2995
    8loPI    C3  115  14.704   2.614  11.434 -0.0075  0.0462  0.1465
    8loPI   PO4  116  14.780   2.706  10.805  0.1381 -0.0320 -0.1993
    8loPI   GL1  117  14.737   2.688  10.331  0.0591 -0.0391 -0.1733
    8loPI   GL2  118  14.645   2.420  10.233  0.5259  0.1930  0.2904
    8loPI   C1A  119  14.758   3.062  10.115 -0.0754 -0.0532 -0.0561
    8loPI   C2A  120  14.823   3.145   9.692 -0.1348  0.1542  0.0291
    8loPI   C3A  121  14.718   3.093   9.215  0.5285 -0.3826  0.0458
    8loPI   C4A  122  14.678   3.217   8.775 -0.0054  0.0849  0.2935
    8loPI   C5A  123  14.658   3.214   8.359 -0.1437  0.2072 -0.0803
    8loPI   C6A  124  14.680   3.319   7.979 -0.1298  0.3225 -0.0455
    8loPI   C1B  125  14.746   2.605   9.780 -0.2093 -0.0508 -0.1192
    8loPI   C2B  126  14.736   2.610   9.358  0.0159 -0.3083 -0.0638
    8loPI   C3B  127  14.650   2.682   8.939 -0.0638 -0.0882 -0.0191
    8loPI   C4B  128  14.477   2.693   8.560  0.3790  0.1078 -0.4388
    9loPI    C1  129   8.536   2.121  10.537 -0.0970  0.0897  0.0224
    9loPI    C2  130   8.219   1.928  10.687 -0.1917  0.0435 -0.2312
    9loPI    C3  131   8.578   1.751  10.681 -0.1582  0.0967  0.0586
    9loPI   PO4  132   8.399   2.172  10.284  0.0435 -0.3246 -0.3943
    9loPI   GL1  133   8.582   2.505  10.125  0.0093 -0.3762  0.0672
    9loPI   GL2  134   8.844   2.374  10.259  0.0007 -0.3902  0.0866
    9loPI   C1A  135   8.446   2.388   9.653  0.0540 -0.1084  0.2300
    9loPI   C2A  136   8.512   2.346   9.184 -0.0049  0.1472  0.1900
    9loPI   C3A  137   8.435   2.303   8.804  0.2142  0.0312 -0.2801
    9loPI   C4A  138   8.441   2.330   8.411  0.1827  0.1410 -0.2422
    9loPI   C5A  139   8.364   2.447   8.051 -0.1673  0.1129 -0.1019
    9loPI   C6A  140   8.411   2.700   7.621  0.0758  0.0602 -0.2950
    9loPI   C1B  141   8.991   2.404   9.889  0.0131 -0.2728 -0.2515
    9loPI   C2B  142   8.883   2.528   9.502 -0.1100  0.0422 -0.0443
    9loPI   C3B  143   8.916   2.565   9.126  0.2161 -0.0303  0.4666
    9loPI   C4B  144   8.874   2.504   8.664  0.1314  0.2387  0.1223
   10loPI    C1  145   7.230  17.300  10.784 -0.0921 -0.1914 -0.1628
   10loPI    C2  146   7.336  16.922  10.705 -0.0681 -0.2069 -0.0584
   10loPI    C3  147   7.269  17.036  11.083 -0.0249 -0.0938 -0.0845
   10loPI   PO4  148   7.381  17.478  10.662  0.0423  0.4023 -0.1147
   10loPI   GL1  149   7.406  17.243  10.332 -0.1267 -0.0738 -0.2489
   10loPI   GL2  150   7.557  16.939  10.276 -0.0612  0.1920 -0.2856
   10loPI   C1A  151   7.332  17.077   9.908  0.0360 -0.1647  0.0385
   10loPI   C2A  152   7.188  17.106   9.437 -0.0152  0.1649  0.1193
   10loPI   C3A  153   7.286  17.077   8.957  0.0618 -0.0760 -0.1597
   10loPI   C4A  154   7.371  17.169   8.572  0.3986 -0.4019 -0.1474
   10loPI   C5A  155   7.408  17.191   8.135  0.1281 -0.0535 -0.0207
   10loPI   C6A  156   7.277  17.549   7.862 -0.0823 -0.2012  0.3508
   10loPI   C1B  157   7.738  16.849   9.889 -0.6630 -0.0076  0.3694
   10loPI   C2B  158   7.669  16.791   9.378 -0.0052  0.0380 -0.2173
   10loPI   C3B  159   7.740  16.771   8.991  0.2403  0.1843 -0.0022
   10loPI   C4B  160   7.722  16.869   8.576  0.0106  0.3421  0.0810
   11loPI    C1  161   6.080   3.484  10.813  0.0391 -0.1063 -0.0189
   11loPI    C2  162   6.260   3.648  11.131  0.2282  0.1001 -0.2293
   11loPI    C3  163   6.361   3.280  11.011  0.0956 -0.0124 -0.0017
   11loPI   PO4  164   6.020   3.598  10.646  0.1526 -0.0542  0.0641
   11loPI   GL1  165   6.198   3.739  10.268 -0.3852  0.0723 -0.2119
   11loPI   GL2  166   6.100   4.022  10.370  0.0557  0.1131  0.0877
   11loPI   C1A  167   6.220   3.799   9.801  0.0518  0.1661  0.2409
   11loPI   C2A  168   6.297   3.580   9.350  0.0023 -0.1853  0.0036
   11loPI   C3A  169   6.337   3.686   8.931 -0.1247 -0.2003  0.1173
   11loPI   C4A  170   6.186   3.736   8.507  0.0402 -0.0440 -0.0153
   11loPI   C5A  171   6.191   3.748   8.009 -0.0436 -0.0018  0.0004
   11loPI   C6A  172   6.526   3.581   7.827  0.1194  0.1389 -0.4344
   11loPI   C1B  173   6.174   4.233   9.947  0.0252 -0.4478 -0.3112
   11loPI   C2B  174   6.227   4.258   9.496  0.3834 -0.1692  0.2476
   11loPI   C3B  175   6.303   4.211   9.014 -0.0212 -0.0859  0.4655
   11loPI   C4B  176   6.329   4.242   8.588 -0.0410  0.1303  0.2908
   12loPI    C1  177   1.779   2.330  10.865 -0.1449 -0.1097 -0.0422
   12loPI    C2  178   1.500   2.077  11.001 -0.2448 -0.0133 -0.0660
   12loPI    C3  179   1.537   2.441  11.163  0.0767 -0.1372  0.1509
   12loPI   PO4  180   1.761   2.334  10.638  0.1090  0.2078 -0.1653
   12loPI   GL1  181   1.630   2.424  10.306 -0.1480 -0.1861 -0.0177
   12loPI   GL2  182   1.507   2.696  10.405  0.1441  0.1654  0.2012
   12loPI   C1A  183   1.688   2.316   9.897  0.2459 -0.1140 -0.1960
   12loPI   C2A  184   1.678   2.274   9.482  0.0010 -0.2664 -0.0875
   12loPI   C3A  185   1.668   2.191   9.087  0.0491 -0.0958  0.2097
   12loPI   C4A  186   1.637   1.867   8.826  0.0646 -0.4287 -0.1385
   12loPI   C5A  187   1.411   1.689   8.410 -0.0058 -0.2103 -0.1811
   12loPI   C6A  188   1.655   1.610   8.010  0.2380 -0.0080 -0.0706
   12loPI   C1B  189   1.699   2.801   9.977  0.1622 -0.1391  0.2173
   12loPI   C2B  190   1.754   2.797   9.567  0.0651 -0.0198 -0.1809
   12loPI   C3B  191   1.669   2.733   9.264 -0.1118 -0.0784 -0.0085
   12loPI   C4B  192   1.625   2.693   8.805 -0.0674 -0.0556  0.0650
   13loPI    C1  193   5.409  17.951  10.907 -0.0282 -0.1982  0.1937
   13loPI    C2  194   5.689  17.768  11.126  0.0596 -0.0871  0.1749
   13loPI    C3  195   5.313  17.631  11.128  0.0659 -0.1052  0.3721
   13loPI   PO4  196   5.405  17.979  10.667  0.2941  0.5807  0.6207
   13loPI   GL1  197   5.678  17.817  10.307 -0.1729 -0.2239  0.0159
   13loPI   GL2  198   5.541  17.545  10.417  0.3461 -0.2665  0.3196
   13loPI   C1A  199   5.551  17.998   9.943 -0.1562  0.0532  0.1515
   13loPI   C2A  200   5.441  17.837   9.546 -0.0797 -0.0930 -0.0897
   13loPI   C3A  201   5.582  17.777   9.086 -0.1518 -0.0061 -0.1121
   13loPI   C4A  202   5.465  17.889   8.724  0.0115 -0.2373 -0.1377
   13loPI   C5A  203   5.558  18.088   8.470  0.1013 -0.1175 -0.0637
   13loPI   C6A  204   5.511  18.384   8.263 -0.0909 -0.1980 -0.1037
   13loPI   C1B  205   5.350  17.587  10.031  0.3732  0.0087 -0.3253
   13loPI   C2B  206   5.380  17.364   9.668  0.0679 -0.3854 -0.1923
   13loPI   C3B  207   5.492  17.336   9.235 -0.2962  0.1048 -0.1620
   13loPI   C4B  208   5.531  17.388   8.828 -0.0212  0.1736  0.1215
   14loPI    C1  209   9.161  14.166  10.620 -0.1939  0.3788 -0.2128
   14loPI    C2  210   8.993  13.932  10.897  0.0646  0.1341 -0.2576
   14loPI    C3  211   8.948  14.329  10.916  0.0610  0.1186  0.1220
   14loPI   PO4  212   9.116  13.988  10.416 -0.0610  0.2556  0.2540
   14loPI   GL1  213   8.878  13.957  10.113  0.1436  0.0069  0.0814
   14loPI   GL2  214   9.048  14.078   9.915 -0.2427 -0.0293  0.0367
   14loPI   C1A  215   8.602  13.829   9.712 -0.1152  0.0454 -0.2388
   14loPI   C2A  216   8.582  13.823   9.313 -0.0260  0.0010 -0.0102
   14loPI   C3A  217   8.513  13.881   8.853 -0.0181  0.2547  0.0266
   14loPI   C4A  218   8.598  13.926   8.402 -0.0207  0.0769  0.2790
   14loPI   C5A  219   8.919  13.801   8.128  0.0710  0.1200 -0.2068
   14loPI   C6A  220   9.346  13.953   8.052  0.1629 -0.0660 -0.4476
   14loPI   C1B  221   9.002  13.985   9.453  0.3931 -0.0949 -0.1971
   14loPI   C2B  222   9.127  14.051   8.932 -0.0155 -0.0211 -0.0778
   14loPI   C3B  223   9.055  14.078   8.529  0.1894  0.0615  0.0372
   14loPI   C4B  224   8.997  14.307   8.236  0.0573 -0.3111 -0.0975
   15loPI    C1  225   4.129   5.517  11.021  0.0553 -0.1239 -0.3544
   15loPI    C2  226   4.331   5.174  11.065  0.0192 -0.0676  0.3831
   15loPI    C3  227   3.931   5.172  11.068  0.0189 -0.0202  0.3837
   15loPI   PO4  228   4.243   5.643  10.740  0.2227  0.0288  0.1555
   15loPI   GL1  229   4.324   5.469  10.327 -0.0836  0.3857  0.1917
   15loPI   GL2  230   4.492   5.772  10.178 -0.1298  0.2473 -0.0401
   15loPI   C1A  231   4.338   5.241   9.931  0.0281 -0.0790  0.0511
   15loPI   C2A  232   4.419   5.271   9.550  0.0775  0.1087  0.1631
   15loPI   C3A  233   4.418   5.274   9.123  0.1145  0.1792  0.0347
   15loPI   C4A  234   4.479   5.196   8.696  0.0027 -0.0045 -0.3799
   15loPI   C5A  235   4.194   5.094   8.332 -0.1083 -0.0107 -0.0852
   15loPI   C6A  236   4.329   4.984   7.920 -0.3284 -0.1678  0.0340
   15loPI   C1B  237   4.435   5.738   9.769  0.0618 -0.1285 -0.1161
   15loPI   C2B  238   4.422   5.803   9.267 -0.0339  0.1108 -0.0855
   15loPI   C3B  239   4.570   5.725   8.796 -0.1774  0.0919  0.0205
   15loPI   C4B  240   4.547   5.526   8.348 -0.3009 -0.0027  0.0750
   16loPI    C1  241   1.381  17.545  11.064 -0.0824  0.1122 -0.1610
   16loPI    C2  242   1.514  17.524  11.440 -0.0528 -0.0791 -0.1812
   16loPI    C3  243   1.123  17.491  11.364 -0.0564 -0.0644 -0.1692
   16loPI   PO4  244   1.493  17.408  10.926 -0.2499  0.0293  0.1382
   16loPI   GL1  245   1.600  17.229  10.574 -0.0210  0.0196 -0.0966
   16loPI   GL2  246   1.826  17.440  10.555  0.0256 -0.2191  0.3414
   16loPI   C1A  247   1.476  17.242  10.129 -0.2198  0.1684  0.0164
   16loPI   C2A  248   1.371  17.268   9.730 -0.0716 -0.0648  0.0479
   16loPI   C3A  249   1.337  17.229   9.297 -0.1674  0.1479  0.0234
   16loPI   C4A  250   1.248  17.357   8.871  0.1059 -0.1813 -0.3761
   16loPI   C5A  251   1.322  17.305   8.483  0.1048  0.1646  0.0865
   16loPI   C6A  252   1.146  16.989   8.231 -0.1014  0.1213 -0.0422
   16loPI   C1B  253   1.910  17.573  10.110 -0.0519  0.1102 -0.2146
   16loPI   C2B  254   1.862  17.478   9.713  0.2596 -0.0411 -0.2775
   16loPI   C3B  255   1.812  17.455   9.294  0.0700 -0.0137  0.1618
   16loPI   C4B  256   1.810  17.552   8.851  0.3310 -0.1446 -0.1632
   17loPI    C1  257  14.893   6.206  10.965 -0.1044  0.1848 -0.1726
   17loPI    C2  258  14.728   6.162  11.326  0.0484  0.1510 -0.1061
   17loPI    C3  259  15.119   6.098  11.277  0.0093  0.0543 -0.2991
   17loPI   PO4  260  14.684   6.132  10.837 -0.2319  0.2669  0.0007
   17loPI   GL1  261  14.778   5.900  10.429  0.1260 -0.2297 -0.0027
   17loPI   GL2  262  14.996   5.618  10.464 -0.2653  0.0137 -0.2027
   17loPI   C1A  263  14.805   5.736  10.028  0.1129  0.2023 -0.1167
   17loPI   C2A  264  14.796   5.736   9.579 -0.2524 -0.0675 -0.1908
   17loPI   C3A  265  14.750   5.744   9.049 -0.3717  0.3830  0.0418
   17loPI   C4A  266  14.846   5.727   8.637 -0.3142 -0.2850  0.0499
   17loPI   C5A  267  14.913   5.530   8.260  0.0637 -0.1016 -0.0582
   17loPI   C6A  268  14.880   5.053   8.248  0.4906  0.0232 -0.0669
   17loPI   C1B  269  15.263   5.511  10.147  0.0123  0.0479 -0.0372
   17loPI   C2B  270  15.277   5.419   9.729  0.2203 -0.1439  0.2191
   17loPI   C3B  271  15.182   5.405   9.318 -0.0469 -0.3945 -0.0685
   17loPI   C4B  272  15.154   5.448   8.852 -0.2062  0.1226  0.2536
   18loPI    C1  273   6.428  17.807  10.809  0.2799 -0.1292 -0.0754
   18loPI    C2  274   6.169  17.924  11.090  0.2784 -0.1145 -0.0829
   18loPI    C3  275   6.479  17.691  11.188  0.2437 -0.1596 -0.0797
   18loPI   PO4  276   6.337  17.821  10.587 -0.4696  0.0336  0.4165
   18loPI   GL1  277   6.468  17.586  10.086  0.0885 -0.3201 -0.0458
   18loPI   GL2  278   6.478  17.313  10.046  0.1474 -0.0322  0.1525
   18loPI   C1A  279   6.451  17.739   9.710  0.0158 -0.1203  0.1143
   18loPI   C2A  280   6.529  17.720   9.319 -0.3919 -0.2158  0.0254
   18loPI   C3A  281   6.464  17.732   8.849 -0.1850 -0.4334  0.0971
   18loPI   C4A  282   6.460  17.722   8.424  0.0878  0.0405  0.1008
   18loPI   C5A  283   6.452  17.808   8.048 -0.5087  0.2641 -0.0395
   18loPI   C6A  284   6.307  17.923   7.667  0.0933 -0.2345  0.1435
   18loPI   C1B  285   6.374  17.252   9.605  0.0640  0.2027  0.0280
   18loPI   C2B  286   6.361  17.292   9.172 -0.0807  0.1913 -0.2368
   18loPI   C3B  287   6.468  17.225   8.706  0.0849  0.0768 -0.1863
   18loPI   C4B  288   6.314  17.232   8.309 -0.1122 -0.0159  0.3472
   19loPI    C1  289   9.072  13.125  10.854  0.0922 -0.1649 -0.0080
   19loPI    C2  290   9.447  12.990  10.892  0.0577 -0.2914 -0.1112
   19loPI    C3  291   9.246  13.113  11.215  0.3488  0.2184 -0.1130
   19loPI   PO4  292   9.159  13.277  10.629 -0.0785  0.2706  0.3271
   19loPI   GL1  293   9.207  13.447  10.211  0.3924  0.0296 -0.0884
   19loPI   GL2  294   9.421  13.335  10.128 -0.2547  0.3224 -0.1350
   19loPI   C1A  295   8.945  13.460   9.908 -0.1605  0.2346 -0.2930
   19loPI   C2A  296   8.932  13.488   9.506  0.2052 -0.3670 -0.3652
   19loPI   C3A  297   8.950  13.607   9.056 -0.2117  0.1287  0.3145
   19loPI   C4A  298   8.935  13.536   8.604 -0.3134 -0.0552  0.1343
   19loPI   C5A  299   9.261  13.438   8.297  0.0387  0.0476 -0.1474
   19loPI   C6A  300   9.619  13.580   8.074 -0.1582 -0.0886 -0.2267
   19loPI   C1B  301   9.373  13.233   9.695 -0.1883  0.2536 -0.0740
   19loPI   C2B  302   9.391  13.199   9.211 -0.0790 -0.1020  0.1533
   19loPI   C3B  303   9.436  13.571   8.856  0.3358 -0.2900 -0.2112
   19loPI   C4B  304   9.485  13.909   8.578 -0.0468  0.2806  0.0744
   20loPI    C1  305   8.167  10.814  10.784  0.2456 -0.1733  0.1693
   20loPI    C2  306   8.175  10.937  11.164  0.0788 -0.0140  0.1227
   20loPI    C3  307   8.517  10.860  10.972  0.1690  0.0202  0.2677
   20loPI   PO4  308   7.998  11.091  10.669 -0.0163 -0.0122 -0.0794
   20loPI   GL1  309   8.015  11.326  10.288  0.2145 -0.1071  0.1248
   20loPI   GL2  310   7.686  11.526  10.236  0.1562 -0.1962 -0.0738
   20loPI   C1A  311   8.084  11.321   9.961 -0.1197  0.1718 -0.0536
   20loPI   C2A  312   8.101  11.334   9.597 -0.1342  0.1435 -0.0721
   20loPI   C3A  313   8.163  11.191   9.154 -0.0624 -0.2337  0.0728
   20loPI   C4A  314   8.244  11.247   8.789  0.1102 -0.1388 -0.0291
   20loPI   C5A  315   8.380  11.490   8.415  0.1271  0.1762  0.1082
   20loPI   C6A  316   8.725  11.659   8.352 -0.0154  0.1345  0.0823
   20loPI   C1B  317   7.667  11.516   9.823  0.1183 -0.0664 -0.1503
   20loPI   C2B  318   7.822  11.691   9.470  0.2471 -0.2354 -0.1055
   20loPI   C3B  319   7.783  11.532   9.135  0.2775  0.0222  0.0647
   20loPI   C4B  320   7.853  11.583   8.695 -0.0485  0.1407 -0.0040
   21loPI    C1  321   6.793   7.201  11.232  0.0234  0.0145  0.1935
   21loPI    C2  322   6.463   7.368  11.383 -0.0523  0.0578 -0.0156
   21loPI    C3  323   6.485   6.971  11.342 -0.1041  0.0596 -0.0613
   21loPI   PO4  324   6.747   7.304  11.008 -0.5006 -0.0759  0.2711
   21loPI   GL1  325   7.026   7.448  10.678  0.0793  0.2922 -0.3184
   21loPI   GL2  326   6.794   7.535  10.523  0.2030  0.0504 -0.3613
   21loPI   C1A  327   7.171   7.283  10.353  0.2637  0.2384  0.0757
   21loPI   C2A  328   7.211   7.189   9.858 -0.0249  0.0001 -0.4752
   21loPI   C3A  329   7.173   7.225   9.415 -0.1288 -0.0420  0.2516
   21loPI   C4A  330   7.380   7.225   8.994  0.1317  0.1195  0.0276
   21loPI   C5A  331   7.784   6.987   8.729  0.1019  0.0129  0.1035
   21loPI   C6A  332   8.092   6.636   8.848  0.3275 -0.0990 -0.3512
   21loPI   C1B  333   6.709   7.433  10.166  0.2663  0.1229 -0.2232
   21loPI   C2B  334   6.729   7.549   9.769 -0.0184  0.0941 -0.0238
   21loPI   C3B  335   6.762   7.521   9.296 -0.3014  0.1373 -0.1283
   21loPI   C4B  336   6.962   7.465   8.915 -0.1092  0.0587  0.2374
   22loPI    C1  337  17.224  10.409  10.713  0.1482  0.0800 -0.0003
   22loPI    C2  338  17.381  10.743  10.867  0.0448  0.0947  0.0744
   22loPI    C3  339  17.132  10.520  11.086 -0.0905  0.1065 -0.0655
   22loPI   PO4  340  17.124  10.471  10.507 -0.1096  0.0690  0.0174
   22loPI   GL1  341  16.932  10.335  10.128 -0.2228 -0.0803 -0.1183
   22loPI   GL2  342  16.569  10.356  10.118  0.0604 -0.0828 -0.1894
   22loPI   C1A  343  16.790  10.472   9.708 -0.2824  0.1135 -0.3947
   22loPI   C2A  344  16.648  10.331   9.373 -0.0761  0.2185 -0.1232
   22loPI   C3A  345  16.682  10.243   8.906 -0.1091 -0.0467  0.1728
   22loPI   C4A  346  16.804  10.269   8.558 -0.2273 -0.1375 -0.1638
   22loPI   C5A  347  16.716  10.492   8.198 -0.0330 -0.0447  0.2370
   22loPI   C6A  348  16.565  10.748   7.884  0.0835  0.1822  0.2462
   22loPI   C1B  349  16.368  10.172   9.710 -0.1027  0.1884 -0.2778
   22loPI   C2B  350  16.275  10.008   9.304  0.1393 -0.3482 -0.1444
   22loPI   C3B  351  16.223   9.956   8.931  0.0580  0.1699  0.1524
   22loPI   C4B  352  16.331  10.068   8.523 -0.0257 -0.0993  0.0423
   23loPI    C1  353  14.430   2.954  11.231  0.2186 -0.0924  0.1475
   23loPI    C2  354  14.468   3.129  11.589 -0.1239 -0.0600  0.1718
   23loPI    C3  355  14.221   2.818  11.544 -0.0084 -0.1263 -0.0159
   23loPI   PO4  356  14.449   3.088  11.064  0.1901  0.1464  0.1489
   23loPI   GL1  357  14.438   3.439  10.753 -0.1972 -0.0162 -0.3009
   23loPI   GL2  358  14.473   3.141  10.576 -0.0733  0.1305  0.0552
   23loPI   C1A  359  14.431   3.466  10.241 -0.1597  0.2838 -0.0057
   23loPI   C2A  360  14.319   3.402   9.886 -0.0293 -0.1170  0.1823
   23loPI   C3A  361  14.320   3.429   9.487  0.0110  0.2220 -0.0491
   23loPI   C4A  362  14.285   3.506   9.024  0.1114 -0.2043 -0.2047
   23loPI   C5A  363  14.277   3.477   8.583  0.0616  0.1808  0.0711
   23loPI   C6A  364  14.147   3.071   8.456 -0.0345  0.2362  0.0259
   23loPI   C1B  365  14.309   2.882  10.233 -0.2514 -0.2368 -0.1117
   23loPI   C2B  366  14.358   2.842   9.869 -0.0865  0.5239  0.5268
   23loPI   C3B  367  14.230   2.905   9.409 -0.0508 -0.1119 -0.0036
   23loPI   C4B  368  14.141   2.960   8.962 -0.1394 -0.1755  0.1386
   24loPI    C1  369   3.949  13.724  10.625 -0.0101 -0.0319  0.0414
   24loPI    C2  370   3.749  13.672  10.967 -0.0259  0.0634  0.0470
   24loPI    C3  371   4.131  13.556  10.939 -0.0599 -0.0531  0.0589
   24loPI   PO4  372   3.736  13.718  10.457 -0.3268  0.3655  0.1712
   24loPI   GL1  373   3.745  13.696  10.043  0.1284  0.1697 -0.0122
   24loPI   GL2  374   3.968  13.747   9.873  0.1653 -0.0422 -0.0309
   24loPI   C1A  375   3.491  13.522   9.829 -0.2254 -0.1646 -0.2104
   24loPI   C2A  376   3.464  13.657   9.478 -0.0969 -0.2286 -0.1016
   24loPI   C3A  377   3.457  13.707   9.009 -0.0361  0.1016 -0.1496
   24loPI   C4A  378   3.564  13.781   8.623 -0.0198  0.0979 -0.0158
   24loPI   C5A  379   3.582  13.838   8.137  0.0659  0.2797  0.0281
   24loPI   C6A  380   3.311  14.008   7.877  0.0936 -0.1548  0.2778
   24loPI   C1B  381   3.973  13.921   9.540  0.1033 -0.0276  0.1365
   24loPI   C2B  382   3.941  13.950   9.077 -0.0235 -0.0357  0.0269
   24loPI   C3B  383   4.047  14.064   8.705  0.0442  0.0965  0.2624
   24loPI   C4B  384   3.892  14.141   8.378  0.1173 -0.1686 -0.4537
   25loPI    C1  385  12.214   8.682  11.295  0.0406  0.0741  0.0123
   25loPI    C2  386  12.190   8.282  11.287 -0.0958  0.0812  0.0471
   25loPI    C3  387  11.906   8.496  11.469  0.0447  0.1880  0.1429
   25loPI   PO4  388  12.322   8.728  11.025 -0.2991  0.1105 -0.0516
   25loPI   GL1  389  12.120   8.767  10.596  0.0175 -0.3071  0.0235
   25loPI   GL2  390  12.107   8.938  10.389 -0.0151 -0.0340  0.4193
   25loPI   C1A  391  12.200   8.500  10.191 -0.0305 -0.2174 -0.1536
   25loPI   C2A  392  12.105   8.423   9.822  0.1094  0.1474  0.0164
   25loPI   C3A  393  12.134   8.319   9.391 -0.0186  0.1135  0.3379
   25loPI   C4A  394  12.204   8.371   9.014  0.2061  0.2496  0.3315
   25loPI   C5A  395  12.121   8.307   8.545  0.2739  0.0559  0.3193
   25loPI   C6A  396  11.756   8.064   8.324 -0.3051 -0.1877 -0.0610
   25loPI   C1B  397  12.147   8.898   9.920  0.4765  0.0435 -0.2960
   25loPI   C2B  398  12.162   8.861   9.492  0.1661  0.0295 -0.0539
   25loPI   C3B  399  12.255   8.881   9.074  0.0605 -0.0816  0.1876
   25loPI   C4B  400  12.131   8.820   8.576 -0.0792 -0.0260  0.2266
   26loPI    C1  401  14.814  12.775  11.039  0.0636 -0.0688 -0.1355
   26loPI    C2  402  15.075  12.807  11.340 -0.3081  0.0926  0.1785
   26loPI    C3  403  15.028  13.109  11.083 -0.2911  0.1219  0.2097
   26loPI   PO4  404  14.827  12.591  10.853  0.0606  0.1151  0.1059
   26loPI   GL1  405  14.677  12.480  10.471 -0.1521  0.0464 -0.3444
   26loPI   GL2  406  14.408  12.631  10.275 -0.0033  0.0546 -0.2188
   26loPI   C1A  407  14.878  12.721  10.115 -0.2839 -0.1004 -0.1944
   26loPI   C2A  408  14.782  12.770   9.701 -0.0502 -0.0853  0.2009
   26loPI   C3A  409  15.035  12.644   9.431 -0.1950 -0.1071  0.1473
   26loPI   C4A  410  15.214  12.536   9.091 -0.0995 -0.0508 -0.2992
   26loPI   C5A  411  15.211  12.327   8.789 -0.1468  0.3522 -0.1681
   26loPI   C6A  412  15.052  11.948   8.580 -0.1872 -0.1553 -0.2315
   26loPI   C1B  413  14.337  12.583   9.836 -0.0498  0.3024  0.0425
   26loPI   C2B  414  14.453  12.618   9.372  0.1370  0.0794 -0.1242
   26loPI   C3B  415  14.341  12.610   8.917  0.0212  0.0159  0.0487
   26loPI   C4B  416  14.304  12.560   8.448  0.2753 -0.0111  0.0507
   27loPI    C1  417   5.629  14.361  10.578 -0.2229  0.0846  0.0843
   27loPI    C2  418   5.911  14.331  10.860 -0.0055 -0.3742 -0.1687
   27loPI    C3  419   5.524  14.313  10.960  0.0519  0.0351  0.1559
   27loPI   PO4  420   5.639  14.161  10.263 -0.0906  0.2996  0.2499
   27loPI   GL1  421   5.490  14.084   9.865 -0.1349 -0.2055  0.0213
   27loPI   GL2  422   5.766  14.215   9.750 -0.1689 -0.1889 -0.3904
   27loPI   C1A  423   5.462  14.019   9.459 -0.0293 -0.1589  0.1550
   27loPI   C2A  424   5.484  14.041   9.025  0.2964  0.1257 -0.1489
   27loPI   C3A  425   5.455  14.023   8.633 -0.1398  0.1148  0.1323
   27loPI   C4A  426   5.421  13.945   8.206 -0.1719  0.1487  0.0574
   27loPI   C5A  427   5.363  14.177   7.778  0.1478  0.0033 -0.0831
   27loPI   C6A  428   5.196  14.506   7.495  0.0662 -0.0537  0.1055
   27loPI   C1B  429   5.910  14.236   9.355 -0.0258  0.0601  0.1778
   27loPI   C2B  430   5.904  14.242   8.901 -0.1162  0.1775 -0.3211
   27loPI   C3B  431   5.903  14.180   8.489  0.0527  0.1725  0.0583
   27loPI   C4B  432   5.826  14.201   8.072 -0.0064  0.3401  0.1254
   28loPI    C1  433   2.459  17.706  11.024 -0.1937 -0.0152 -0.2641
   28loPI    C2  434   2.179  17.961  11.154 -0.0099  0.0712 -0.0331
   28loPI    C3  435   2.431  17.789  11.414  0.2678  0.1326 -0.2570
   28loPI   PO4  436   2.349  17.741  10.755 -0.0828 -0.0805 -0.0275
   28loPI   GL1  437   2.316  17.823  10.369 -0.3027 -0.0353 -0.2184
   28loPI   GL2  438   2.341  18.135  10.454  0.2700 -0.1654  0.0239
   28loPI   C1A  439   2.321  17.614   9.885 -0.2039 -0.0135  0.3184
   28loPI   C2A  440   2.380  17.708   9.405  0.0519  0.3910 -0.0323
   28loPI   C3A  441   2.345  17.701   8.953  0.0962 -0.2488  0.0011
   28loPI   C4A  442   2.272  17.675   8.535 -0.0816  0.0835  0.1652
   28loPI   C5A  443   1.897  17.640   8.241  0.0494  0.0240  0.0792
   28loPI   C6A  444   1.492  17.607   8.090  0.0034 -0.2842 -0.1514
   28loPI   C1B  445   2.444  18.194  10.042 -0.0673  0.2747  0.1270
   28loPI   C2B  446   2.410  18.124   9.619 -0.0169 -0.1055  0.1427
   28loPI   C3B  447   2.431  18.249   9.130 -0.0769  0.1392  0.3218
   28loPI   C4B  448   2.321  18.168   8.755  0.0322 -0.0092  0.2695
   29loPI    C1  449  17.510   4.451  10.759 -0.0793  0.1801 -0.0466
   29loPI    C2  450  17.657   4.585  11.105  0.1980  0.2402 -0.1849
   29loPI    C3  451  17.278   4.461  11.084  0.2361  0.0462  0.1875
   29loPI   PO4  452  17.511   4.616  10.567 -0.0495 -0.1283  0.0801
   29loPI   GL1  453  17.415   4.652  10.123  0.1352  0.1265 -0.0473
   29loPI   GL2  454  17.411   4.325  10.134  0.4718  0.0805  0.3517
   29loPI   C1A  455  17.489   4.601   9.662 -0.1286 -0.1395 -0.0909
   29loPI   C2A  456  17.457   4.605   9.294  0.1117 -0.0501 -0.0554
   29loPI   C3A  457  17.394   4.528   8.862  0.1124 -0.3025  0.0082
   29loPI   C4A  458  17.333   4.625   8.496  0.0437 -0.0810 -0.0991
   29loPI   C5A  459  17.307   4.967   8.232 -0.1468  0.0054  0.4521
   29loPI   C6A  460  17.301   5.476   8.130  0.5877  0.1848 -0.2807
   29loPI   C1B  461  17.531   4.132   9.827 -0.0009  0.1386 -0.0447
   29loPI   C2B  462  17.516   4.026   9.462  0.3243  0.2663 -0.2474
   29loPI   C3B  463  17.483   4.002   9.089  0.2303 -0.1342 -0.0603
   29loPI   C4B  464  17.440   3.978   8.674 -0.3345  0.0533  0.0534
   30loPI    C1  465  17.604   3.537  10.931 -0.1008  0.0096  0.0017
   30loPI    C2  466  17.557   3.280  10.627 -0.0466  0.1417 -0.1195
   30loPI    C3  467  17.262   3.533  10.722 -0.1520 -0.0552  0.0861
   30loPI   PO4  468  17.864   3.578  10.918  0.1179  0.0127  0.2503
   30loPI   GL1  469  18.148   3.662  10.567 -0.3278 -0.1840  0.1729
   30loPI   GL2  470  17.959   3.415  10.408 -0.1263  0.2616  0.0735
   30loPI   C1A  471  18.337   3.593  10.132  0.1241  0.0197  0.1815
   30loPI   C2A  472  18.275   3.450   9.706 -0.2206  0.4974  0.0058
   30loPI   C3A  473  18.239   3.518   9.332  0.5914 -0.0583  0.1353
   30loPI   C4A  474  18.420   3.434   8.937  0.0703  0.1073 -0.1468
   30loPI   C5A  475  18.271   3.303   8.498 -0.2485 -0.3253  0.1374
   30loPI   C6A  476  18.098   2.968   8.269 -0.1300  0.1806  0.0333
   30loPI   C1B  477  17.857   3.403  10.038 -0.0009  0.0414 -0.2258
   30loPI   C2B  478  17.827   3.237   9.590 -0.2963  0.1446 -0.0222
   30loPI   C3B  479  17.854   3.183   9.199  0.0706 -0.3132 -0.0403
   30loPI   C4B  480  17.846   3.252   8.813 -0.1210  0.2336 -0.2598
   31loPI    C1  481  10.810   7.741  11.286 -0.0137  0.1861 -0.0272
   31loPI    C2  482  10.412   7.740  11.242 -0.0449  0.0383  0.2326
   31loPI    C3  483  10.595   7.424  11.403  0.1785  0.1091  0.1219
   31loPI   PO4  484  11.034   7.805  10.985  0.4909 -0.0210  0.1022
   31loPI   GL1  485  10.939   7.701  10.604 -0.3125 -0.1960  0.0151
   31loPI   GL2  486  10.842   7.990  10.505 -0.0196 -0.1191 -0.2256
   31loPI   C1A  487  10.891   7.625  10.196  0.4005 -0.0098 -0.3917
   31loPI   C2A  488  10.797   7.620   9.789  0.1243  0.5909 -0.0516
   31loPI   C3A  489  10.776   7.685   9.318 -0.0403  0.3643 -0.2659
   31loPI   C4A  490  10.844   7.615   8.877 -0.3162  0.1359  0.1160
   31loPI   C5A  491  10.957   7.792   8.461 -0.0626  0.2874 -0.2042
   31loPI   C6A  492  11.127   7.822   8.071 -0.2094 -0.1025 -0.0689
   31loPI   C1B  493  10.775   8.237  10.160  0.3329 -0.1980  0.0051
   31loPI   C2B  494  10.845   8.168   9.695 -0.1659 -0.0727  0.0152
   31loPI   C3B  495  10.758   8.203   9.254  0.5368 -0.1157 -0.1500
   31loPI   C4B  496  10.848   8.145   8.810 -0.2416 -0.3096 -0.1304
   32loPI    C1  497   7.289   7.984  11.170  0.2334 -0.0322  0.0975
   32loPI    C2  498   7.360   7.751  11.487  0.0431 -0.1388  0.0630
   32loPI    C3  499   7.146   8.086  11.529 -0.0166 -0.1738  0.0408
   32loPI   PO4  500   7.278   7.831  10.990 -0.2156 -0.4690  0.2315
   32loPI   GL1  501   7.250   7.826  10.529 -0.2888  0.1458  0.1240
   32loPI   GL2  502   7.321   8.182  10.498 -0.1286  0.1507 -0.0609
   32loPI   C1A  503   7.211   7.731  10.103 -0.1812 -0.0429 -0.0601
   32loPI   C2A  504   7.245   7.675   9.625  0.1307  0.2478 -0.3117
   32loPI   C3A  505   7.344   7.723   9.170 -0.2811  0.0080  0.0233
   32loPI   C4A  506   7.376   7.735   8.746  0.0284 -0.0727  0.2089
   32loPI   C5A  507   7.447   7.948   8.412 -0.0613  0.1958  0.2888
   32loPI   C6A  508   7.296   8.271   8.204 -0.2591  0.1683 -0.1271
   32loPI   C1B  509   7.256   8.235  10.054 -0.2736  0.0040  0.0400
   32loPI   C2B  510   7.277   8.276   9.658  0.0354 -0.2026  0.0029
   32loPI   C3B  511   7.295   8.227   9.244  0.0627  0.0074 -0.0709
   32loPI   C4B  512   7.301   8.291   8.806 -0.1394 -0.1121 -0.1021
   33loPI    C1  513   7.533   9.864  11.276  0.1326  0.0368 -0.1276
   33loPI    C2  514   7.175   9.955  11.122  0.1367  0.1237 -0.0869
   33loPI    C3  515   7.241  10.000  11.514 -0.0067 -0.4968  0.0206
   33loPI   PO4  516   7.650  10.045  11.116  0.1160  0.0905  0.2493
   33loPI   GL1  517   7.706  10.007  10.721  0.0351  0.1968  0.1993
   33loPI   GL2  518   7.363   9.950  10.620  0.3024 -0.0562 -0.0449
   33loPI   C1A  519   7.783   9.980  10.301  0.0409 -0.1566  0.0059
   33loPI   C2A  520   7.777   9.964   9.890  0.1256  0.2745 -0.2567
   33loPI   C3A  521   7.827   9.968   9.509 -0.2091  0.1282 -0.1618
   33loPI   C4A  522   7.762  10.009   9.083  0.0445  0.1666  0.0624
   33loPI   C5A  523   7.841  10.003   8.572  0.2708 -0.0626 -0.2225
   33loPI   C6A  524   7.779  10.284   8.212 -0.1305 -0.1839  0.1581
   33loPI   C1B  525   7.341   9.809  10.182  0.0426  0.3238  0.1903
   33loPI   C2B  526   7.333   9.751   9.679 -0.3044 -0.0127  0.2496
   33loPI   C3B  527   7.330   9.822   9.263 -0.1163  0.1072 -0.0232
   33loPI   C4B  528   7.358   9.820   8.822  0.1497 -0.3399  0.0409
   34loPI    C1  529   6.764  13.132  10.655 -0.1017  0.0709  0.1477
   34loPI    C2  530   6.897  12.968  10.995 -0.1168  0.3972  0.3143
   34loPI    C3  531   6.518  13.095  10.969 -0.4045 -0.4743 -0.1380
   34loPI   PO4  532   6.793  12.959  10.445  0.4250 -0.0297 -0.1386
   34loPI   GL1  533   6.768  13.084   9.958 -0.1356  0.1578  0.3713
   34loPI   GL2  534   6.664  13.430  10.225 -0.1358  0.2324  0.2028
   34loPI   C1A  535   6.634  13.060   9.499  0.1277 -0.0993 -0.0998
   34loPI   C2A  536   6.627  12.987   9.105 -0.1929 -0.0941  0.0527
   34loPI   C3A  537   6.623  13.049   8.626  0.0496  0.2074  0.2832
   34loPI   C4A  538   6.542  12.806   8.205 -0.2444 -0.0437  0.0424
   34loPI   C5A  539   6.324  12.874   7.835  0.1643  0.0284  0.1192
   34loPI   C6A  540   6.098  12.857   7.457 -0.1205  0.1895  0.2861
   34loPI   C1B  541   6.747  13.547   9.776  0.1703 -0.2850  0.0503
   34loPI   C2B  542   6.654  13.637   9.340 -0.4709  0.1445  0.1574
   34loPI   C3B  543   6.641  13.547   8.919  0.0662 -0.1668  0.2208
   34loPI   C4B  544   6.732  13.549   8.445 -0.4109 -0.3409  0.0637
   35loPI    C1  545   1.116   4.552  11.237 -0.1291  0.1746  0.1364
   35loPI    C2  546   1.006   4.342  11.559  0.0538  0.0331  0.1079
   35loPI    C3  547   1.025   4.741  11.577 -0.0064  0.0299  0.2508
   35loPI   PO4  548   1.010   4.538  11.063 -0.2533  0.1006  0.0212
   35loPI   GL1  549   0.994   4.698  10.621  0.2275 -0.0824 -0.1681
   35loPI   GL2  550   0.771   4.742  10.488  0.0749 -0.0804 -0.2616
   35loPI   C1A  551   1.201   4.613  10.271  0.1998  0.0885 -0.1197
   35loPI   C2A  552   1.226   4.589   9.834  0.1854 -0.1726 -0.0873
   35loPI   C3A  553   1.270   4.535   9.469  0.1647 -0.4203  0.0330
   35loPI   C4A  554   1.262   4.565   9.038 -0.0220 -0.4558  0.1441
   35loPI   C5A  555   1.210   4.543   8.608 -0.0114  0.1969  0.2348
   35loPI   C6A  556   1.192   4.534   8.145 -0.2132 -0.0349  0.2155
   35loPI   C1B  557   0.755   4.852  10.080 -0.0670 -0.0269 -0.1319
   35loPI   C2B  558   0.830   4.851   9.635  0.1102 -0.1662  0.0638
   35loPI   C3B  559   0.826   4.723   9.299  0.3551 -0.0076 -0.2317
   35loPI   C4B  560   0.793   4.746   8.864  0.1230 -0.1553 -0.2331
   36loPI    C1  561   4.272   7.789  10.860 -0.0336  0.0620 -0.2900
   36loPI    C2  562   4.016   7.488  10.795 -0.2085  0.1262  0.0797
   36loPI    C3  563   3.989   7.706  11.130  0.2618  0.2063  0.0725
   36loPI   PO4  564   4.186   7.916  10.603 -0.2907 -0.0159 -0.0936
   36loPI   GL1  565   4.284   7.887  10.208 -0.2584 -0.1675 -0.0131
   36loPI   GL2  566   4.545   7.902  10.110  0.0538 -0.2470 -0.3735
   36loPI   C1A  567   4.068   7.669   9.799  0.0695 -0.0300  0.4648
   36loPI   C2A  568   4.025   7.567   9.381  0.0602 -0.0715  0.0848
   36loPI   C3A  569   4.114   7.630   8.944 -0.0412  0.2465  0.1018
   36loPI   C4A  570   4.112   7.537   8.530 -0.0908 -0.1707 -0.2838
   36loPI   C5A  571   3.861   7.619   8.232  0.2247 -0.0114 -0.0040
   36loPI   C6A  572   3.587   7.464   7.992  0.3446  0.1002 -0.1253
   36loPI   C1B  573   4.534   7.855   9.692 -0.0488  0.0481 -0.0550
   36loPI   C2B  574   4.471   7.778   9.297  0.0049  0.0959  0.1383
   36loPI   C3B  575   4.615   7.854   8.848  0.2838 -0.0993  0.3807
   36loPI   C4B  576   4.548   7.809   8.478  0.1132  0.0861 -0.2534
   37loPI    C1  577  15.036   4.885  11.124 -0.1853 -0.0465  0.0274
   37loPI    C2  578  14.699   4.960  11.325 -0.1571  0.1976 -0.0132
   37loPI    C3  579  15.033   5.161  11.414 -0.0853  0.1369 -0.1431
   37loPI   PO4  580  14.884   4.741  10.833  0.1052  0.1836  0.2631
   37loPI   GL1  581  14.709   4.701  10.454 -0.1294  0.1190  0.1872
   37loPI   GL2  582  14.992   4.592  10.349 -0.0564 -0.1280  0.2722
   37loPI   C1A  583  14.723   4.775   9.920 -0.1748  0.1829 -0.1572
   37loPI   C2A  584  14.677   4.743   9.450 -0.0479  0.0300  0.0564
   37loPI   C3A  585  14.738   4.690   9.082 -0.1299  0.1968 -0.1963
   37loPI   C4A  586  14.782   4.705   8.561  0.1510 -0.0235 -0.1950
   37loPI   C5A  587  15.175   4.577   8.281 -0.0516  0.0735 -0.2704
   37loPI   C6A  588  15.096   4.706   7.901 -0.1642 -0.3958  0.1065
   37loPI   C1B  589  15.214   4.529   9.987  0.2353 -0.3016  0.0369
   37loPI   C2B  590  15.283   4.383   9.571  0.0699 -0.4331  0.0154
   37loPI   C3B  591  15.260   4.457   9.161 -0.2855 -0.2668  0.0549
   37loPI   C4B  592  15.305   4.361   8.687  0.4438 -0.2116 -0.0579
   38loPI    C1  593  14.556   0.067  11.445 -0.0325 -0.0620  0.0455
   38loPI    C2  594  14.168  -0.030  11.442 -0.0136 -0.1365 -0.0339
   38loPI    C3  595  14.406  -0.168  11.731 -0.0592 -0.0368  0.0522
   38loPI   PO4  596  14.677   0.014  11.141  0.1205  0.0115 -0.0825
   38loPI   GL1  597  14.756   0.368  10.907  0.0765 -0.0756 -0.0454
   38loPI   GL2  598  14.508   0.144  10.721 -0.1974 -0.1648  0.1152
   38loPI   C1A  599  14.996   0.042  10.541  0.0268 -0.1239 -0.4277
   38loPI   C2A  600  14.959   0.031  10.102  0.1671 -0.0247  0.1325
   38loPI   C3A  601  14.983  -0.050   9.718  0.0432 -0.2218 -0.3574
   38loPI   C4A  602  14.898  -0.082   9.227  0.3755 -0.4044  0.0294
   38loPI   C5A  603  15.031  -0.028   8.857 -0.1384 -0.0203 -0.2953
   38loPI   C6A  604  15.189   0.136   8.505  0.0654 -0.3507 -0.2420
   38loPI   C1B  605  14.534   0.365  10.298 -0.3201  0.0715 -0.0402
   38loPI   C2B  606  14.555   0.270   9.816  0.2101 -0.2083 -0.0096
   38loPI   C3B  607  14.577   0.364   9.384  0.0833  0.0650  0.1434
   38loPI   C4B  608  14.516   0.556   8.874 -0.1868  0.0214  0.0629
   39loPI    C1  609   2.843  16.080  11.053 -0.1449 -0.0052 -0.0151
   39loPI    C2  610   3.120  15.919  11.292 -0.0882 -0.1013 -0.1448
   39loPI    C3  611   2.745  15.964  11.423 -0.0202 -0.0030  0.0190
   39loPI   PO4  612   2.845  15.960  10.772 -0.0956 -0.0012  0.2324
   39loPI   GL1  613   2.925  16.141  10.503  0.1779  0.0164  0.0384
   39loPI   GL2  614   2.722  16.340  10.328  0.1444  0.3579 -0.2556
   39loPI   C1A  615   2.952  15.954  10.094 -0.0106 -0.0820 -0.1288
   39loPI   C2A  616   2.957  16.005   9.810 -0.3549 -0.0285  0.2605
   39loPI   C3A  617   3.041  16.002   9.405 -0.0452  0.3031 -0.0014
   39loPI   C4A  618   2.984  16.186   8.944 -0.0340  0.0020  0.0242
   39loPI   C5A  619   3.028  16.130   8.508  0.0541  0.1079 -0.1237
   39loPI   C6A  620   3.038  16.197   8.083  0.1084  0.2493 -0.2923
   39loPI   C1B  621   2.576  16.276   9.888  0.0418  0.2450 -0.2454
   39loPI   C2B  622   2.580  16.368   9.489 -0.0296  0.2138  0.1866
   39loPI   C3B  623   2.623  16.437   9.075  0.0850 -0.0216  0.3041
   39loPI   C4B  624   2.553  16.459   8.631 -0.4769  0.0289 -0.3283
   40loPI    C1  625  13.952  15.157  11.158  0.0311 -0.1323  0.0960
   40loPI    C2  626  14.179  15.296  11.457 -0.1340  0.2632  0.0434
   40loPI    C3  627  13.898  15.022  11.531  0.0233  0.1404  0.1959
   40loPI   PO4  628  14.128  15.215  10.949  0.1714  0.2091 -0.0853
   40loPI   GL1  629  14.134  15.137  10.485  0.0699  0.0738 -0.1591
   40loPI   GL2  630  13.852  15.238  10.313  0.0520 -0.1818  0.1184
   40loPI   C1A  631  14.246  14.928  10.131 -0.1168  0.1338 -0.0921
   40loPI   C2A  632  14.252  15.002   9.721 -0.0277 -0.0289  0.1465
   40loPI   C3A  633  14.353  14.848   9.219 -0.2260 -0.3875  0.2088
   40loPI   C4A  634  14.424  14.940   8.777  0.0662  0.4053  0.0896
   40loPI   C5A  635  14.265  14.821   8.407 -0.1281 -0.2367 -0.1165
   40loPI   C6A  636  14.260  14.464   8.164 -0.1795 -0.0164  0.0932
   40loPI   C1B  637  13.789  15.315   9.903 -0.1332 -0.1156 -0.0747
   40loPI   C2B  638  13.889  15.321   9.573 -0.0101  0.0967  0.0851
   40loPI   C3B  639  13.811  15.302   9.228  0.0555  0.4490  0.1317
   40loPI   C4B  640  13.978  15.275   8.814 -0.2244 -0.1058  0.1497
   41loPI    C1  641   7.870   8.906  11.423  0.0650 -0.4184 -0.0119
   41loPI    C2  642   7.601   8.881  11.718 -0.0874 -0.0074 -0.1102
   41loPI    C3  643   7.968   9.022  11.793 -0.0149 -0.2250 -0.0500
   41loPI   PO4  644   7.774   8.687  11.186  0.0919  0.0499 -0.0270
   41loPI   GL1  645   7.938   8.566  10.844 -0.0145  0.1418 -0.0724
   41loPI   GL2  646   7.985   8.769  10.643 -0.0011 -0.2788 -0.1000
   41loPI   C1A  647   7.720   8.483  10.367 -0.4209 -0.1102  0.0248
   41loPI   C2A  648   7.738   8.468   9.931 -0.3655 -0.1614 -0.4885
   41loPI   C3A  649   7.810   8.500   9.494  0.0177  0.1364 -0.0192
   41loPI   C4A  650   7.685   8.532   9.068  0.0493  0.1436 -0.0552
   41loPI   C5A  651   7.769   8.617   8.627  0.0456  0.0361 -0.1677
   41loPI   C6A  652   7.819   8.393   8.256 -0.0168  0.1312 -0.0144
   41loPI   C1B  653   8.189   8.709  10.289  0.0132  0.0057  0.3916
   41loPI   C2B  654   8.184   8.694   9.838  0.1681  0.2098  0.1651
   41loPI   C3B  655   8.244   8.771   9.409  0.2525 -0.2012  0.0705
   41loPI   C4B  656   8.205   8.733   8.915 -0.1742 -0.0932  0.0040
   42loPI    C1  657   0.822   6.903  10.782  0.0143  0.2275 -0.1371
   42loPI    C2  658   0.818   6.968  11.177  0.0435 -0.1501 -0.0701
   42loPI    C3  659   1.146   7.051  10.964 -0.0123  0.1659 -0.0382
   42loPI   PO4  660   0.645   6.730  10.738  0.2598  0.0623  0.0425
   42loPI   GL1  661   0.253   6.635  10.485 -0.2675 -0.0245 -0.1559
   42loPI   GL2  662   0.053   6.868  10.435  0.0946  0.0774  0.0581
   42loPI   C1A  663   0.314   6.656  10.019  0.0229 -0.0272  0.3540
   42loPI   C2A  664   0.337   6.618   9.483  0.0311 -0.1565 -0.1889
   42loPI   C3A  665   0.447   6.609   9.055  0.2496 -0.1198 -0.4061
   42loPI   C4A  666   0.512   6.643   8.676  0.1975 -0.2700 -0.2944
   42loPI   C5A  667   0.542   6.711   8.258 -0.0570  0.0596 -0.0393
   42loPI   C6A  668   0.370   6.722   7.812 -0.1929 -0.0567 -0.3227
   42loPI   C1B  669  -0.093   6.943   9.945 -0.2544 -0.0647  0.0025
   42loPI   C2B  670  -0.084   6.870   9.569 -0.0746 -0.0608 -0.0392
   42loPI   C3B  671  -0.048   6.814   9.163 -0.0443 -0.1002 -0.1914
   42loPI   C4B  672   0.066   6.865   8.735  0.0209  0.0551 -0.0592
   43loPI    C1  673  12.363   1.072  10.966  0.1205  0.0761  0.0051
   43loPI    C2  674  12.586   0.744  10.918  0.0499  0.0585 -0.2120
   43loPI    C3  675  12.559   0.916  11.278 -0.2052 -0.3849 -0.0116
   43loPI   PO4  676  12.453   1.204  10.763 -0.0894 -0.1010  0.0297
   43loPI   GL1  677  12.464   1.328  10.373 -0.2283 -0.0704 -0.1822
   43loPI   GL2  678  12.320   1.080  10.189 -0.3892 -0.0947 -0.2193
   43loPI   C1A  679  12.313   1.544   9.972 -0.2367  0.1253  0.2982
   43loPI   C2A  680  12.415   1.449   9.582  0.1593  0.2689  0.3142
   43loPI   C3A  681  12.375   1.429   9.115  0.1107  0.0173 -0.0386
   43loPI   C4A  682  12.461   1.428   8.724  0.1195 -0.1581 -0.1131
   43loPI   C5A  683  12.651   1.182   8.438 -0.1656  0.0195 -0.3038
   43loPI   C6A  684  12.670   1.242   8.042  0.2852  0.1175  0.1619
   43loPI   C1B  685  12.447   1.018   9.799  0.1905  0.0833  0.0419
   43loPI   C2B  686  12.495   0.948   9.327  0.1250  0.0675  0.1549
   43loPI   C3B  687  12.333   0.978   8.870  0.1618  0.1772 -0.2271
   43loPI   C4B  688  12.375   0.820   8.458 -0.0838  0.0671  0.2371
   44loPI    C1  689  10.123   1.486  10.890 -0.1275  0.0858  0.0484
   44loPI    C2  690  10.064   1.444  11.284 -0.0101 -0.0110  0.0564
   44loPI    C3  691  10.059   1.808  11.118  0.1804  0.0520  0.1867
   44loPI   PO4  692   9.941   1.442  10.749 -0.0959  0.1710 -0.1766
   44loPI   GL1  693   9.861   1.502  10.271  0.3490 -0.0641  0.2574
   44loPI   GL2  694  10.176   1.447  10.057 -0.4277  0.0912 -0.1591
   44loPI   C1A  695   9.761   1.364   9.883  0.0222  0.0602  0.0340
   44loPI   C2A  696   9.690   1.468   9.489 -0.1369  0.1060  0.0579
   44loPI   C3A  697   9.720   1.373   9.072 -0.0173 -0.3533 -0.0955
   44loPI   C4A  698   9.740   1.513   8.643  0.0999  0.1769  0.2270
   44loPI   C5A  699   9.741   1.568   8.228  0.1452 -0.3338  0.1935
   44loPI   C6A  700   9.813   1.584   7.833 -0.1799  0.2737 -0.0741
   44loPI   C1B  701  10.128   1.676   9.756 -0.3138  0.0499  0.1268
   44loPI   C2B  702  10.143   1.733   9.345  0.1048 -0.1913 -0.1769
   44loPI   C3B  703  10.166   1.668   8.943 -0.2762 -0.1908  0.2232
   44loPI   C4B  704  10.191   1.710   8.478 -0.2691 -0.3690 -0.0577
   45loPI    C1  705   2.665   0.761  10.745  0.1604 -0.1082  0.1387
   45loPI    C2  706   2.628   0.565  11.091  0.1548  0.0054  0.2032
   45loPI    C3  707   2.849   0.898  11.073 -0.1019  0.1766  0.1717
   45loPI   PO4  708   2.496   0.664  10.594  0.1702 -0.2595  0.4455
   45loPI   GL1  709   2.179   0.581  10.262 -0.3583 -0.0093 -0.0570
   45loPI   GL2  710   2.501   0.644  10.042  0.1970 -0.1528 -0.3631
   45loPI   C1A  711   2.080   0.453   9.848  0.0003 -0.3069  0.1907
   45loPI   C2A  712   2.019   0.462   9.351 -0.0943 -0.1133  0.1027
   45loPI   C3A  713   1.877   0.453   8.965 -0.0304  0.0686 -0.5496
   45loPI   C4A  714   1.838   0.551   8.484 -0.0390 -0.3231 -0.3831
   45loPI   C5A  715   1.937   0.913   8.272 -0.1689  0.0388  0.2189
   45loPI   C6A  716   2.328   0.977   8.047 -0.1527  0.0209 -0.1693
   45loPI   C1B  717   2.478   0.642   9.599 -0.3353  0.1300  0.2459
   45loPI   C2B  718   2.411   0.801   9.185  0.1855  0.0964 -0.1192
   45loPI   C3B  719   2.381   0.711   8.776  0.1620 -0.1567 -0.1076
   45loPI   C4B  720   2.439   0.632   8.354 -0.0073 -0.0359  0.0712
   46loPI    C1  721   0.475  13.770  10.210  0.0197 -0.3247  0.1314
   46loPI    C2  722   0.861  13.745  10.314  0.1149  0.1500 -0.0787
   46loPI    C3  723   0.708  14.095  10.194 -0.3854 -0.0320  0.0011
   46loPI   PO4  724   0.388  13.592  10.036  0.0577  0.3238  0.0712
   46loPI   GL1  725   0.339  13.734   9.620  0.1202 -0.0176 -0.0106
   46loPI   GL2  726   0.503  14.005   9.711 -0.2311 -0.0317  0.2455
   46loPI   C1A  727   0.334  13.632   9.160  0.0888  0.1625  0.0560
   46loPI   C2A  728   0.329  13.493   8.820  0.2070  0.2379 -0.1033
   46loPI   C3A  729   0.626  13.208   8.489  0.2582  0.3543 -0.0000
   46loPI   C4A  730   0.779  13.284   8.035 -0.1643  0.2109 -0.1174
   46loPI   C5A  731   1.139  13.157   7.815  0.3180 -0.2010  0.2020
   46loPI   C6A  732   1.334  12.964   7.580 -0.1852 -0.2964 -0.4395
   46loPI   C1B  733   0.406  14.132   9.246 -0.0570  0.0228  0.2327
   46loPI   C2B  734   0.367  14.070   8.834 -0.0634  0.3487  0.2288
   46loPI   C3B  735   0.365  14.074   8.333 -0.2214  0.0764 -0.0261
   46loPI   C4B  736   0.342  13.771   7.989  0.0319  0.0446  0.0042
   47loPI    C1  737  14.290   1.267  11.211  0.1545  0.0208 -0.0015
   47loPI    C2  738  13.894   1.271  11.156  0.1614  0.0049 -0.0535
   47loPI    C3  739  14.050   1.403  11.500  0.1383  0.4318 -0.2020
   47loPI   PO4  740  14.306   0.957  11.098  0.2894  0.0613 -0.0396
   47loPI   GL1  741  14.261   0.948  10.673  0.0756  0.0953 -0.0304
   47loPI   GL2  742  14.295   0.632  10.612  0.1463  0.0497  0.0492
   47loPI   C1A  743  14.293   1.167  10.194 -0.0201 -0.2302  0.0891
   47loPI   C2A  744  14.265   1.133   9.775  0.1478  0.1066  0.0582
   47loPI   C3A  745  14.136   1.199   9.416  0.1027  0.0237 -0.2510
   47loPI   C4A  746  14.080   1.308   8.994  0.0179  0.0896 -0.0081
   47loPI   C5A  747  14.104   1.292   8.557 -0.1057  0.0112 -0.0941
   47loPI   C6A  748  14.189   0.980   8.181 -0.2049  0.1684  0.0459
   47loPI   C1B  749  14.177   0.665  10.164 -0.1116  0.0406 -0.1104
   47loPI   C2B  750  14.165   0.670   9.690 -0.0451 -0.2024  0.1349
   47loPI   C3B  751  14.143   0.610   9.264  0.2230  0.0305  0.2196
   47loPI   C4B  752  14.077   0.781   8.900  0.1825 -0.0441  0.3728
   48loPI    C1  753  13.837   4.436  11.297 -0.0080 -0.1309  0.0835
   48loPI    C2  754  13.939   4.460  11.683 -0.1182  0.0202  0.1041
   48loPI    C3  755  13.573   4.571  11.566  0.0460  0.3602 -0.1009
   48loPI   PO4  756  14.038   4.543  11.182  0.3203 -0.2215 -0.0159
   48loPI   GL1  757  13.916   4.658  10.787  0.2374 -0.4115 -0.1806
   48loPI   GL2  758  13.663   4.594  10.714  0.1306 -0.0124  0.0245
   48loPI   C1A  759  13.947   4.737  10.351 -0.3010 -0.0104  0.0822
   48loPI   C2A  760  13.924   4.721   9.830 -0.0545  0.1325 -0.0040
   48loPI   C3A  761  13.865   4.679   9.434  0.1298 -0.1938 -0.1374
   48loPI   C4A  762  13.818   4.806   8.909  0.1900 -0.1324 -0.0019
   48loPI   C5A  763  13.862   5.019   8.550  0.1298 -0.3626  0.0389
   48loPI   C6A  764  13.535   5.085   8.201  0.2737 -0.1377  0.0974
   48loPI   C1B  765  13.478   4.516  10.247 -0.0843  0.3962  0.1150
   48loPI   C2B  766  13.433   4.430   9.829  0.3784 -0.0777  0.1818
   48loPI   C3B  767  13.383   4.420   9.422  0.0845  0.0145  0.2115
   48loPI   C4B  768  13.357   4.552   8.957 -0.1685 -0.0251 -0.2652
   49loPI    C1  769  17.904   0.685  11.423  0.0203 -0.1286  0.1061
   49loPI    C2  770  18.215   0.436  11.460  0.2728  0.1715  0.0463
   49loPI    C3  771  18.266   0.829  11.511 -0.0870  0.2315 -0.0240
   49loPI   PO4  772  17.811   0.554  11.249 -0.0990  0.3711 -0.0034
   49loPI   GL1  773  17.773   0.647  10.734  0.0097 -0.0687  0.0041
   49loPI   GL2  774  17.691   0.318  10.810  0.2378  0.0279 -0.0926
   49loPI   C1A  775  17.700   0.740  10.363 -0.1990 -0.0661 -0.2435
   49loPI   C2A  776  17.664   0.673  10.033  0.1263  0.0258  0.0116
   49loPI   C3A  777  17.656   0.593   9.558 -0.0834  0.0982  0.0115
   49loPI   C4A  778  17.733   0.578   9.133 -0.3354 -0.0257 -0.3953
   49loPI   C5A  779  17.638   0.505   8.677  0.0745 -0.0303  0.1957
   49loPI   C6A  780  17.451   0.499   8.311  0.1478  0.3184 -0.3713
   49loPI   C1B  781  17.714   0.246  10.442 -0.1921  0.0109  0.2542
   49loPI   C2B  782  17.674   0.136  10.020  0.0801  0.1403  0.0636
   49loPI   C3B  783  17.629   0.101   9.603 -0.0916  0.0910  0.1877
   49loPI   C4B  784  17.654   0.078   9.209 -0.3360 -0.0375 -0.0851
   50loPI    C1  785   5.664   6.596  11.288  0.1039 -0.1752  0.0320
   50loPI    C2  786   5.479   6.348  11.542  0.0148 -0.1348  0.0071
   50loPI    C3  787   5.842   6.491  11.630 -0.1797  0.1939  0.3019
   50loPI   PO4  788   5.616   6.629  11.020  0.0135 -0.1657  0.0354
   50loPI   GL1  789   5.836   6.511  10.647  0.0845 -0.0223 -0.0789
   50loPI   GL2  790   5.563   6.411  10.499 -0.0834  0.1935  0.0450
   50loPI   C1A  791   6.068   6.212  10.445  0.1376  0.1939 -0.2465
   50loPI   C2A  792   6.192   6.191  10.064 -0.1517  0.0475 -0.1817
   50loPI   C3A  793   6.365   6.191   9.606 -0.0517 -0.2041 -0.1465
   50loPI   C4A  794   6.458   6.212   9.177 -0.0856  0.0886 -0.0025
   50loPI   C5A  795   6.396   6.335   8.751  0.2097 -0.1716 -0.1466
   50loPI   C6A  796   6.453   6.688   8.393  0.0093  0.4231 -0.1249
   50loPI   C1B  797   5.744   6.397  10.026 -0.1416  0.1963  0.0079
   50loPI   C2B  798   5.856   6.432   9.581 -0.0445 -0.3750  0.2713
   50loPI   C3B  799   5.949   6.493   9.160  0.0870  0.4195  0.1856
   50loPI   C4B  800   6.006   6.584   8.675  0.0049  0.2278 -0.0257
   51loPI    C1  801  15.910   2.032  11.018 -0.0408  0.0952 -0.1806
   51loPI    C2  802  16.009   1.667  10.887 -0.0799  0.1301 -0.3093
   51loPI    C3  803  15.741   1.708  11.181  0.5051  0.0188  0.2623
   51loPI   PO4  804  15.870   2.150  10.733 -0.1200  0.2267  0.0927
   51loPI   GL1  805  15.595   2.153  10.382  0.2088  0.4381  0.2522
   51loPI   GL2  806  15.647   2.528  10.338  0.0803 -0.0229  0.1611
   51loPI   C1A  807  15.535   2.080   9.892  0.0014 -0.0079  0.0955
   51loPI   C2A  808  15.588   2.087   9.444 -0.1840 -0.1358 -0.0056
   51loPI   C3A  809  15.587   2.003   8.987  0.0684 -0.1253  0.1026
   51loPI   C4A  810  15.536   2.082   8.645  0.0433  0.0091  0.3074
   51loPI   C5A  811  15.664   2.272   8.295  0.1745 -0.0289 -0.0956
   51loPI   C6A  812  15.599   2.690   8.158 -0.0781  0.0299 -0.0862
   51loPI   C1B  813  15.565   2.542   9.905  0.0877 -0.1628  0.1655
   51loPI   C2B  814  15.621   2.593   9.476  0.3349  0.0291 -0.3125
   51loPI   C3B  815  15.634   2.491   9.045  0.0380 -0.2052  0.1833
   51loPI   C4B  816  15.534   2.637   8.690 -0.1721  0.1830 -0.0347
   52loPI    C1  817   6.775   1.541  10.641  0.2126  0.0936 -0.0783
   52loPI    C2  818   6.915   1.668  10.994  0.2118 -0.2171  0.0372
   52loPI    C3  819   6.736   1.311  10.967 -0.1349 -0.0306 -0.2026
   52loPI   PO4  820   6.917   1.637  10.448 -0.0920 -0.0963  0.1812
   52loPI   GL1  821   6.977   1.514  10.005 -0.2366 -0.1099  0.1666
   52loPI   GL2  822   7.175   1.829  10.022 -0.1495 -0.4314  0.2556
   52loPI   C1A  823   6.657   1.387   9.741 -0.1729 -0.0950 -0.0092
   52loPI   C2A  824   6.745   1.250   9.346  0.0461 -0.0644  0.1948
   52loPI   C3A  825   6.614   1.299   8.930 -0.1262 -0.1305  0.2213
   52loPI   C4A  826   6.517   1.227   8.579  0.1186  0.1200 -0.0477
   52loPI   C5A  827   6.581   1.424   8.240  0.0565 -0.1340 -0.1939
   52loPI   C6A  828   6.430   1.623   8.032  0.2506 -0.0756  0.2156
   52loPI   C1B  829   7.103   2.182   9.702 -0.2399 -0.2459 -0.1315
   52loPI   C2B  830   7.057   2.237   9.226  0.0540 -0.1999 -0.1843
   52loPI   C3B  831   7.062   2.121   8.780 -0.0629  0.1002  0.1255
   52loPI   C4B  832   7.091   2.235   8.307 -0.0069  0.0348  0.4383
   53loPI    C1  833   5.819   6.126  11.270  0.1039  0.0236  0.0342
   53loPI    C2  834   6.079   5.831  11.195  0.0731 -0.0273  0.1248
   53loPI    C3  835   6.199   6.160  11.388  0.0761 -0.0402  0.1449
   53loPI   PO4  836   5.760   6.170  11.031  0.1756 -0.1151  0.0624
   53loPI   GL1  837   5.846   5.793  10.689  0.1214  0.2386 -0.2492
   53loPI   GL2  838   5.577   5.932  10.658 -0.0542 -0.2140 -0.1209
   53loPI   C1A  839   6.154   5.682  10.408 -0.3333 -0.2274  0.0920
   53loPI   C2A  840   6.153   5.685  10.031 -0.1661 -0.0033  0.2088
   53loPI   C3A  841   6.245   5.712   9.612  0.1381  0.2736  0.0031
   53loPI   C4A  842   6.414   5.699   9.287 -0.4350 -0.4299 -0.1814
   53loPI   C5A  843   6.370   5.728   8.897  0.0718 -0.1107 -0.0726
   53loPI   C6A  844   6.313   5.919   8.551 -0.0380 -0.0244  0.0822
   53loPI   C1B  845   5.716   5.912  10.147 -0.2546 -0.0508 -0.1869
   53loPI   C2B  846   5.822   5.992   9.722 -0.0142  0.1162 -0.2493
   53loPI   C3B  847   5.845   5.942   9.238  0.2112 -0.0263 -0.0611
   53loPI   C4B  848   5.955   6.083   8.836 -0.0959 -0.1704  0.1986
   54loPI    C1  849  11.024   4.621  11.248  0.1008  0.0884  0.0501
   54loPI    C2  850  11.274   4.810  11.496 -0.0205 -0.0242  0.2603
   54loPI    C3  851  10.879   4.870  11.525 -0.0316  0.0076  0.0545
   54loPI   PO4  852  11.245   4.601  11.051  0.1821 -0.1437 -0.0958
   54loPI   GL1  853  11.332   4.607  10.594 -0.0585  0.0461 -0.1214
   54loPI   GL2  854  11.624   4.510  10.493  0.1015 -0.3723  0.0360
   54loPI   C1A  855  11.199   4.765  10.172  0.0589  0.2317 -0.0869
   54loPI   C2A  856  11.296   4.616   9.814 -0.1865 -0.0836 -0.0138
   54loPI   C3A  857  11.290   4.655   9.462  0.0070 -0.0631  0.0982
   54loPI   C4A  858  11.297   4.863   9.082  0.4602  0.0226  0.2212
   54loPI   C5A  859  11.311   4.967   8.674 -0.1816 -0.0372 -0.1607
   54loPI   C6A  860  11.468   4.766   8.298 -0.2799 -0.0826  0.2863
   54loPI   C1B  861  11.683   4.392  10.018  0.0623  0.1424  0.1383
   54loPI   C2B  862  11.685   4.428   9.588 -0.1311 -0.1835  0.0227
   54loPI   C3B  863  11.601   4.438   9.158 -0.1621  0.0494 -0.1799
   54loPI   C4B  864  11.618   4.560   8.737  0.0312 -0.0905  0.1868
   55loPI    C1  865   0.608   9.649  10.747  0.0344  0.1201  0.1921
   55loPI    C2  866   0.369   9.765  11.046 -0.3109 -0.0573 -0.0086
   55loPI    C3  867   0.501   9.387  11.030 -0.1461 -0.0015  0.0146
   55loPI   PO4  868   0.640   9.885  10.602 -0.2597  0.0727  0.2515
   55loPI   GL1  869   0.641  10.106  10.259  0.0490 -0.1792  0.0511
   55loPI   GL2  870   0.587   9.879  10.119 -0.1399 -0.2420 -0.0592
   55loPI   C1A  871   0.520  10.281   9.842 -0.2580  0.2813 -0.0149
   55loPI   C2A  872   0.456  10.303   9.419 -0.0015  0.3433 -0.0298
   55loPI   C3A  873   0.536  10.215   8.976  0.1066 -0.2136 -0.0385
   55loPI   C4A  874   0.552  10.293   8.572  0.2722  0.0152 -0.0595
   55loPI   C5A  875   0.614  10.446   8.100  0.4673 -0.1092  0.1761
   55loPI   C6A  876   0.363  10.396   7.687 -0.1788  0.2284 -0.1293
   55loPI   C1B  877   0.482   9.819   9.639 -0.2160 -0.0958  0.1600
   55loPI   C2B  878   0.497   9.745   9.217 -0.0637  0.3365  0.0042
   55loPI   C3B  879   0.554   9.700   8.785  0.0479 -0.1285  0.1757
   55loPI   C4B  880   0.654   9.754   8.469  0.4587 -0.2043 -0.1350
   56loPI    C1  881   6.902   9.435  11.036  0.0032 -0.2162  0.2419
   56loPI    C2  882   6.846   9.673  11.353  0.2543  0.1181  0.0427
   56loPI    C3  883   7.172   9.441  11.332  0.2415  0.1015  0.0253
   56loPI   PO4  884   6.858   9.635  10.816 -0.5324  0.1359  0.0646
   56loPI   GL1  885   6.737   9.777  10.428 -0.3416 -0.3811 -0.2347
   56loPI   GL2  886   6.477   9.515  10.455  0.0368 -0.4553 -0.0213
   56loPI   C1A  887   6.839   9.665  10.102 -0.1359  0.1304  0.2251
   56loPI   C2A  888   6.913   9.524   9.710 -0.1338 -0.2482 -0.1193
   56loPI   C3A  889   6.900   9.543   9.252 -0.1418  0.0850  0.4332
   56loPI   C4A  890   6.907   9.577   8.875 -0.1674 -0.0678  0.1841
   56loPI   C5A  891   7.162   9.569   8.458 -0.1145  0.2384  0.0065
   56loPI   C6A  892   7.500   9.836   8.269 -0.0887  0.0829  0.0201
   56loPI   C1B  893   6.446   9.380  10.013  0.0571 -0.0038  0.0914
   56loPI   C2B  894   6.480   9.297   9.650 -0.1167  0.0608  0.0604
   56loPI   C3B  895   6.421   9.338   9.193 -0.0650 -0.0870  0.1249
   56loPI   C4B  896   6.404   9.428   8.752  0.0798 -0.0714  0.0249
   57loPI    C1  897   6.827   4.121  10.927  0.1095 -0.1957  0.0323
   57loPI    C2  898   6.444   4.038  10.847  0.0767  0.1000 -0.1329
   57loPI    C3  899   6.550   4.160  11.213 -0.0202  0.2134 -0.1422
   57loPI   PO4  900   6.902   4.147  10.639 -0.2106  0.0046 -0.0277
   57loPI   GL1  901   6.794   3.967  10.240  0.0448  0.1303 -0.0296
   57loPI   GL2  902   6.608   3.912  10.052  0.4291  0.1048  0.2291
   57loPI   C1A  903   7.025   4.110   9.891 -0.1194 -0.0881  0.3991
   57loPI   C2A  904   7.156   4.122   9.367  0.1135 -0.1136 -0.0519
   57loPI   C3A  905   7.209   4.162   9.002  0.0702  0.0395  0.3364
   57loPI   C4A  906   7.164   4.254   8.599  0.1497  0.1933 -0.1653
   57loPI   C5A  907   7.201   4.408   8.218 -0.0796  0.1322 -0.2727
   57loPI   C6A  908   7.325   4.230   7.931 -0.1123 -0.0368 -0.1262
   57loPI   C1B  909   6.649   3.931   9.581  0.2774 -0.1443  0.1653
   57loPI   C2B  910   6.713   3.845   9.182  0.0127 -0.3291 -0.1438
   57loPI   C3B  911   6.746   3.914   8.737  0.0434  0.0392  0.2499
   57loPI   C4B  912   6.692   4.003   8.367  0.3213  0.1011  0.2263
   58loPI    C1  913  17.250   5.852  11.243 -0.0818  0.0529 -0.0078
   58loPI    C2  914  17.086   5.839  11.607 -0.1154  0.1053 -0.0212
   58loPI    C3  915  17.144   6.191  11.426  0.0404  0.0891 -0.0035
   58loPI   PO4  916  17.163   5.736  11.117  0.0205 -0.5010 -0.1150
   58loPI   GL1  917  17.055   5.553  10.714  0.2368  0.3968  0.0696
   58loPI   GL2  918  17.107   5.864  10.601 -0.1660  0.0036  0.1694
   58loPI   C1A  919  16.973   5.420  10.204  0.2242  0.1574 -0.1890
   58loPI   C2A  920  17.033   5.331   9.819 -0.1906  0.2033  0.0609
   58loPI   C3A  921  17.069   5.309   9.418  0.3093  0.1834 -0.3078
   58loPI   C4A  922  17.054   5.387   9.012  0.0784 -0.0373 -0.0050
   58loPI   C5A  923  17.095   5.474   8.621 -0.0595 -0.1697  0.0992
   58loPI   C6A  924  16.786   5.560   8.345 -0.0436 -0.1740 -0.1101
   58loPI   C1B  925  17.086   5.929  10.190  0.1507 -0.0462 -0.2250
   58loPI   C2B  926  17.015   5.949   9.752 -0.1105 -0.0570 -0.0104
   58loPI   C3B  927  17.002   5.835   9.341  0.2173  0.0228 -0.0988
   58loPI   C4B  928  17.033   5.868   8.899  0.1971  0.1604 -0.1265
   59loPI    C1  929   6.895   3.325  10.912 -0.0730 -0.0329  0.1790
   59loPI    C2  930   7.060   3.673  10.804 -0.0102 -0.1106  0.0215
   59loPI    C3  931   6.776   3.665  11.086  0.0403  0.0590  0.0783
   59loPI   PO4  932   6.850   3.251  10.666 -0.4018 -0.1303 -0.0740
   59loPI   GL1  933   6.780   3.342  10.208 -0.0315 -0.1769  0.0121
   59loPI   GL2  934   7.016   3.500  10.058 -0.0205 -0.2881 -0.2267
   59loPI   C1A  935   6.584   3.425   9.827  0.0128 -0.0707 -0.2503
   59loPI   C2A  936   6.742   3.335   9.377  0.0755 -0.1635  0.1469
   59loPI   C3A  937   6.753   3.407   8.969  0.0159 -0.0486  0.0029
   59loPI   C4A  938   6.661   3.474   8.434  0.0358 -0.2864 -0.1540
   59loPI   C5A  939   6.669   3.139   8.027 -0.0149 -0.0593  0.1242
   59loPI   C6A  940   6.620   2.782   7.732  0.2137 -0.0850  0.0856
   59loPI   C1B  941   7.029   3.677   9.673  0.0146  0.0336 -0.1835
   59loPI   C2B  942   7.174   3.639   9.277  0.0795 -0.3236  0.0871
   59loPI   C3B  943   7.205   3.629   8.907 -0.1872  0.0896 -0.0382
   59loPI   C4B  944   7.135   3.685   8.491 -0.0995  0.0453  0.1038
   60loPI    C1  945   2.325  15.751  11.177  0.0808 -0.1989  0.0872
   60loPI    C2  946   2.261  16.018  11.467  0.2917 -0.0814  0.0272
   60loPI    C3  947   2.349  15.640  11.561  0.1353 -0.0975  0.1133
   60loPI   PO4  948   2.328  15.967  10.950  0.0873  0.0095  0.1356
   60loPI   GL1  949   2.359  16.008  10.547  0.0132  0.1761 -0.1484
   60loPI   GL2  950   2.533  15.849  10.340  0.1249 -0.3534 -0.1541
   60loPI   C1A  951   2.074  16.107  10.155 -0.1011  0.0179 -0.1422
   60loPI   C2A  952   2.054  16.132   9.748  0.1193 -0.0399  0.1880
   60loPI   C3A  953   2.114  16.170   9.368 -0.0799 -0.2095  0.1699
   60loPI   C4A  954   2.153  16.287   8.900 -0.1149  0.0115 -0.0703
   60loPI   C5A  955   2.103  16.469   8.438 -0.2216 -0.2297  0.1669
   60loPI   C6A  956   2.037  16.779   8.224 -0.3687 -0.2874 -0.1677
   60loPI   C1B  957   2.497  15.771   9.963 -0.1309  0.0356  0.1717
   60loPI   C2B  958   2.543  15.852   9.532  0.1050  0.0036 -0.0323
   60loPI   C3B  959   2.545  15.995   9.167 -0.2632  0.3377 -0.2457
   60loPI   C4B  960   2.509  15.921   8.739  0.4157 -0.0022 -0.2079
   61loPI    C1  961   9.381   7.747  11.347  0.0976 -0.3594  0.2906
   61loPI    C2  962   9.719   7.899  11.498  0.0460  0.0550  0.0076
   61loPI    C3  963   9.367   8.065  11.590 -0.0445 -0.1125 -0.0333
   61loPI   PO4  964   9.392   7.783  11.090  0.2593 -0.5074  0.1330
   61loPI   GL1  965   9.179   7.866  10.782  0.1600  0.0015 -0.2478
   61loPI   GL2  966   9.002   7.600  10.624  0.2734  0.2303  0.0542
   61loPI   C1A  967   9.419   7.880  10.373 -0.1233  0.1077 -0.2402
   61loPI   C2A  968   9.441   7.914  10.004  0.4888  0.1396  0.1783
   61loPI   C3A  969   9.508   7.933   9.700 -0.0042  0.2917  0.1090
   61loPI   C4A  970   9.646   8.022   9.258 -0.0596  0.0697 -0.2769
   61loPI   C5A  971   9.563   8.033   8.817 -0.1542 -0.0581 -0.0210
   61loPI   C6A  972   9.677   7.830   8.433 -0.0088  0.0257 -0.0282
   61loPI   C1B  973   9.014   7.635  10.156 -0.2023 -0.2765 -0.0943
   61loPI   C2B  974   9.077   7.663   9.704 -0.0432  0.0941 -0.0647
   61loPI   C3B  975   9.219   7.751   9.199 -0.3469  0.0976 -0.3086
   61loPI   C4B  976   9.232   7.645   8.829 -0.0152 -0.3042 -0.0016
   62loPI    C1  977  16.833   6.099  11.013 -0.0495  0.1684 -0.0462
   62loPI    C2  978  16.653   6.351  11.266 -0.4212 -0.1387  0.0060
   62loPI    C3  979  16.676   5.962  11.355  0.0555 -0.1459 -0.1202
   62loPI   PO4  980  16.769   6.243  10.747  0.2074 -0.0918  0.0122
   62loPI   GL1  981  16.698   6.058  10.426  0.1753 -0.0722  0.2019
   62loPI   GL2  982  16.594   5.684  10.427  0.1536  0.2942  0.2778
   62loPI   C1A  983  16.641   6.259   9.985  0.0845 -0.2622  0.0509
   62loPI   C2A  984  16.664   6.129   9.514  0.1984  0.1673  0.0660
   62loPI   C3A  985  16.625   6.128   9.107 -0.0032  0.1846 -0.1544
   62loPI   C4A  986  16.660   6.166   8.613  0.0825  0.2064 -0.3638
   62loPI   C5A  987  16.448   6.004   8.288 -0.0381  0.0787 -0.1758
   62loPI   C6A  988  16.464   6.004   7.871  0.1042 -0.1428  0.0612
   62loPI   C1B  989  16.583   5.761  10.024  0.1761  0.1866 -0.2118
   62loPI   C2B  990  16.631   5.617   9.588 -0.2207  0.2566 -0.2810
   62loPI   C3B  991  16.596   5.595   9.160 -0.2118 -0.0233 -0.0650
   62loPI   C4B  992  16.574   5.706   8.739 -0.0337  0.3891  0.3122
   63loPI    C1  993   7.224   2.374  10.612  0.4367 -0.2734  0.0586
   63loPI    C2  994   7.243   1.975  10.592 -0.2677 -0.3223  0.1017
   63loPI    C3  995   7.044   2.150  10.892  0.0391  0.0668  0.0851
   63loPI   PO4  996   7.111   2.388  10.295  0.2250 -0.3251 -0.0863
   63loPI   GL1  997   7.085   2.717   9.994 -0.3067  0.1288  0.0067
   63loPI   GL2  998   7.160   3.045  10.095  0.4766 -0.0063  0.1762
   63loPI   C1A  999   7.141   2.647   9.579 -0.1390 -0.1183  0.2429
   63loPI   C2A 1000   7.178   2.673   9.095  0.1143 -0.0179 -0.2579
   63loPI   C3A 1001   7.153   2.599   8.663 -0.0124 -0.1729 -0.1115
   63loPI   C4A 1002   7.097   2.715   8.247  0.1188  0.2266 -0.4086
   63loPI   C5A 1003   7.143   2.596   7.778 -0.0161  0.2024 -0.1165
   63loPI   C6A 1004   6.931   2.320   7.592  0.3360  0.1630 -0.0468
   63loPI   C1B 1005   7.053   3.118   9.713 -0.1616  0.4162  0.0252
   63loPI   C2B 1006   7.194   3.127   9.264 -0.0534 -0.2509 -0.0653
   63loPI   C3B 1007   7.184   3.154   8.752 -0.0202  0.2714 -0.1615
   63loPI   C4B 1008   7.096   3.232   8.360  0.0311 -0.2414  0.0532
   64loPI    C1 1009  10.123   7.334  11.193  0.0359  0.2327 -0.0589
   64loPI    C2 1010   9.746   7.372  11.321 -0.0088 -0.0760 -0.0919
   64loPI    C3 1011  10.049   7.504  11.547 -0.1391  0.2448 -0.1006
   64loPI   PO4 1012  10.142   7.345  10.965  0.0459 -0.2446  0.1578
   64loPI   GL1 1013  10.466   7.549  10.762 -0.1762  0.1140  0.1875
   64loPI   GL2 1014  10.685   7.368  10.900 -0.3316 -0.0471 -0.0711
   64loPI   C1A 1015  10.428   7.760  10.392 -0.0045 -0.0013 -0.1934
   64loPI   C2A 1016  10.447   7.912   9.916  0.2144  0.1789  0.1541
   64loPI   C3A 1017  10.438   7.948   9.531 -0.3564  0.1752  0.0265
   64loPI   C4A 1018  10.449   7.891   9.005  0.0862  0.3239  0.1699
   64loPI   C5A 1019  10.372   7.815   8.627  0.0711 -0.0733 -0.1407
   64loPI   C6A 1020  10.174   7.469   8.430 -0.0995 -0.2122  0.1392
   64loPI   C1B 1021  10.905   7.200  10.527 -0.1600  0.2228 -0.0521
   64loPI   C2B 1022  10.965   7.079  10.122 -0.0533 -0.3646  0.0029
   64loPI   C3B 1023  10.842   7.037   9.707 -0.2531 -0.0140 -0.3056
   64loPI   C4B 1024  10.787   7.066   9.271  0.0563  0.1122 -0.0011
   65loPI    C1 1025   0.958  12.082  10.349  0.1396  0.1483 -0.0954
   65loPI    C2 1026   0.850  11.811  10.624  0.2345 -0.0373 -0.2392
   65loPI    C3 1027   0.950  12.182  10.737  0.1027 -0.0609 -0.0410
   65loPI   PO4 1028   1.113  11.971  10.133 -0.1315 -0.1229  0.0048
   65loPI   GL1 1029   1.443  12.117   9.833  0.1418  0.1046 -0.1286
   65loPI   GL2 1030   1.747  12.222   9.693 -0.3019  0.3432 -0.1364
   65loPI   C1A 1031   1.360  11.902   9.392 -0.2245  0.1853 -0.1905
   65loPI   C2A 1032   1.307  11.767   8.996  0.1385 -0.0793  0.0351
   65loPI   C3A 1033   1.417  11.728   8.603 -0.0899 -0.1858 -0.1314
   65loPI   C4A 1034   1.486  12.001   8.305 -0.3860  0.0681 -0.2755
   65loPI   C5A 1035   1.520  11.955   7.865  0.1733  0.2012  0.2637
   65loPI   C6A 1036   1.354  12.363   7.550  0.0786 -0.0477  0.0731
   65loPI   C1B 1037   1.957  12.152   9.316  0.1176  0.1778  0.2274
   65loPI   C2B 1038   1.928  12.220   8.909  0.0084 -0.1355  0.1245
   65loPI   C3B 1039   1.903  12.236   8.478  0.1578  0.1495 -0.1206
   65loPI   C4B 1040   1.845  12.286   8.041  0.3238 -0.0391 -0.1862
   66loPI    C1 1041  14.121   6.635  10.946 -0.1358  0.1683  0.2973
   66loPI    C2 1042  14.453   6.591  11.165 -0.0497  0.1600  0.1663
   66loPI    C3 1043  14.095   6.603  11.344  0.0049 -0.0372  0.2912
   66loPI   PO4 1044  14.218   6.513  10.732  0.0354  0.0151 -0.0052
   66loPI   GL1 1045  14.477   6.367  10.422  0.1068  0.1580 -0.3916
   66loPI   GL2 1046  14.341   6.638  10.249 -0.1187  0.2186 -0.0864
   66loPI   C1A 1047  14.773   6.304  10.100  0.1694 -0.1905 -0.1176
   66loPI   C2A 1048  14.800   6.209   9.654  0.1862 -0.1137  0.2495
   66loPI   C3A 1049  14.812   6.242   9.188  0.1851  0.0668  0.0551
   66loPI   C4A 1050  14.869   6.254   8.782 -0.2093 -0.1578 -0.1706
   66loPI   C5A 1051  15.174   6.093   8.441  0.0090  0.2537 -0.0893
   66loPI   C6A 1052  15.303   5.845   8.223 -0.0686  0.1764 -0.2574
   66loPI   C1B 1053  14.423   6.470   9.761  0.0175  0.2092 -0.0841
   66loPI   C2B 1054  14.414   6.527   9.311 -0.1222 -0.2076  0.1874
   66loPI   C3B 1055  14.510   6.546   8.848  0.1335 -0.1780 -0.2672
   66loPI   C4B 1056  14.725   6.534   8.418  0.0416 -0.1073 -0.1568
   67loPI    C1 1057   5.316  13.450  10.488  0.0573 -0.0949 -0.1579
   67loPI    C2 1058   5.671  13.455  10.672  0.0405 -0.0704 -0.1259
   67loPI    C3 1059   5.491  13.799  10.574 -0.0456 -0.0801 -0.0038
   67loPI   PO4 1060   5.317  13.250  10.317 -0.0357 -0.2965 -0.0862
   67loPI   GL1 1061   5.474  13.051   9.927  0.2580 -0.2496  0.1127
   67loPI   GL2 1062   5.324  12.791   9.849  0.0710  0.2310 -0.0489
   67loPI   C1A 1063   5.771  13.187   9.513  0.2805 -0.3072 -0.0839
   67loPI   C2A 1064   5.741  13.137   9.134 -0.0716  0.4651 -0.1737
   67loPI   C3A 1065   5.745  13.131   8.689 -0.0620 -0.0561 -0.2922
   67loPI   C4A 1066   5.660  13.268   8.188  0.0766 -0.1717  0.2723
   67loPI   C5A 1067   5.333  13.382   7.826 -0.3370  0.2688  0.3119
   67loPI   C6A 1068   5.237  13.708   7.561 -0.1095 -0.2242  0.2423
   67loPI   C1B 1069   5.349  12.916   9.418  0.0772 -0.0661  0.1481
   67loPI   C2B 1070   5.281  12.885   8.972  0.0179  0.0309 -0.1797
   67loPI   C3B 1071   5.304  12.997   8.573  0.1108  0.2532  0.0053
   67loPI   C4B 1072   5.106  13.050   8.164 -0.0756 -0.2029 -0.1023
   68loPI    C1 1073   6.359   0.298  10.759  0.0269  0.3348  0.0669
   68loPI    C2 1074   6.088   0.543  10.921 -0.1959  0.0760  0.0924
   68loPI    C3 1075   6.355   0.357  11.154 -0.1288  0.1708  0.0914
   68loPI   PO4 1076   6.225   0.324  10.472  0.3433 -0.1206  0.1391
   68loPI   GL1 1077   6.170   0.549  10.111  0.0715  0.0257  0.1651
   68loPI   GL2 1078   6.332   0.849  10.157  0.0223 -0.1793  0.3020
   68loPI   C1A 1079   6.106   0.606   9.718 -0.1919  0.3757 -0.0279
   68loPI   C2A 1080   6.064   0.664   9.266 -0.1351 -0.2136 -0.1304
   68loPI   C3A 1081   6.037   0.538   8.954 -0.0210  0.0630  0.0718
   68loPI   C4A 1082   5.969   0.456   8.512 -0.0045  0.0620 -0.0337
   68loPI   C5A 1083   5.888   0.725   8.124  0.2035 -0.0643  0.0664
   68loPI   C6A 1084   5.451   0.842   8.018 -0.0851 -0.0807  0.1273
   68loPI   C1B 1085   6.214   1.083   9.736  0.1374 -0.3200 -0.3792
   68loPI   C2B 1086   6.210   1.148   9.409  0.3693 -0.0813  0.1645
   68loPI   C3B 1087   6.109   1.163   9.021 -0.1292  0.0699  0.0795
   68loPI   C4B 1088   6.006   0.989   8.600  0.1506  0.0387  0.1560
   69loPI    C1 1089   3.868  14.688  10.831 -0.0419 -0.1152  0.1852
   69loPI    C2 1090   3.501  14.546  10.903 -0.0127 -0.2633  0.0490
   69loPI    C3 1091   3.817  14.384  11.086  0.0107 -0.3087 -0.0311
   69loPI   PO4 1092   3.860  14.731  10.513 -0.0556  0.1221 -0.1498
   69loPI   GL1 1093   3.712  14.942  10.198 -0.0597 -0.0983 -0.0938
   69loPI   GL2 1094   3.628  15.325  10.172  0.1301 -0.0315 -0.0736
   69loPI   C1A 1095   3.577  14.745   9.890 -0.0266  0.1462 -0.2189
   69loPI   C2A 1096   3.694  14.831   9.538 -0.2576 -0.0652  0.0419
   69loPI   C3A 1097   3.688  14.822   9.042 -0.0992  0.1110  0.0941
   69loPI   C4A 1098   3.644  14.880   8.656  0.2789 -0.2281 -0.0434
   69loPI   C5A 1099   3.559  14.863   8.302 -0.4899  0.0983  0.1258
   69loPI   C6A 1100   3.114  14.764   8.234 -0.0628  0.3837 -0.1311
   69loPI   C1B 1101   3.740  15.302   9.827  0.1324  0.1284 -0.1459
   69loPI   C2B 1102   3.798  15.262   9.363  0.0917  0.2412  0.0677
   69loPI   C3B 1103   3.789  15.426   8.894  0.4614 -0.0189 -0.0281
   69loPI   C4B 1104   3.773  15.432   8.505 -0.0717 -0.2573 -0.2971
   70loPI    C1 1105  16.357   0.431  11.298 -0.0002  0.2081 -0.1646
   70loPI    C2 1106  16.583   0.523  11.615 -0.1970  0.2600 -0.0375
   70loPI    C3 1107  16.284   0.765  11.506 -0.2155  0.1734 -0.1817
   70loPI   PO4 1108  16.450   0.421  11.137  0.2601  0.3607  0.0019
   70loPI   GL1 1109  16.415   0.224  10.768  0.2722  0.1654 -0.3400
   70loPI   GL2 1110  16.165   0.109  10.779 -0.0484  0.3647  0.0760
   70loPI   C1A 1111  16.455   0.426  10.421  0.1352  0.0647  0.2692
   70loPI   C2A 1112  16.419   0.476   9.930 -0.0529  0.0696 -0.2897
   70loPI   C3A 1113  16.294   0.464   9.584 -0.0229  0.0130 -0.1807
   70loPI   C4A 1114  16.432   0.551   9.154 -0.2386  0.1591  0.1742
   70loPI   C5A 1115  16.449   0.423   8.726 -0.0237 -0.2124  0.0685
   70loPI   C6A 1116  16.309   0.097   8.464  0.1093 -0.1668 -0.1920
   70loPI   C1B 1117  15.882   0.252  10.440  0.0853 -0.0347 -0.2103
   70loPI   C2B 1118  15.854   0.380   9.976 -0.0396  0.0156 -0.0769
   70loPI   C3B 1119  15.854   0.276   9.605 -0.0829 -0.0561 -0.3336
   70loPI   C4B 1120  15.970   0.320   9.220 -0.2345 -0.0236 -0.0735
   71loPI    C1 1121  10.625  14.077  10.812  0.0044 -0.0818  0.1707
   71loPI    C2 1122  10.351  13.808  10.922  0.1455 -0.2340  0.1526
   71loPI    C3 1123  10.688  13.848  11.134  0.0936 -0.0209  0.1967
   71loPI   PO4 1124  10.618  14.038  10.599  0.0146  0.1660  0.3184
   71loPI   GL1 1125  10.621  13.700  10.344  0.1916 -0.2546  0.0895
   71loPI   GL2 1126  10.929  13.616  10.351  0.0289  0.1067  0.0543
   71loPI   C1A 1127  10.729  13.946   9.915  0.4103  0.3006  0.2906
   71loPI   C2A 1128  10.901  14.131   9.559 -0.3305 -0.1354  0.0023
   71loPI   C3A 1129  10.985  14.187   9.138 -0.0386 -0.0620 -0.1100
   71loPI   C4A 1130  10.860  14.243   8.682  0.0217 -0.1351  0.0193
   71loPI   C5A 1131  10.856  14.327   8.247  0.0172  0.1829 -0.2732
   71loPI   C6A 1132  10.773  13.972   8.029  0.5669 -0.0696  0.1250
   71loPI   C1B 1133  10.845  13.369  10.031 -0.0211  0.1637  0.0409
   71loPI   C2B 1134  10.951  13.546   9.652  0.0040  0.3147  0.0553
   71loPI   C3B 1135  10.912  13.708   9.283 -0.1136 -0.0519 -0.0905
   71loPI   C4B 1136  10.824  13.753   8.930 -0.2736  0.0009  0.1545
   72loPI    C1 1137  10.831   1.168  10.670 -0.2439 -0.2488 -0.0402
   72loPI    C2 1138  10.831   0.910  10.976  0.2200  0.0392  0.2140
   72loPI    C3 1139  10.639   1.260  11.008  0.0532 -0.0382  0.0756
   72loPI   PO4 1140  11.070   1.149  10.592  0.1420 -0.2248  0.0986
   72loPI   GL1 1141  11.399   1.323  10.295 -0.1149  0.3143  0.2223
   72loPI   GL2 1142  11.477   1.588  10.186  0.1657  0.1603  0.1272
   72loPI   C1A 1143  11.504   1.237   9.870 -0.0861  0.2461  0.2365
   72loPI   C2A 1144  11.450   1.327   9.435  0.2883  0.0229 -0.2405
   72loPI   C3A 1145  11.422   1.400   9.010 -0.1251  0.1084 -0.2961
   72loPI   C4A 1146  11.500   1.481   8.593  0.1789 -0.0976  0.2705
   72loPI   C5A 1147  11.566   1.187   8.275 -0.1670  0.2961 -0.2836
   72loPI   C6A 1148  11.828   0.828   8.225  0.0007 -0.0403 -0.1008
   72loPI   C1B 1149  11.500   1.784   9.740 -0.2589 -0.1996 -0.0175
   72loPI   C2B 1150  11.449   1.829   9.256  0.2032  0.1197  0.1034
   72loPI   C3B 1151  11.552   1.936   8.881  0.1307  0.0605  0.2603
   72loPI   C4B 1152  11.414   1.930   8.481 -0.1508  0.0496  0.2086
   73loPI    C1 1153   8.412  10.324  11.274  0.2173  0.0853 -0.3191
   73loPI    C2 1154   8.691  10.589  11.383  0.0505  0.1728 -0.0983
   73loPI    C3 1155   8.318  10.620  11.526 -0.0203 -0.0661 -0.2262
   73loPI   PO4 1156   8.432  10.361  11.022 -0.0705  0.0831 -0.0375
   73loPI   GL1 1157   8.112  10.305  10.592  0.1030 -0.0536 -0.0235
   73loPI   GL2 1158   7.920  10.384  10.553 -0.2179  0.1020  0.0811
   73loPI   C1A 1159   8.263  10.208  10.201 -0.2155  0.0217 -0.1560
   73loPI   C2A 1160   8.253  10.214   9.862  0.1655 -0.2824 -0.1180
   73loPI   C3A 1161   8.243  10.257   9.366  0.1988 -0.1234  0.2870
   73loPI   C4A 1162   8.274  10.260   8.894 -0.2858 -0.1262  0.2006
   73loPI   C5A 1163   8.362  10.343   8.438 -0.0168 -0.0050 -0.1210
   73loPI   C6A 1164   8.215  10.237   8.041 -0.2347 -0.0093  0.0855
   73loPI   C1B 1165   7.826  10.456  10.076  0.0609  0.1672  0.0270
   73loPI   C2B 1166   7.775  10.441   9.599 -0.1384 -0.1018  0.0682
   73loPI   C3B 1167   7.755  10.546   9.182 -0.1521  0.0996 -0.1739
   73loPI   C4B 1168   7.864  10.503   8.745 -0.0255 -0.3132  0.0947
   74loPI    C1 1169   1.239  12.485  10.090  0.0005 -0.0593  0.1588
   74loPI    C2 1170   1.637  12.509  10.055 -0.0034  0.1217  0.2301
   74loPI    C3 1171   1.475  12.317  10.366  0.0271 -0.2498  0.0228
   74loPI   PO4 1172   1.143  12.495   9.858 -0.4276  0.1212  0.2808
   74loPI   GL1 1173   1.383  12.611   9.595  0.1235 -0.0579  0.4305
   74loPI   GL2 1174   1.493  12.913   9.573  0.0738  0.0806 -0.0444
   74loPI   C1A 1175   1.508  12.355   9.196 -0.1215  0.0522 -0.0027
   74loPI   C2A 1176   1.473  12.316   8.760  0.2058 -0.2971 -0.0320
   74loPI   C3A 1177   1.364  12.502   8.380 -0.0730 -0.0716  0.2764
   74loPI   C4A 1178   1.536  12.699   8.026  0.0148 -0.0682 -0.0754
   74loPI   C5A 1179   1.802  12.697   7.642 -0.1449  0.3265  0.2728
   74loPI   C6A 1180   2.089  12.983   7.562  0.0811  0.0471  0.0645
   74loPI   C1B 1181   1.605  13.131   9.179 -0.1844  0.2484 -0.1397
   74loPI   C2B 1182   1.594  13.172   8.741  0.1428 -0.0768  0.3231
   74loPI   C3B 1183   1.621  13.156   8.368  0.2851  0.1096 -0.0653
   74loPI   C4B 1184   1.647  13.252   7.983 -0.3345 -0.2430  0.0933
   75loPI    C1 1185   4.657   2.132  10.997  0.1916  0.1326 -0.1384
   75loPI    C2 1186   4.760   2.407  11.269 -0.1802 -0.1082  0.2601
   75loPI    C3 1187   5.018   2.118  11.169 -0.0021  0.0441  0.2742
   75loPI   PO4 1188   4.591   2.229  10.781  0.3181 -0.2597 -0.3358
   75loPI   GL1 1189   4.570   2.460  10.487  0.1193  0.1236 -0.0435
   75loPI   GL2 1190   4.398   2.271  10.315  0.2022 -0.3030 -0.1202
   75loPI   C1A 1191   4.795   2.362  10.071 -0.2178  0.1408  0.1066
   75loPI   C2A 1192   4.811   2.341   9.641 -0.0695 -0.3947 -0.3514
   75loPI   C3A 1193   4.833   2.337   9.208 -0.0916  0.1116  0.1281
   75loPI   C4A 1194   4.809   2.290   8.721 -0.3774 -0.1464 -0.0699
   75loPI   C5A 1195   4.902   2.524   8.370 -0.0435  0.1422  0.2266
   75loPI   C6A 1196   5.134   2.424   7.905 -0.1119  0.1358 -0.0501
   75loPI   C1B 1197   4.382   2.626  10.000 -0.3048  0.1357  0.1341
   75loPI   C2B 1198   4.413   2.616   9.538 -0.0951 -0.1268 -0.2197
   75loPI   C3B 1199   4.418   2.537   9.060  0.1027 -0.0260 -0.3281
   75loPI   C4B 1200   4.432   2.723   8.583 -0.1565 -0.0902  0.0415
   76loPI    C1 1201   5.006   9.648  10.721 -0.1143 -0.1447  0.2787
   76loPI    C2 1202   5.259   9.353  10.815 -0.1445 -0.0835  0.5605
   76loPI    C3 1203   5.282   9.704  11.005  0.0369  0.1766  0.0727
   76loPI   PO4 1204   5.040   9.631  10.445 -0.1617 -0.1259  0.1477
   76loPI   GL1 1205   5.242   9.411  10.183  0.1409 -0.2702  0.0955
   76loPI   GL2 1206   4.981   9.146  10.199 -0.0143 -0.0504  0.0874
   76loPI   C1A 1207   5.511   9.445   9.769  0.1021  0.0857  0.1452
   76loPI   C2A 1208   5.586   9.334   9.328 -0.2374  0.1343  0.0256
   76loPI   C3A 1209   5.520   9.390   8.867  0.0308  0.0082  0.0990
   76loPI   C4A 1210   5.527   9.337   8.412  0.0988  0.1433 -0.4142
   76loPI   C5A 1211   5.315   9.141   8.059  0.1362  0.0613 -0.2756
   76loPI   C6A 1212   4.963   9.085   7.770  0.1376 -0.0690  0.0432
   76loPI   C1B 1213   5.025   9.183   9.846  0.0861  0.2775  0.1406
   76loPI   C2B 1214   5.046   9.155   9.469  0.2449  0.0467 -0.1461
   76loPI   C3B 1215   5.137   9.057   9.061  0.0645 -0.2137 -0.0581
   76loPI   C4B 1216   5.234   8.984   8.619  0.2088 -0.0239  0.3201
   77loPI    C1 1217   0.026   2.436  10.823 -0.0049  0.1315 -0.1401
   77loPI    C2 1218   0.230   2.174  10.599  0.1123  0.2751 -0.2034
   77loPI    C3 1219   0.355   2.262  10.969 -0.0766  0.0440 -0.0814
   77loPI   PO4 1220  -0.209   2.361  10.856  0.0072  0.3196  0.1605
   77loPI   GL1 1221  -0.496   2.353  10.609 -0.0986 -0.0777 -0.0649
   77loPI   GL2 1222  -0.614   2.536  10.411 -0.1166 -0.1894 -0.0683
   77loPI   C1A 1223  -0.200   2.220  10.201 -0.2352 -0.2884 -0.1582
   77loPI   C2A 1224  -0.223   2.107   9.874 -0.2361  0.2811  0.1155
   77loPI   C3A 1225  -0.150   2.084   9.356 -0.4628  0.0718 -0.0351
   77loPI   C4A 1226  -0.167   2.247   8.914 -0.0860  0.0206 -0.0564
   77loPI   C5A 1227  -0.180   2.073   8.496 -0.1090  0.0356  0.0778
   77loPI   C6A 1228   0.019   1.967   8.085 -0.1356  0.0185  0.1907
   77loPI   C1B 1229  -0.584   2.584  10.039  0.0660  0.1782  0.3085
   77loPI   C2B 1230  -0.546   2.435   9.649  0.2233  0.3462 -0.2909
   77loPI   C3B 1231  -0.562   2.405   9.283 -0.4240 -0.0546 -0.1555
   77loPI   C4B 1232  -0.644   2.430   8.808 -0.0202 -0.0719 -0.2348
   78loPI    C1 1233  16.263  11.171  10.982  0.1395 -0.0655  0.0472
   78loPI    C2 1234  16.335  11.561  10.927  0.0318 -0.0602 -0.0592
   78loPI    C3 1235  15.992  11.442  11.096 -0.0815 -0.1218 -0.3267
   78loPI   PO4 1236  16.440  11.101  10.728 -0.2416 -0.0177  0.1559
   78loPI   GL1 1237  16.471  11.168  10.296  0.0808  0.0601  0.2232
   78loPI   GL2 1238  16.469  11.515  10.387  0.4086  0.2978  0.0519
   78loPI   C1A 1239  16.340  11.182   9.926  0.0435  0.0361 -0.3560
   78loPI   C2A 1240  16.428  11.024   9.545  0.1410 -0.0887  0.3869
   78loPI   C3A 1241  16.623  10.836   9.175  0.0196  0.0282 -0.1727
   78loPI   C4A 1242  16.819  10.788   8.736 -0.0907  0.0013  0.0163
   78loPI   C5A 1243  17.060  10.805   8.414 -0.1893 -0.1186 -0.3720
   78loPI   C6A 1244  17.098  10.918   8.064  0.0938 -0.2829  0.3549
   78loPI   C1B 1245  16.715  11.490   9.995 -0.0391  0.2405 -0.0717
   78loPI   C2B 1246  16.675  11.481   9.505  0.3895  0.1400  0.2121
   78loPI   C3B 1247  16.384  11.329   9.144  0.0584 -0.0929 -0.0027
   78loPI   C4B 1248  16.300  11.076   8.776 -0.4086  0.1506  0.1929
   79loPI    C1 1249   9.373  15.774  10.902  0.2181  0.0247 -0.0269
   79loPI    C2 1250   9.442  15.419  11.074 -0.0926  0.0516  0.1614
   79loPI    C3 1251   9.482  15.756  11.286 -0.2626  0.0990  0.1199
   79loPI   PO4 1252   9.235  15.586  10.663 -0.0790 -0.0341 -0.1065
   79loPI   GL1 1253   9.484  15.514  10.243  0.0479 -0.2799  0.4457
   79loPI   GL2 1254   9.791  15.632  10.189 -0.0463 -0.2526  0.0778
   79loPI   C1A 1255   9.230  15.465   9.817 -0.0893  0.1089 -0.1233
   79loPI   C2A 1256   9.355  15.542   9.321  0.3868 -0.0816 -0.1262
   79loPI   C3A 1257   9.506  15.606   8.974  0.0564  0.0024  0.0919
   79loPI   C4A 1258   9.407  15.573   8.586 -0.0657 -0.0281  0.0988
   79loPI   C5A 1259   9.337  15.290   8.228 -0.1552 -0.2777  0.1023
   79loPI   C6A 1260   9.253  14.863   8.145 -0.1072 -0.0002 -0.0171
   79loPI   C1B 1261   9.692  15.673   9.746 -0.1431  0.2281  0.1301
   79loPI   C2B 1262   9.820  15.742   9.334 -0.1705  0.0012 -0.4267
   79loPI   C3B 1263   9.989  15.763   8.871  0.1158  0.2644 -0.0294
   79loPI   C4B 1264   9.943  15.792   8.412 -0.0727 -0.3198 -0.1730
   80loPI    C1 1265  11.192  14.222  10.935  0.0214  0.1468 -0.0269
   80loPI    C2 1266  11.081  14.412  11.269  0.0977 -0.2675  0.2411
   80loPI    C3 1267  11.469  14.367  11.184  0.0783  0.0372 -0.0256
   80loPI   PO4 1268  11.048  14.297  10.734 -0.1058 -0.1512  0.3377
   80loPI   GL1 1269  11.237  14.577  10.450  0.1927 -0.0889 -0.0017
   80loPI   GL2 1270  11.048  14.737  10.176 -0.1941 -0.0928  0.4211
   80loPI   C1A 1271  11.455  14.387  10.106  0.0781  0.1039 -0.0141
   80loPI   C2A 1272  11.603  14.303   9.664  0.2272 -0.0188 -0.2009
   80loPI   C3A 1273  11.401  14.387   9.308  0.0384 -0.1285 -0.0414
   80loPI   C4A 1274  11.373  14.331   8.836  0.1218  0.1106 -0.1048
   80loPI   C5A 1275  11.400  14.384   8.361 -0.0698  0.0023  0.1525
   80loPI   C6A 1276  11.244  14.408   7.936  0.1945 -0.0338  0.0974
   80loPI   C1B 1277  11.122  14.647   9.745 -0.1079  0.0158  0.0216
   80loPI   C2B 1278  11.114  14.864   9.186  0.1055  0.2040 -0.1697
   80loPI   C3B 1279  10.999  14.689   8.790  0.3230  0.1479 -0.2010
   80loPI   C4B 1280  11.027  14.811   8.379  0.0609  0.3203  0.1688
   81loPI    C1 1281   1.677   8.442  10.776  0.4007  0.0078 -0.0831
   81loPI    C2 1282   1.828   8.477  11.144 -0.1935 -0.0082  0.1748
   81loPI    C3 1283   1.779   8.115  10.982  0.4091  0.0122 -0.0804
   81loPI   PO4 1284   1.434   8.556  10.786  0.1278  0.1167  0.1689
   81loPI   GL1 1285   1.287   8.605  10.398 -0.0353  0.0241  0.0337
   81loPI   GL2 1286   0.969   8.464  10.340  0.0189 -0.0237 -0.0659
   81loPI   C1A 1287   1.395   8.767  10.039 -0.1981  0.0139  0.1863
   81loPI   C2A 1288   1.406   8.786   9.619 -0.3275 -0.1715  0.0592
   81loPI   C3A 1289   1.418   8.750   9.149 -0.2438  0.2322 -0.0274
   81loPI   C4A 1290   1.412   8.738   8.701 -0.0905 -0.2222 -0.0355
   81loPI   C5A 1291   1.273   8.654   8.369 -0.1249 -0.2062 -0.2201
   81loPI   C6A 1292   1.205   8.674   7.906  0.2451 -0.0780 -0.0359
   81loPI   C1B 1293   0.954   8.548   9.945 -0.0037 -0.4117 -0.1363
   81loPI   C2B 1294   0.986   8.523   9.508 -0.2202  0.0349 -0.1075
   81loPI   C3B 1295   0.897   8.505   9.084 -0.0341 -0.0506 -0.1779
   81loPI   C4B 1296   0.958   8.449   8.719  0.0758  0.0024 -0.0445
   82loPI    C1 1297   2.001  13.547  10.521  0.0388 -0.0172 -0.0717
   82loPI    C2 1298   2.298  13.318  10.659 -0.0035 -0.0490 -0.0335
   82loPI    C3 1299   2.058  13.181  10.370 -0.0976 -0.0964  0.0666
   82loPI   PO4 1300   2.152  13.793  10.490 -0.2183  0.0416  0.1580
   82loPI   GL1 1301   2.138  14.276  10.313 -0.2125  0.1546 -0.1155
   82loPI   GL2 1302   2.175  14.086  10.075  0.2056 -0.2680 -0.0943
   82loPI   C1A 1303   2.388  14.529  10.035 -0.0534 -0.2269  0.0788
   82loPI   C2A 1304   2.381  14.727   9.705 -0.1108 -0.0140  0.3924
   82loPI   C3A 1305   2.355  14.846   9.346 -0.0712  0.0036 -0.1091
   82loPI   C4A 1306   2.343  14.852   8.896 -0.2198 -0.3263 -0.0813
   82loPI   C5A 1307   2.360  14.824   8.479  0.0278 -0.3216 -0.1412
   82loPI   C6A 1308   2.525  15.076   8.140 -0.0564  0.0216  0.0304
   82loPI   C1B 1309   2.252  14.233   9.652  0.1805 -0.1876  0.1506
   82loPI   C2B 1310   2.261  14.335   9.258 -0.1925  0.0325  0.0927
   82loPI   C3B 1311   2.253  14.325   8.796 -0.1161  0.4777  0.1646
   82loPI   C4B 1312   2.258  14.302   8.387 -0.0571 -0.2891  0.2185
   83loPI    C1 1313   6.458   1.906  10.921 -0.2384  0.0962 -0.1521
   83loPI    C2 1314   6.237   1.574  10.945 -0.0257 -0.0304  0.1107
   83loPI    C3 1315   6.490   1.668  11.241  0.0781  0.2513 -0.0634
   83loPI   PO4 1316   6.287   2.074  10.723  0.0494  0.2539  0.1785
   83loPI   GL1 1317   6.065   2.004  10.251 -0.2547  0.0196 -0.4436
   83loPI   GL2 1318   5.648   2.116  10.332 -0.1656 -0.1777  0.0650
   83loPI   C1A 1319   6.097   2.099   9.840 -0.2839  0.3069 -0.0783
   83loPI   C2A 1320   6.187   2.110   9.371 -0.0659  0.0736 -0.1178
   83loPI   C3A 1321   6.171   2.166   8.847  0.0713  0.3609 -0.4314
   83loPI   C4A 1322   6.184   2.279   8.375  0.1050 -0.3035 -0.1517
   83loPI   C5A 1323   6.000   2.006   8.030 -0.0092 -0.0131 -0.0916
   83loPI   C6A 1324   5.599   1.929   7.793  0.1572  0.0186 -0.1423
   83loPI   C1B 1325   5.652   2.304   9.899 -0.2244 -0.1770  0.2832
   83loPI   C2B 1326   5.726   2.396   9.481  0.2392 -0.0898  0.1251
   83loPI   C3B 1327   5.740   2.371   9.079  0.1319 -0.2750 -0.0417
   83loPI   C4B 1328   5.699   2.448   8.661 -0.0705 -0.0128  0.2229
   84loPI    C1 1329  10.827  11.036  11.101  0.0676 -0.0332 -0.0645
   84loPI    C2 1330  11.063  11.357  11.059 -0.0217  0.0343 -0.0541
   84loPI    C3 1331  11.027  11.179  11.416 -0.0286  0.0570 -0.0435
   84loPI   PO4 1332  10.760  11.060  10.772  0.2716  0.3122  0.0951
   84loPI   GL1 1333  10.929  10.881  10.480  0.0686 -0.1632  0.1002
   84loPI   GL2 1334  10.675  10.802  10.355  0.1739 -0.0334  0.0031
   84loPI   C1A 1335  11.156  11.095  10.117  0.2227  0.1522  0.3328
   84loPI   C2A 1336  11.302  11.331   9.699  0.0819  0.1653  0.0386
   84loPI   C3A 1337  11.438  11.521   9.293 -0.0355 -0.0478 -0.2243
   84loPI   C4A 1338  11.456  11.415   8.897  0.2760 -0.0033 -0.0925
   84loPI   C5A 1339  11.464  11.478   8.406  0.0363  0.0056  0.1937
   84loPI   C6A 1340  11.575  11.537   7.987  0.2650 -0.0919 -0.1875
   84loPI   C1B 1341  10.807  10.756   9.941  0.2082  0.0297 -0.1223
   84loPI   C2B 1342  10.815  10.822   9.446  0.1624 -0.0049  0.0913
   84loPI   C3B 1343  10.907  10.769   9.057  0.0308  0.0191 -0.4878
   84loPI   C4B 1344  10.933  10.608   8.543 -0.0854  0.2383 -0.1076
   85loPI    C1 1345   0.616  12.785  10.206 -0.1286 -0.0599 -0.0919
   85loPI    C2 1346   0.860  12.528  10.391 -0.0382 -0.1154 -0.2852
   85loPI    C3 1347   0.516  12.638  10.564  0.0952 -0.0816 -0.0372
   85loPI   PO4 1348   0.688  12.802   9.904  0.2406 -0.0958  0.1719
   85loPI   GL1 1349   0.726  12.560   9.573 -0.2734 -0.1247 -0.0016
   85loPI   GL2 1350   0.949  12.814   9.498 -0.3131  0.4404 -0.0970
   85loPI   C1A 1351   0.538  12.415   9.168  0.1344 -0.0791 -0.1654
   85loPI   C2A 1352   0.292  12.558   8.821 -0.0314  0.1180  0.2872
   85loPI   C3A 1353   0.017  12.429   8.485 -0.1733  0.0293  0.2409
   85loPI   C4A 1354  -0.440  12.365   8.534  0.0600  0.1227  0.2248
   85loPI   C5A 1355  -0.701  11.895   8.389  0.0986  0.0535 -0.1867
   85loPI   C6A 1356  -0.977  11.808   8.023  0.0074 -0.0032  0.0189
   85loPI   C1B 1357   1.223  12.785   9.115  0.0550  0.2369 -0.0645
   85loPI   C2B 1358   1.262  12.858   8.707 -0.1140 -0.0805 -0.0025
   85loPI   C3B 1359   1.119  12.913   8.264 -0.1067  0.3663 -0.1955
   85loPI   C4B 1360   1.033  12.651   8.026  0.0956  0.2101 -0.1392
   86loPI    C1 1361  14.436  11.198  10.979 -0.1443  0.2017 -0.1581
   86loPI    C2 1362  14.528  11.542  11.162 -0.0402 -0.0268  0.2289
   86loPI    C3 1363  14.145  11.434  11.121 -0.0727  0.1290  0.1148
   86loPI   PO4 1364  14.477  11.222  10.666  0.1178 -0.1644 -0.1411
   86loPI   GL1 1365  14.633  10.924  10.264 -0.0038  0.1781 -0.1053
   86loPI   GL2 1366  14.844  11.175  10.085  0.2537  0.1062  0.1167
   86loPI   C1A 1367  14.642  10.749   9.905 -0.5015  0.3154  0.2240
   86loPI   C2A 1368  14.425  10.662   9.526  0.1451 -0.2851  0.1061
   86loPI   C3A 1369  14.395  10.741   9.132  0.1742 -0.1871  0.0017
   86loPI   C4A 1370  14.466  10.677   8.644  0.1516  0.0097 -0.0310
   86loPI   C5A 1371  14.327  10.745   8.191  0.0477 -0.2542  0.1289
   86loPI   C6A 1372  14.282  10.488   7.878 -0.5153  0.0103  0.0608
   86loPI   C1B 1373  14.913  11.104   9.711  0.2588 -0.0903 -0.1050
   86loPI   C2B 1374  14.886  10.964   9.263  0.2006 -0.1217  0.0264
   86loPI   C3B 1375  14.904  10.916   8.840  0.0659 -0.1219  0.4982
   86loPI   C4B 1376  14.879  10.858   8.357  0.0481 -0.3627 -0.1512
   87loPI    C1 1377   3.135   0.274  10.951  0.1846 -0.1534 -0.0764
   87loPI    C2 1378   3.238   0.411  11.313 -0.2829  0.0485 -0.0131
   87loPI    C3 1379   3.412   0.082  11.166  0.3076  0.2732  0.1578
   87loPI   PO4 1380   3.089   0.479  10.803 -0.1929  0.3696 -0.0975
   87loPI   GL1 1381   3.068   0.506  10.470 -0.1636 -0.0646  0.2048
   87loPI   GL2 1382   2.805   0.294  10.395 -0.1119  0.2794 -0.1521
   87loPI   C1A 1383   3.316   0.646  10.157 -0.1153 -0.5231 -0.0567
   87loPI   C2A 1384   3.334   0.546   9.762 -0.1244 -0.0672  0.1056
   87loPI   C3A 1385   3.241   0.599   9.292 -0.2489  0.0280 -0.0390
   87loPI   C4A 1386   3.304   0.650   8.903 -0.2083 -0.1451  0.1244
   87loPI   C5A 1387   3.418   0.553   8.515 -0.2360  0.1229  0.2393
   87loPI   C6A 1388   3.490   0.510   8.076  0.2444 -0.1578 -0.0580
   87loPI   C1B 1389   2.869   0.399   9.882 -0.1879 -0.0067 -0.1545
   87loPI   C2B 1390   2.893   0.378   9.493 -0.3277  0.2009  0.1966
   87loPI   C3B 1391   2.834   0.472   9.001 -0.0057 -0.1515 -0.0371
   87loPI   C4B 1392   2.805   0.382   8.582  0.1386  0.0477  0.1290
   88loPI    C1 1393  15.193   6.893  11.056  0.1808 -0.0222 -0.1563
   88loPI    C2 1394  14.945   6.613  11.197  0.0138  0.1916 -0.0177
   88loPI    C3 1395  15.228   6.766  11.434  0.1487  0.0934 -0.1139
   88loPI   PO4 1396  15.106   6.908  10.735 -0.0297  0.0251  0.0392
   88loPI   GL1 1397  15.233   7.006  10.258  0.2672 -0.1022 -0.1400
   88loPI   GL2 1398  14.967   7.237  10.223  0.3012  0.0497 -0.1356
   88loPI   C1A 1399  15.321   7.020   9.871 -0.0261 -0.1847  0.1520
   88loPI   C2A 1400  15.201   7.050   9.482 -0.1813 -0.0070 -0.1055
   88loPI   C3A 1401  15.319   6.944   9.065 -0.3573 -0.2209  0.1138
   88loPI   C4A 1402  15.359   6.935   8.611 -0.1573 -0.0396  0.0077
   88loPI   C5A 1403  15.606   6.984   8.215  0.0789  0.3190 -0.2491
   88loPI   C6A 1404  15.937   7.041   8.013  0.1814  0.0917  0.0874
   88loPI   C1B 1405  14.879   7.295   9.810  0.0218  0.2300 -0.0728
   88loPI   C2B 1406  14.801   7.376   9.355  0.0278 -0.0214 -0.3983
   88loPI   C3B 1407  14.910   7.292   8.927  0.2388  0.1012 -0.1160
   88loPI   C4B 1408  14.939   7.294   8.509 -0.2665  0.0281  0.1216
   89loPI    C1 1409   9.826   6.509  11.280 -0.2479  0.2954 -0.0097
   89loPI    C2 1410   9.952   6.801  11.038  0.0329  0.1088 -0.0942
   89loPI    C3 1411   9.907   6.870  11.430  0.1527  0.2490 -0.1045
   89loPI   PO4 1412   9.638   6.420  11.113 -0.1588  0.1927  0.1070
   89loPI   GL1 1413   9.610   6.602  10.746  0.1882 -0.0110 -0.0287
   89loPI   GL2 1414   9.338   6.416  10.670  0.1897 -0.0296  0.3626
   89loPI   C1A 1415   9.962   6.741  10.550 -0.1282  0.4722  0.0538
   89loPI   C2A 1416  10.268   6.824  10.310 -0.0412 -0.1175  0.4125
   89loPI   C3A 1417  10.335   6.872   9.967  0.2488  0.1383 -0.1673
   89loPI   C4A 1418  10.386   6.780   9.473 -0.2316  0.3362  0.1660
   89loPI   C5A 1419  10.364   6.870   8.990  0.6434 -0.2050  0.0926
   89loPI   C6A 1420  10.276   6.880   8.500  0.3176  0.3077  0.0708
   89loPI   C1B 1421   9.484   6.402  10.218 -0.0427 -0.1241 -0.4472
   89loPI   C2B 1422   9.386   6.326   9.756  0.0378 -0.1364  0.0243
   89loPI   C3B 1423   9.387   6.293   9.307  0.2517 -0.2188 -0.3095
   89loPI   C4B 1424   9.353   6.270   8.879 -0.0882  0.1288 -0.0475
   90loPI    C1 1425   5.335  16.037  10.829  0.1415 -0.1274 -0.0685
   90loPI    C2 1426   5.396  15.749  11.099 -0.0574 -0.0498  0.0612
   90loPI    C3 1427   5.656  16.051  11.067  0.0338 -0.1261  0.0777
   90loPI   PO4 1428   5.236  15.968  10.590 -0.1925  0.2337  0.3160
   90loPI   GL1 1429   5.473  15.842  10.253 -0.1072  0.0433 -0.0223
   90loPI   GL2 1430   5.373  15.536  10.300 -0.0736  0.0503  0.2312
   90loPI   C1A 1431   5.286  16.302   9.953  0.0554 -0.0788  0.2744
   90loPI   C2A 1432   5.373  16.332   9.518  0.2851 -0.0089 -0.1487
   90loPI   C3A 1433   5.307  16.428   9.175 -0.1653  0.0881 -0.3421
   90loPI   C4A 1434   5.401  16.435   8.696  0.1354 -0.1406  0.1526
   90loPI   C5A 1435   5.353  16.421   8.251 -0.1624 -0.0546 -0.1137
   90loPI   C6A 1436   5.126  16.647   7.933 -0.3101 -0.1050  0.0011
   90loPI   C1B 1437   5.370  15.546   9.847 -0.2265 -0.1749 -0.3112
   90loPI   C2B 1438   5.535  15.577   9.486  0.1598  0.2192 -0.0059
   90loPI   C3B 1439   5.666  15.546   9.085  0.0094 -0.1891 -0.0490
   90loPI   C4B 1440   5.705  15.644   8.667  0.1298 -0.0551  0.2002
   91loPI    C1 1441   1.071   8.881  10.904 -0.2502  0.1449 -0.4035
   91loPI    C2 1442   0.823   9.028  11.181 -0.0230 -0.2263  0.0083
   91loPI    C3 1443   1.095   8.752  11.282  0.2568 -0.1596 -0.5302
   91loPI   PO4 1444   0.940   8.836  10.699  0.1020 -0.0751  0.0991
   91loPI   GL1 1445   0.954   8.959  10.185 -0.3325  0.1519  0.2066
   91loPI   GL2 1446   0.646   8.896  10.186 -0.1010 -0.0227  0.0029
   91loPI   C1A 1447   0.853   9.052   9.755 -0.1054  0.0938  0.0764
   91loPI   C2A 1448   1.011   9.017   9.320 -0.0378  0.2725 -0.0274
   91loPI   C3A 1449   0.920   8.965   8.872  0.1327  0.3998 -0.0449
   91loPI   C4A 1450   0.866   8.904   8.371  0.3092  0.3043  0.0042
   91loPI   C5A 1451   0.610   8.781   7.981  0.0225  0.0305  0.2227
   91loPI   C6A 1452   0.595   8.947   7.571 -0.4768  0.1625 -0.0452
   91loPI   C1B 1453   0.363   8.815   9.853  0.1572  0.0922 -0.0245
   91loPI   C2B 1454   0.518   8.780   9.398  0.0074  0.2045  0.0559
   91loPI   C3B 1455   0.441   8.671   8.926  0.2780  0.1445  0.0348
   91loPI   C4B 1456   0.346   8.645   8.477 -0.0194  0.2661  0.0349
   92loPI    C1 1457  11.428  16.810  11.188  0.2443 -0.0232 -0.0104
   92loPI    C2 1458  11.369  17.202  11.239 -0.0758 -0.1032  0.2659
   92loPI    C3 1459  11.736  17.049  11.276  0.0710  0.1840  0.0415
   92loPI   PO4 1460  11.295  16.770  10.988 -0.2168  0.0315 -0.2526
   92loPI   GL1 1461  11.410  16.875  10.502 -0.0065  0.1978  0.2108
   92loPI   GL2 1462  11.152  17.046  10.314 -0.1885 -0.1282 -0.0474
   92loPI   C1A 1463  11.528  16.781  10.005  0.0747  0.1584 -0.0094
   92loPI   C2A 1464  11.563  16.765   9.509 -0.5954  0.0733 -0.1398
   92loPI   C3A 1465  11.542  16.844   9.109  0.2287  0.1879 -0.0699
   92loPI   C4A 1466  11.622  16.769   8.798 -0.1547 -0.0280 -0.0364
   92loPI   C5A 1467  11.634  16.630   8.424  0.1967  0.0038  0.1641
   92loPI   C6A 1468  11.490  16.499   8.050 -0.0801  0.1520  0.1808
   92loPI   C1B 1469  11.118  17.084   9.804  0.0915 -0.2131 -0.1598
   92loPI   C2B 1470  11.171  17.099   9.405  0.3951  0.0337 -0.0041
   92loPI   C3B 1471  11.047  17.066   9.057 -0.3218  0.2124 -0.0642
   92loPI   C4B 1472  11.198  17.016   8.657  0.1037  0.1971  0.2927
   93loPI    C1 1473   5.643   1.130  10.794 -0.0286 -0.2503  0.0375
   93loPI    C2 1474   5.766   1.389  11.073  0.0090 -0.3705  0.1334
   93loPI    C3 1475   5.933   1.027  11.050 -0.0347 -0.3821 -0.0083
   93loPI   PO4 1476   5.598   1.300  10.509  0.0654  0.2339  0.1486
   93loPI   GL1 1477   5.309   1.261  10.261  0.0260 -0.1208  0.2064
   93loPI   GL2 1478   5.318   1.458  10.151 -0.0826  0.2600  0.1182
   93loPI   C1A 1479   4.825   1.221   9.958  0.0611  0.0840  0.0963
   93loPI   C2A 1480   4.778   1.380   9.482 -0.3350 -0.2168  0.1420
   93loPI   C3A 1481   4.817   1.429   9.013  0.1257 -0.1526  0.1961
   93loPI   C4A 1482   4.778   1.348   8.528  0.1231 -0.0331 -0.1187
   93loPI   C5A 1483   4.839   1.361   8.091 -0.1045 -0.3811 -0.3538
   93loPI   C6A 1484   4.932   1.016   7.846 -0.0609 -0.0200 -0.2406
   93loPI   C1B 1485   5.241   1.459   9.759  0.0940  0.3112  0.1519
   93loPI   C2B 1486   5.180   1.654   9.312 -0.4708 -0.1102  0.0041
   93loPI   C3B 1487   5.311   1.695   8.959 -0.3019 -0.0533 -0.2087
   93loPI   C4B 1488   5.137   1.711   8.630 -0.1974  0.2280 -0.0761
   94loPI    C1 1489  10.514   1.809  10.878 -0.0931 -0.1126  0.0108
   94loPI    C2 1490  10.851   1.739  11.083 -0.0903  0.0702  0.0703
   94loPI    C3 1491  10.497   1.634  11.237 -0.0874  0.1987  0.1663
   94loPI   PO4 1492  10.517   1.690  10.671  0.0147 -0.2624 -0.1770
   94loPI   GL1 1493  10.613   1.600  10.302 -0.0703  0.2366  0.0777
   94loPI   GL2 1494  10.871   1.531  10.216  0.1398 -0.1001 -0.0960
   94loPI   C1A 1495  10.678   1.822   9.874 -0.2011 -0.0235 -0.0092
   94loPI   C2A 1496  10.615   1.885   9.493  0.1475  0.1349 -0.0081
   94loPI   C3A 1497  10.580   1.944   9.045  0.1093 -0.1017 -0.0605
   94loPI   C4A 1498  10.647   1.931   8.599  0.3827  0.0892 -0.3714
   94loPI   C5A 1499  10.602   1.777   8.119  0.1564  0.1078 -0.1516
   94loPI   C6A 1500  10.465   1.509   7.839  0.2468 -0.2951  0.0559
   94loPI   C1B 1501  11.083   1.548   9.886  0.1988 -0.0480 -0.4647
   94loPI   C2B 1502  11.028   1.607   9.400  0.5085 -0.1810 -0.0700
   94loPI   C3B 1503  11.051   1.744   8.902 -0.0787 -0.2636  0.2010
   94loPI   C4B 1504  10.956   1.627   8.441 -0.4010 -0.1619 -0.0690
   95loPI    C1 1505  12.346   2.163  11.000 -0.0355 -0.1381 -0.1595
   95loPI    C2 1506  12.502   2.108  11.365  0.0499  0.0850 -0.1612
   95loPI    C3 1507  12.112   2.046  11.303  0.0476 -0.0173 -0.0475
   95loPI   PO4 1508  12.439   2.381  10.918 -0.3506 -0.0221  0.0113
   95loPI   GL1 1509  12.465   2.631  10.488 -0.3449  0.2296 -0.3720
   95loPI   GL2 1510  12.384   2.963  10.489  0.1969 -0.0234 -0.3509
   95loPI   C1A 1511  12.512   2.370  10.097  0.0354 -0.2604  0.0767
   95loPI   C2A 1512  12.500   2.450   9.599 -0.1183  0.1212  0.2762
   95loPI   C3A 1513  12.535   2.380   9.133  0.1181 -0.3764  0.0305
   95loPI   C4A 1514  12.479   2.435   8.724 -0.0573 -0.0133  0.0018
   95loPI   C5A 1515  12.653   2.667   8.378  0.0240 -0.1352  0.0247
   95loPI   C6A 1516  12.644   2.676   7.913 -0.0436 -0.0898 -0.3469
   95loPI   C1B 1517  12.544   2.889  10.086  0.1929  0.0484  0.0168
   95loPI   C2B 1518  12.489   2.890   9.729  0.1528 -0.2351 -0.0414
   95loPI   C3B 1519  12.437   2.882   9.281  0.2515 -0.2755  0.2464
   95loPI   C4B 1520  12.506   2.937   8.870  0.0667 -0.1044  0.0598
   96loPI    C1 1521   7.155  15.380  10.533  0.2379  0.4478  0.0724
   96loPI    C2 1522   7.357  15.111  10.748  0.0296  0.2340  0.0050
   96loPI    C3 1523   7.313  15.484  10.885  0.0557  0.1504  0.2464
   96loPI   PO4 1524   6.824  15.365  10.406 -0.3534 -0.0639 -0.1143
   96loPI   GL1 1525   6.714  15.161  10.113 -0.0491  0.1104  0.0989
   96loPI   GL2 1526   6.918  15.134   9.948 -0.1014 -0.0369 -0.0487
   96loPI   C1A 1527   6.462  15.320   9.711  0.0367  0.1804  0.0482
   96loPI   C2A 1528   6.534  15.466   9.344 -0.2545  0.1257 -0.0294
   96loPI   C3A 1529   6.533  15.467   8.921 -0.2276 -0.0219 -0.1657
   96loPI   C4A 1530   6.632  15.450   8.492 -0.3038 -0.0794 -0.0863
   96loPI   C5A 1531   6.698  15.712   7.951  0.1332  0.3458  0.3162
   96loPI   C6A 1532   6.611  15.740   7.431 -0.0433  0.1756 -0.2637
   96loPI   C1B 1533   6.832  15.039   9.496  0.3628 -0.1190  0.1307
   96loPI   C2B 1534   6.997  15.092   9.054  0.0274 -0.1918 -0.2201
   96loPI   C3B 1535   6.939  15.168   8.742 -0.0517  0.2566  0.2006
   96loPI   C4B 1536   7.047  15.141   8.255  0.0590  0.2016 -0.0122
   97loPI    C1 1537   2.200   5.594  11.040  0.0831  0.0170  0.0489
   97loPI    C2 1538   2.454   5.882  11.154  0.4020 -0.2717  0.0864
   97loPI    C3 1539   2.341   5.600  11.415  0.0343 -0.1449  0.0708
   97loPI   PO4 1540   2.306   5.501  10.870 -0.3637  0.0912  0.1494
   97loPI   GL1 1541   2.307   5.579  10.409 -0.0039  0.0061  0.2132
   97loPI   GL2 1542   2.022   5.415  10.307  0.3258  0.0889 -0.2706
   97loPI   C1A 1543   2.583   5.360  10.137  0.3259  0.1127 -0.2527
   97loPI   C2A 1544   2.646   5.286   9.702  0.0560 -0.2293  0.1119
   97loPI   C3A 1545   2.614   5.273   9.272 -0.2574 -0.0351 -0.2361
   97loPI   C4A 1546   2.628   5.259   8.828 -0.1502 -0.2289 -0.4114
   97loPI   C5A 1547   2.560   5.253   8.394  0.0006  0.0212 -0.0669
   97loPI   C6A 1548   2.370   4.922   8.191  0.1066 -0.1495  0.0264
   97loPI   C1B 1549   2.144   5.095  10.005  0.0958 -0.3249  0.1521
   97loPI   C2B 1550   2.212   5.037   9.521 -0.0140  0.2668 -0.2547
   97loPI   C3B 1551   2.141   5.035   9.066 -0.0839 -0.0925 -0.0497
   97loPI   C4B 1552   2.064   5.026   8.574  0.1614  0.2626  0.0668
   98loPI    C1 1553  14.360   1.736  11.028  0.1256 -0.0726 -0.1568
   98loPI    C2 1554  14.234   1.902  11.369  0.0638  0.0726 -0.2493
   98loPI    C3 1555  14.541   1.647  11.373 -0.1098 -0.1384 -0.0477
   98loPI   PO4 1556  14.328   1.863  10.825  0.1671  0.0834 -0.0060
   98loPI   GL1 1557  14.388   1.795  10.423 -0.0090 -0.1035  0.3181
   98loPI   GL2 1558  14.636   1.947  10.319 -0.0087 -0.1719  0.1249
   98loPI   C1A 1559  14.247   1.772  10.076 -0.2282  0.1108 -0.1160
   98loPI   C2A 1560  14.224   1.913   9.640  0.2171 -0.2203  0.0257
   98loPI   C3A 1561  14.190   1.952   9.196 -0.1127 -0.2255 -0.1473
   98loPI   C4A 1562  14.060   1.747   8.790 -0.0021  0.1181  0.2063
   98loPI   C5A 1563  13.669   1.537   8.740  0.3857 -0.5212  0.0814
   98loPI   C6A 1564  13.258   1.359   8.605  0.2675 -0.2206 -0.2540
   98loPI   C1B 1565  14.630   2.067   9.819 -0.0270  0.0502  0.3017
   98loPI   C2B 1566  14.720   2.091   9.380  0.0145  0.1830 -0.0476
   98loPI   C3B 1567  14.560   2.081   8.908  0.1498  0.2271 -0.0287
   98loPI   C4B 1568  14.435   1.840   8.488 -0.3008 -0.1476  0.0362
   99loPI    C1 1569  16.008   3.637  11.060  0.0555  0.0543  0.0091
   99loPI    C2 1570  15.837   3.399  11.333  0.0774  0.2674  0.2121
   99loPI    C3 1571  16.221   3.506  11.372  0.1577  0.0855 -0.0473
   99loPI   PO4 1572  15.925   3.518  10.847  0.0398 -0.1291  0.0896
   99loPI   GL1 1573  16.089   3.594  10.388  0.0573  0.0458  0.0564
   99loPI   GL2 1574  16.162   4.014  10.257  0.0495  0.2327 -0.2153
   99loPI   C1A 1575  15.744   3.674  10.126 -0.1291  0.1192  0.1033
   99loPI   C2A 1576  15.644   3.621   9.834  0.1892  0.2609  0.0272
   99loPI   C3A 1577  15.656   3.545   9.337 -0.1510  0.2256  0.0165
   99loPI   C4A 1578  15.639   3.574   8.819 -0.1478  0.0044  0.0744
   99loPI   C5A 1579  15.531   3.659   8.340  0.1985 -0.0197 -0.0418
   99loPI   C6A 1580  15.127   3.634   8.159  0.2181 -0.0527  0.1306
   99loPI   C1B 1581  16.124   3.813   9.862  0.2202 -0.1548 -0.1955
   99loPI   C2B 1582  16.089   3.869   9.439  0.1699  0.1691  0.1373
   99loPI   C3B 1583  16.104   3.699   9.006  0.0225 -0.0235  0.1868
   99loPI   C4B 1584  16.027   3.831   8.644  0.1971 -0.0493 -0.0503
  100loPI    C1 1585   4.975   0.003  11.133 -0.1595 -0.0607  0.0069
  100loPI    C2 1586   4.815   0.364  11.193  0.0826  0.0489  0.0063
  100loPI    C3 1587   4.805   0.091  11.484 -0.0002  0.0941  0.0463
  100loPI   PO4 1588   4.827  -0.066  10.859  0.2483 -0.0416  0.1557
  100loPI   GL1 1589   4.755  -0.122  10.420 -0.0392  0.1289 -0.0863
  100loPI   GL2 1590   4.831  -0.503  10.245 -0.1285 -0.1643  0.3010
  100loPI   C1A 1591   4.613   0.107  10.083 -0.0399  0.1452 -0.2851
  100loPI   C2A 1592   4.708   0.164   9.757 -0.1028  0.0674  0.2668
  100loPI   C3A 1593   4.724   0.240   9.338  0.0740 -0.4610 -0.1057
  100loPI   C4A 1594   4.688   0.420   8.927 -0.1118  0.1207  0.2782
  100loPI   C5A 1595   4.618   0.486   8.420 -0.0506 -0.1844  0.0894
  100loPI   C6A 1596   4.215   0.346   8.232  0.1990 -0.1247 -0.4317
  100loPI   C1B 1597   4.956  -0.360   9.772  0.0705  0.0465 -0.2110
  100loPI   C2B 1598   5.064  -0.373   9.380  0.2036  0.0697 -0.1776
  100loPI   C3B 1599   5.137  -0.021   9.160 -0.2408 -0.1334  0.3310
  100loPI   C4B 1600   5.052   0.150   8.738 -0.0715 -0.0440 -0.0442
  101loPI    C1 1601   4.745  15.408  10.811 -0.0527  0.2434 -0.1228
  101loPI    C2 1602   5.128  15.492  10.728  0.0402 -0.0482 -0.0031
  101loPI    C3 1603   4.905  15.755  10.931  0.1242  0.1988 -0.2256
  101loPI   PO4 1604   4.648  15.355  10.699 -0.1049 -0.1174  0.1262
  101loPI   GL1 1605   4.680  15.279  10.256 -0.2288 -0.4204  0.1029
  101loPI   GL2 1606   4.871  15.240  10.016  0.3739 -0.1543 -0.1291
  101loPI   C1A 1607   4.660  15.662   9.852 -0.0345  0.2754  0.0672
  101loPI   C2A 1608   4.681  15.710   9.378  0.1752  0.0565  0.0165
  101loPI   C3A 1609   4.835  15.739   9.026  0.0827 -0.0379  0.2824
  101loPI   C4A 1610   4.793  15.633   8.570 -0.1886 -0.2351 -0.0535
  101loPI   C5A 1611   4.847  15.685   8.202  0.2261 -0.0793 -0.0138
  101loPI   C6A 1612   5.113  16.046   7.873  0.0173  0.1269 -0.2404
  101loPI   C1B 1613   5.055  15.310   9.565  0.2715 -0.2372  0.0017
  101loPI   C2B 1614   5.176  15.419   9.187  0.0254 -0.0959  0.1278
  101loPI   C3B 1615   5.180  15.399   8.830  0.4219 -0.2145 -0.3822
  101loPI   C4B 1616   5.205  15.346   8.386 -0.4536 -0.2076  0.1227
  102loPI    C1 1617  15.222  10.817  10.923  0.1030 -0.0603  0.0260
  102loPI    C2 1618  15.102  10.538  11.184  0.1517  0.0546  0.1731
  102loPI    C3 1619  15.345  10.832  11.303  0.2370  0.0650 -0.0216
  102loPI   PO4 1620  15.327  10.723  10.776  0.1691 -0.0027 -0.0111
  102loPI   GL1 1621  15.155  10.798  10.336  0.2717 -0.2846  0.1388
  102loPI   GL2 1622  15.470  10.636  10.293 -0.3482 -0.0986 -0.0087
  102loPI   C1A 1623  15.154  10.768   9.936 -0.0605  0.0436 -0.1717
  102loPI   C2A 1624  15.223  10.689   9.513  0.2339 -0.0654 -0.3231
  102loPI   C3A 1625  15.328  10.642   9.092 -0.0467 -0.0406  0.1353
  102loPI   C4A 1626  15.384  10.575   8.639  0.2580  0.1398  0.2501
  102loPI   C5A 1627  15.610  10.703   8.244 -0.3723  0.2377 -0.2109
  102loPI   C6A 1628  15.763  10.558   7.889  0.0250  0.0897  0.0703
  102loPI   C1B 1629  15.690  10.593   9.890 -0.4225 -0.0403 -0.0001
  102loPI   C2B 1630  15.703  10.549   9.499  0.0473 -0.3105 -0.0795
  102loPI   C3B 1631  15.761  10.318   9.047  0.1440 -0.1658 -0.0058
  102loPI   C4B 1632  15.908  10.301   8.602  0.1756  0.1634  0.0501
  103loPI    C1 1633   2.634  10.661  10.625 -0.1900  0.1686  0.0204
  103loPI    C2 1634   2.368  10.367  10.679 -0.0759  0.0848  0.1333
  103loPI    C3 1635   2.371  10.681  10.926  0.0950 -0.0379  0.2898
  103loPI   PO4 1636   2.683  10.574  10.358 -0.2054  0.1024  0.0495
  103loPI   GL1 1637   2.615  10.464  10.010 -0.1411 -0.3307 -0.1688
  103loPI   GL2 1638   2.323  10.333   9.949 -0.1548  0.0640  0.0424
  103loPI   C1A 1639   2.774  10.181   9.754 -0.3071 -0.1562  0.0532
  103loPI   C2A 1640   2.859  10.036   9.385  0.0470 -0.0199 -0.1298
  103loPI   C3A 1641   2.716   9.984   9.028 -0.0598  0.1456 -0.0954
  103loPI   C4A 1642   2.858   9.947   8.664 -0.2318  0.1055  0.0363
  103loPI   C5A 1643   2.855   9.868   8.210  0.1966  0.0269  0.1968
  103loPI   C6A 1644   3.053   9.896   7.757  0.1010 -0.1719 -0.0577
  103loPI   C1B 1645   2.320  10.232   9.511  0.0951  0.0279 -0.0069
  103loPI   C2B 1646   2.243  10.208   9.073  0.1999  0.0409  0.0621
  103loPI   C3B 1647   2.341  10.206   8.643 -0.3967  0.1541 -0.1979
  103loPI   C4B 1648   2.470  10.160   8.157  0.0438  0.1416  0.3434
  104loPI    C1 1649  10.398  12.086  10.687  0.0659 -0.1674  0.1611
  104loPI    C2 1650  10.291  12.203  11.055 -0.0252 -0.1154  0.1182
  104loPI    C3 1651  10.645  12.314  10.904 -0.0467 -0.0216  0.1370
  104loPI   PO4 1652  10.177  12.129  10.556  0.2437 -0.3282 -0.2376
  104loPI   GL1 1653  10.057  12.129  10.191  0.0464 -0.0550 -0.0181
  104loPI   GL2 1654  10.163  12.421  10.106  0.1151  0.1858 -0.1301
  104loPI   C1A 1655  10.103  11.966   9.779  0.2111  0.1246  0.1541
  104loPI   C2A 1656  10.138  11.911   9.214  0.3763 -0.1407  0.2103
  104loPI   C3A 1657  10.212  11.897   8.683 -0.0167 -0.2123 -0.2815
  104loPI   C4A 1658  10.262  11.621   8.258 -0.1953 -0.1147 -0.3410
  104loPI   C5A 1659  10.435  11.593   7.852  0.0999  0.2961 -0.0119
  104loPI   C6A 1660  10.605  11.876   7.614 -0.1951  0.3640 -0.1137
  104loPI   C1B 1661  10.300  12.458   9.679 -0.1761  0.1333 -0.3517
  104loPI   C2B 1662  10.244  12.573   9.252  0.3451 -0.4855 -0.2068
  104loPI   C3B 1663  10.254  12.438   8.757  0.1398  0.4544 -0.0054
  104loPI   C4B 1664  10.217  12.418   8.350 -0.0820  0.2617 -0.0287
  105loPI    C1 1665  12.654  17.005  10.755 -0.1152 -0.0300  0.2053
  105loPI    C2 1666  12.557  16.719  11.017 -0.0554 -0.1780  0.0674
  105loPI    C3 1667  12.506  16.657  10.625  0.0997 -0.0569  0.0271
  105loPI   PO4 1668  12.852  17.041  10.695  0.1008 -0.0910 -0.0562
  105loPI   GL1 1669  13.105  17.353  10.707  0.0454  0.2496  0.1694
  105loPI   GL2 1670  12.873  17.501  10.514  0.0851 -0.1478  0.2407
  105loPI   C1A 1671  13.438  17.473  10.342  0.0058  0.1670 -0.1548
  105loPI   C2A 1672  13.501  17.491   9.962 -0.4044 -0.1241 -0.2296
  105loPI   C3A 1673  13.512  17.390   9.570  0.2322 -0.0509 -0.1250
  105loPI   C4A 1674  13.497  17.440   9.118  0.0536 -0.0539 -0.2333
  105loPI   C5A 1675  13.461  17.547   8.645  0.4377  0.0842  0.1745
  105loPI   C6A 1676  13.385  17.514   8.232 -0.0019 -0.2139 -0.1007
  105loPI   C1B 1677  12.994  17.287  10.087  0.1216 -0.5533 -0.2893
  105loPI   C2B 1678  12.985  17.271   9.689 -0.1857 -0.0873 -0.0066
  105loPI   C3B 1679  12.977  17.341   9.229 -0.0826  0.3294  0.0706
  105loPI   C4B 1680  12.931  17.314   8.760 -0.0189 -0.0577 -0.0521
  106loPI    C1 1681  16.731  10.358  10.862  0.1005  0.0999 -0.1156
  106loPI    C2 1682  16.929  10.072  11.059  0.0952  0.1526 -0.0330
  106loPI    C3 1683  16.661  10.298  11.251  0.0926  0.2072 -0.1002
  106loPI   PO4 1684  16.660  10.180  10.639  0.0946  0.0004 -0.1213
  106loPI   GL1 1685  16.617   9.921  10.325 -0.1112  0.0112 -0.0521
  106loPI   GL2 1686  16.301   9.950  10.378  0.2565  0.0089  0.1721
  106loPI   C1A 1687  16.776   9.928   9.923  0.0196 -0.1619 -0.1841
  106loPI   C2A 1688  16.711   9.830   9.527  0.1569 -0.0673  0.1187
  106loPI   C3A 1689  16.725   9.769   9.092 -0.1648 -0.0753  0.0387
  106loPI   C4A 1690  16.739   9.720   8.667  0.3225  0.2407 -0.2705
  106loPI   C5A 1691  16.737   9.836   8.234  0.0586 -0.0112  0.3351
  106loPI   C6A 1692  16.455  10.041   8.028 -0.0444  0.1576  0.0212
  106loPI   C1B 1693  16.302   9.753   9.976 -0.0701  0.0215  0.0540
  106loPI   C2B 1694  16.256   9.614   9.565 -0.0056 -0.2323  0.0300
  106loPI   C3B 1695  16.222   9.508   9.145 -0.1121  0.2558  0.0784
  106loPI   C4B 1696  16.267   9.500   8.852 -0.1497  0.2991  0.1360
  107loPI    C1 1697  12.374  13.256  11.318 -0.2612  0.1059 -0.0300
  107loPI    C2 1698  12.381  12.879  11.451 -0.1443  0.0480 -0.1965
  107loPI    C3 1699  12.400  13.183  11.710  0.2340 -0.0639 -0.0866
  107loPI   PO4 1700  12.553  13.284  11.090 -0.2838 -0.0030 -0.1149
  107loPI   GL1 1701  12.568  13.296  10.651  0.2662 -0.4614  0.4133
  107loPI   GL2 1702  12.259  13.107  10.519 -0.0036  0.1187 -0.0485
  107loPI   C1A 1703  12.677  13.353  10.293 -0.0671 -0.2244  0.2224
  107loPI   C2A 1704  12.744  13.393   9.881  0.1634 -0.3283  0.2074
  107loPI   C3A 1705  12.688  13.386   9.374  0.2872  0.1973  0.1147
  107loPI   C4A 1706  12.639  13.457   8.949 -0.0103  0.0905 -0.1835
  107loPI   C5A 1707  12.708  13.297   8.443  0.1014  0.0675  0.3907
  107loPI   C6A 1708  12.724  13.674   8.342  0.0923 -0.0887  0.0019
  107loPI   C1B 1709  12.259  13.211  10.109 -0.0713 -0.3032  0.2723
  107loPI   C2B 1710  12.281  13.238   9.675  0.0701 -0.0912  0.3835
  107loPI   C3B 1711  12.199  13.215   9.196 -0.2140 -0.1123 -0.0002
  107loPI   C4B 1712  12.193  13.234   8.774 -0.1366 -0.0908  0.2451
  108loPI    C1 1713  16.388  17.408  11.271 -0.0925 -0.2529  0.2583
  108loPI    C2 1714  16.374  17.599  11.623 -0.0386  0.0794  0.0848
  108loPI    C3 1715  16.727  17.494  11.466 -0.0649 -0.1076  0.1486
  108loPI   PO4 1716  16.267  17.550  11.101 -0.5164 -0.0759 -0.3064
  108loPI   GL1 1717  16.374  17.545  10.602 -0.0946 -0.3795  0.2467
  108loPI   GL2 1718  16.580  17.727  10.713  0.1969 -0.0544 -0.2720
  108loPI   C1A 1719  16.209  17.484  10.170 -0.0680  0.1083  0.0905
  108loPI   C2A 1720  16.265  17.445   9.661  0.1144  0.2431 -0.0319
  108loPI   C3A 1721  16.224  17.439   9.204 -0.0905  0.2389 -0.2138
  108loPI   C4A 1722  16.252  17.506   8.753  0.3700 -0.2402 -0.1268
  108loPI   C5A 1723  15.857  17.439   8.437  0.1390 -0.1906 -0.1070
  108loPI   C6A 1724  15.547  17.354   8.043 -0.0622 -0.0667  0.0388
  108loPI   C1B 1725  16.323  17.965  10.313  0.1694  0.0285  0.0874
  108loPI   C2B 1726  16.285  17.994   9.877 -0.0458  0.0920 -0.1238
  108loPI   C3B 1727  16.311  17.931   9.449 -0.4711 -0.0794  0.1011
  108loPI   C4B 1728  16.224  18.002   8.982  0.2667  0.1727  0.1484
  109loPI    C1 1729   9.222   0.356  10.470  0.0741 -0.0406  0.1195
  109loPI    C2 1730   9.063   0.695  10.612  0.1254 -0.0130  0.1113
  109loPI    C3 1731   9.112   0.380  10.854 -0.0839 -0.0735  0.0772
  109loPI   PO4 1732   9.440   0.471  10.325 -0.0607 -0.2762  0.1714
  109loPI   GL1 1733   9.245   0.619   9.918 -0.2188 -0.0961 -0.0599
  109loPI   GL2 1734   9.426   0.388   9.722 -0.1281 -0.0534  0.0799
  109loPI   C1A 1735   9.215   0.729   9.455  0.1648 -0.1392 -0.0399
  109loPI   C2A 1736   9.183   0.694   9.045  0.2926  0.3285 -0.4207
  109loPI   C3A 1737   9.286   0.755   8.608  0.1264  0.0419 -0.1365
  109loPI   C4A 1738   9.273   0.667   8.193  0.0171  0.1558  0.0796
  109loPI   C5A 1739   9.040   0.244   8.022 -0.0026 -0.3486  0.1829
  109loPI   C6A 1740   8.686   0.117   8.099 -0.2402 -0.0206 -0.0257
  109loPI   C1B 1741   9.565   0.317   9.377  0.0039  0.3264 -0.2107
  109loPI   C2B 1742   9.536   0.366   8.961  0.2695  0.1697 -0.1270
  109loPI   C3B 1743   9.333   0.253   8.502  0.0082 -0.0029 -0.0091
  109loPI   C4B 1744   8.960  -0.002   8.505  0.1560  0.1782 -0.1200
  110loPI    C1 1745  10.459  10.191  11.138 -0.2510 -0.0278 -0.1027
  110loPI    C2 1746  10.505   9.956  11.458 -0.2520 -0.3740 -0.3506
  110loPI    C3 1747  10.230  10.245  11.461 -0.0575 -0.1840  0.0639
  110loPI   PO4 1748  10.445  10.067  10.916  0.1265  0.1101  0.2135
  110loPI   GL1 1749  10.618   9.970  10.609  0.2412 -0.0702  0.1022
  110loPI   GL2 1750  10.375  10.043  10.337  0.1124 -0.1703 -0.0031
  110loPI   C1A 1751  10.763   9.757  10.201 -0.0247  0.1737  0.2363
  110loPI   C2A 1752  10.844   9.689   9.803 -0.1869  0.0684 -0.4152
  110loPI   C3A 1753  10.880   9.661   9.427 -0.1353  0.1365  0.0331
  110loPI   C4A 1754  10.928   9.648   8.984 -0.0233 -0.0375 -0.3220
  110loPI   C5A 1755  11.051   9.580   8.601 -0.0455 -0.0587 -0.0009
  110loPI   C6A 1756  11.295   9.531   8.343 -0.1454 -0.2992  0.1608
  110loPI   C1B 1757  10.457  10.004   9.938 -0.1395  0.0066 -0.0205
  110loPI   C2B 1758  10.451   9.960   9.493 -0.1415  0.1767  0.1619
  110loPI   C3B 1759  10.469  10.056   9.034  0.0599  0.0031 -0.2081
  110loPI   C4B 1760  10.599   9.967   8.607 -0.0547 -0.2908 -0.3044
  111loPI    C1 1761   1.365   1.621  10.843  0.1621 -0.2663 -0.0034
  111loPI    C2 1762   1.015   1.454  10.940 -0.1196  0.2124 -0.1619
  111loPI    C3 1763   1.213   1.673  11.210  0.1200 -0.1494 -0.0370
  111loPI   PO4 1764   1.324   1.636  10.614 -0.1236  0.0140  0.1657
  111loPI   GL1 1765   0.780   1.549  10.378  0.0451 -0.2392  0.0128
  111loPI   GL2 1766   1.045   1.514  10.222  0.1291 -0.1245  0.2619
  111loPI   C1A 1767   0.686   1.706   9.961  0.0559  0.2222 -0.0667
  111loPI   C2A 1768   0.674   1.676   9.509 -0.1735 -0.0559 -0.0638
  111loPI   C3A 1769   0.605   1.541   9.194 -0.1645 -0.0941  0.3060
  111loPI   C4A 1770   0.538   1.425   8.761 -0.0140 -0.1702  0.0551
  111loPI   C5A 1771   0.809   1.510   8.402 -0.0096  0.3006  0.5090
  111loPI   C6A 1772   1.161   1.292   8.182  0.3191 -0.0605  0.0890
  111loPI   C1B 1773   1.102   1.437   9.853 -0.1319 -0.0383  0.2367
  111loPI   C2B 1774   1.099   1.405   9.452  0.2194  0.1609 -0.0952
  111loPI   C3B 1775   1.049   1.231   9.062 -0.0285 -0.0792  0.3332
  111loPI   C4B 1776   1.058   1.145   8.673  0.0703 -0.0664  0.0879
  112loPI    C1 1777   0.581   0.078  11.084  0.0164 -0.0217  0.0681
  112loPI    C2 1778   0.699  -0.242  11.292 -0.0478 -0.0431  0.0717
  112loPI    C3 1779   0.419   0.002  11.441 -0.1550 -0.1057 -0.0261
  112loPI   PO4 1780   0.507   0.063  10.872 -0.2368 -0.1510  0.2912
  112loPI   GL1 1781   0.399   0.243  10.516  0.2444  0.0560  0.1473
  112loPI   GL2 1782   0.623   0.525  10.292  0.1085  0.2076 -0.2319
  112loPI   C1A 1783   0.242   0.300  10.088  0.1237  0.0765 -0.0510
  112loPI   C2A 1784   0.042   0.274   9.778 -0.1492  0.0668 -0.0281
  112loPI   C3A 1785   0.118   0.297   9.279  0.0090 -0.3404 -0.2099
  112loPI   C4A 1786   0.024   0.151   8.862 -0.0975 -0.2410 -0.0730
  112loPI   C5A 1787   0.007   0.300   8.412  0.3522 -0.2288 -0.0086
  112loPI   C6A 1788  -0.067   0.670   8.311  0.0774  0.0813  0.1815
  112loPI   C1B 1789   0.637   0.563   9.851 -0.3424 -0.0466 -0.0781
  112loPI   C2B 1790   0.526   0.560   9.430 -0.0196  0.1038 -0.1277
  112loPI   C3B 1791   0.516   0.458   9.055  0.0677  0.1497  0.1234
  112loPI   C4B 1792   0.562   0.433   8.646 -0.0771 -0.0075 -0.0444
  113loPI    C1 1793   9.759  10.646  10.709  0.1100  0.1902 -0.1925
  113loPI    C2 1794   9.361  10.659  10.664  0.0951  0.0696 -0.0996
  113loPI    C3 1795   9.521  10.610  11.028  0.1884 -0.1611 -0.1696
  113loPI   PO4 1796   9.895  10.896  10.642  0.0936  0.1760 -0.0360
  113loPI   GL1 1797  10.154  10.862  10.279  0.3293 -0.0301 -0.3681
  113loPI   GL2 1798  10.239  11.111  10.063 -0.0959 -0.0976  0.0081
  113loPI   C1A 1799  10.356  10.655   9.947  0.2264 -0.1962 -0.2833
  113loPI   C2A 1800  10.453  10.475   9.627 -0.0384 -0.1613 -0.0867
  113loPI   C3A 1801  10.453  10.554   9.122 -0.1691 -0.0524  0.2363
  113loPI   C4A 1802  10.465  10.461   8.661  0.2322 -0.1035 -0.1410
  113loPI   C5A 1803  10.594  10.384   8.209 -0.2341  0.0743  0.2725
  113loPI   C6A 1804  10.806  10.261   7.858  0.2497 -0.0845  0.2373
  113loPI   C1B 1805  10.356  11.118   9.618 -0.3675  0.1408  0.0375
  113loPI   C2B 1806  10.454  11.076   9.180  0.0566  0.1021  0.1595
  113loPI   C3B 1807  10.553  10.945   8.738 -0.0008  0.3502  0.1546
  113loPI   C4B 1808  10.544  10.869   8.351  0.2870 -0.0543  0.1177
  114loPI    C1 1809   3.249  17.355  11.168 -0.0013  0.2127 -0.2630
  114loPI    C2 1810   3.632  17.287  11.264 -0.0847  0.0347 -0.0462
  114loPI    C3 1811   3.450  17.619  11.392 -0.0257  0.0815 -0.0835
  114loPI   PO4 1812   3.233  17.347  10.914 -0.3738 -0.0587  0.1552
  114loPI   GL1 1813   3.162  17.389  10.610 -0.0657 -0.0533  0.0801
  114loPI   GL2 1814   3.189  17.049  10.483 -0.0337 -0.2995  0.0030
  114loPI   C1A 1815   3.240  17.553  10.077  0.3242 -0.1336 -0.1356
  114loPI   C2A 1816   3.224  17.473   9.570 -0.2266 -0.1069 -0.1417
  114loPI   C3A 1817   3.266  17.656   9.134  0.1889 -0.0714  0.0269
  114loPI   C4A 1818   3.296  17.670   8.737 -0.0167 -0.1935  0.1405
  114loPI   C5A 1819   3.021  17.678   8.365 -0.0560 -0.0796  0.0344
  114loPI   C6A 1820   2.675  17.950   8.321  0.1604  0.4562  0.0753
  114loPI   C1B 1821   3.195  17.023   9.931 -0.0923  0.0541 -0.0506
  114loPI   C2B 1822   3.168  16.940   9.518 -0.0563  0.3160 -0.0809
  114loPI   C3B 1823   3.220  17.137   9.084  0.1492  0.2776 -0.0466
  114loPI   C4B 1824   3.071  17.214   8.594 -0.0865  0.0307 -0.0460
  115loPI    C1 1825  15.847   4.647  11.251 -0.1486  0.1384 -0.0340
  115loPI    C2 1826  16.070   4.497  11.547 -0.1604 -0.0366 -0.1125
  115loPI    C3 1827  15.843   4.820  11.612  0.0462  0.0900 -0.0076
  115loPI   PO4 1828  16.012   4.645  11.080  0.1252  0.1328 -0.1051
  115loPI   GL1 1829  15.851   4.549  10.615 -0.2621 -0.2875 -0.3492
  115loPI   GL2 1830  16.037   4.440  10.435 -0.2555 -0.0180  0.0845
  115loPI   C1A 1831  15.702   4.700  10.262  0.1319 -0.0472  0.1199
  115loPI   C2A 1832  15.664   4.743   9.815  0.0110  0.0955 -0.1169
  115loPI   C3A 1833  15.677   4.631   9.383 -0.1533 -0.0501 -0.3156
  115loPI   C4A 1834  15.634   4.679   8.931  0.1752  0.1580  0.3793
  115loPI   C5A 1835  15.646   4.666   8.464  0.2764  0.0523 -0.1401
  115loPI   C6A 1836  15.614   4.550   8.048  0.1219  0.1879  0.2589
  115loPI   C1B 1837  15.982   4.360   9.997 -0.1805  0.1265  0.0563
  115loPI   C2B 1838  16.070   4.357   9.597 -0.0823  0.1994  0.5279
  115loPI   C3B 1839  16.117   4.355   9.200 -0.1146 -0.1082 -0.4806
  115loPI   C4B 1840  16.067   4.467   8.724 -0.1053  0.1281 -0.2227
  116loPI    C1 1841   5.665   4.454  11.185 -0.1166  0.2551 -0.0147
  116loPI    C2 1842   5.458   4.696  11.427 -0.1811 -0.0086  0.1989
  116loPI    C3 1843   5.749   4.466  11.576 -0.1258 -0.0694  0.0000
  116loPI   PO4 1844   5.673   4.581  10.917 -0.1602 -0.0175  0.0789
  116loPI   GL1 1845   5.755   4.449  10.553 -0.1974  0.0955  0.0033
  116loPI   GL2 1846   5.365   4.540  10.463  0.1912  0.1408 -0.0873
  116loPI   C1A 1847   5.730   4.394  10.128  0.0923  0.1233  0.1796
  116loPI   C2A 1848   5.772   4.475   9.694  0.0950 -0.1128  0.0646
  116loPI   C3A 1849   5.846   4.471   9.206  0.1394 -0.1598 -0.1386
  116loPI   C4A 1850   5.892   4.465   8.818  0.1604 -0.0838 -0.0497
  116loPI   C5A 1851   5.951   4.622   8.393  0.0616  0.0441  0.2519
  116loPI   C6A 1852   6.116   4.947   8.138  0.1878 -0.2435  0.2060
  116loPI   C1B 1853   5.323   4.705  10.020 -0.1427 -0.1973 -0.0573
  116loPI   C2B 1854   5.345   4.721   9.570 -0.0037  0.0320  0.2000
  116loPI   C3B 1855   5.317   4.670   9.116 -0.0255 -0.0154 -0.0811
  116loPI   C4B 1856   5.497   4.731   8.683 -0.2519  0.0729  0.0108
  117loPI    C1 1857   6.294  13.369  10.555  0.2144  0.1030  0.0386
  117loPI    C2 1858   6.204  13.513  10.917  0.2555  0.0360  0.0756
  117loPI    C3 1859   6.561  13.591  10.753  0.2853 -0.0395  0.1040
  117loPI   PO4 1860   6.170  13.484  10.393  0.1212 -0.0381 -0.1877
  117loPI   GL1 1861   6.318  13.785  10.162 -0.0181  0.0187 -0.3196
  117loPI   GL2 1862   6.047  13.939  10.005  0.1310  0.0606  0.0636
  117loPI   C1A 1863   6.688  13.996  10.101 -0.2536 -0.0135 -0.0008
  117loPI   C2A 1864   6.781  14.082   9.780  0.3212 -0.0412  0.1339
  117loPI   C3A 1865   6.729  14.143   9.274 -0.2801  0.0996 -0.1198
  117loPI   C4A 1866   6.840  14.155   8.908  0.1636 -0.2915  0.0104
  117loPI   C5A 1867   6.711  14.157   8.470 -0.0518 -0.1302 -0.3537
  117loPI   C6A 1868   6.771  13.853   8.022  0.0107 -0.1826 -0.1394
  117loPI   C1B 1869   6.217  13.924   9.559  0.0124 -0.2040  0.1512
  117loPI   C2B 1870   6.256  13.943   9.110 -0.0663 -0.0763  0.0244
  117loPI   C3B 1871   6.321  13.963   8.715  0.1990 -0.0082  0.0128
  117loPI   C4B 1872   6.336  13.891   8.271  0.0494 -0.0984 -0.2303
  118loPI    C1 1873   8.888  17.950  10.693  0.0639  0.0321  0.3597
  118loPI    C2 1874   9.065  17.815  11.025 -0.1900 -0.0289  0.4728
  118loPI    C3 1875   8.701  17.682  10.925 -0.0402 -0.1491  0.0718
  118loPI   PO4 1876   8.949  17.958  10.445  0.2216 -0.1865 -0.0163
  118loPI   GL1 1877   9.008  17.798  10.027 -0.0096 -0.3071 -0.0127
  118loPI   GL2 1878   9.272  18.032  10.048 -0.0412  0.2402  0.2460
  118loPI   C1A 1879   8.786  17.679   9.683 -0.0539  0.0229 -0.0157
  118loPI   C2A 1880   8.704  17.637   9.309 -0.2723  0.1910  0.0739
  118loPI   C3A 1881   8.731  17.671   8.953  0.0369  0.2874  0.2362
  118loPI   C4A 1882   8.693  17.498   8.526 -0.0874  0.0267 -0.2021
  118loPI   C5A 1883   8.433  17.595   8.185  0.2508 -0.3169 -0.1449
  118loPI   C6A 1884   8.272  17.969   7.886  0.0405  0.1717  0.0769
  118loPI   C1B 1885   9.359  17.892   9.607  0.0697  0.1528  0.0997
  118loPI   C2B 1886   9.312  17.930   9.141  0.0011 -0.0808 -0.0741
  118loPI   C3B 1887   9.478  17.849   8.780 -0.1768 -0.0122  0.1146
  118loPI   C4B 1888   9.467  17.823   8.312  0.1415 -0.0420 -0.3936
  119loPI    C1 1889  11.271   9.056  11.060 -0.0607  0.0182  0.1673
  119loPI    C2 1890  11.019   9.234  11.314 -0.1422 -0.0759  0.1530
  119loPI    C3 1891  10.922   8.883  11.149 -0.0756 -0.0308  0.0166
  119loPI   PO4 1892  11.403   9.254  11.004 -0.2578 -0.0484  0.1245
  119loPI   GL1 1893  11.067   9.486  10.778 -0.2136  0.4403  0.0528
  119loPI   GL2 1894  11.077   9.739  10.582  0.1284 -0.2177  0.0168
  119loPI   C1A 1895  10.945   9.166  10.593  0.0354 -0.1409 -0.0867
  119loPI   C2A 1896  10.815   9.089  10.142  0.0362 -0.1784 -0.2255
  119loPI   C3A 1897  10.845   9.158   9.693  0.1020 -0.1974  0.0305
  119loPI   C4A 1898  10.912   9.191   9.234  0.1323  0.1219 -0.1604
  119loPI   C5A 1899  10.840   9.159   8.757  0.0721  0.1783  0.0911
  119loPI   C6A 1900  11.028   9.091   8.400  0.1615  0.2079 -0.6188
  119loPI   C1B 1901  11.169   9.475  10.193  0.4549  0.2249 -0.4340
  119loPI   C2B 1902  11.323   9.334   9.874 -0.1300 -0.0237 -0.0684
  119loPI   C3B 1903  11.294   9.363   9.461  0.0428 -0.0816  0.0360
  119loPI   C4B 1904  11.280   9.304   8.933 -0.3192 -0.1364 -0.2226
  120loPI    C1 1905  17.099  13.274  10.973  0.0335  0.1020 -0.0991
  120loPI    C2 1906  17.141  13.667  11.039  0.2384  0.0754 -0.0655
  120loPI    C3 1907  17.145  13.410  11.346  0.2759  0.0322 -0.1020
  120loPI   PO4 1908  16.921  13.238  10.759  0.0679  0.2604 -0.0544
  120loPI   GL1 1909  17.037  13.136  10.238  0.0743  0.1131  0.3113
  120loPI   GL2 1910  17.405  13.120  10.090  0.1917 -0.1799 -0.0119
  120loPI   C1A 1911  17.046  13.110   9.716  0.3175 -0.0403 -0.1658
  120loPI   C2A 1912  16.952  13.123   9.319 -0.2486 -0.2311  0.1200
  120loPI   C3A 1913  16.764  13.082   8.876 -0.3120 -0.3615  0.0077
  120loPI   C4A 1914  16.693  12.976   8.465 -0.2023  0.0231 -0.0246
  120loPI   C5A 1915  16.531  12.671   8.167 -0.0033 -0.1861 -0.3128
  120loPI   C6A 1916  16.687  12.246   8.083  0.0026 -0.3176 -0.2261
  120loPI   C1B 1917  17.520  13.223   9.664 -0.2107 -0.1741 -0.2659
  120loPI   C2B 1918  17.483  13.195   9.284 -0.0437  0.0297  0.2318
  120loPI   C3B 1919  17.251  13.183   8.955 -0.3561 -0.0248  0.4854
  120loPI   C4B 1920  17.185  13.121   8.501  0.0778 -0.1475  0.1710
  121loPI    C1 1921   1.062  14.294  10.554  0.1278  0.2859 -0.1163
  121loPI    C2 1922   1.428  14.242  10.707 -0.0347 -0.3569  0.0844
  121loPI    C3 1923   1.126  14.353  10.945  0.0663  0.4383 -0.1282
  121loPI   PO4 1924   1.211  14.462  10.260  0.1658  0.3709  0.2832
  121loPI   GL1 1925   1.187  14.184   9.915 -0.1693 -0.1930 -0.2894
  121loPI   GL2 1926   0.974  14.091   9.757 -0.0163 -0.2236 -0.0815
  121loPI   C1A 1927   1.425  14.412   9.567 -0.0452  0.0231  0.1022
  121loPI   C2A 1928   1.361  14.444   9.149 -0.0604  0.0652 -0.2155
  121loPI   C3A 1929   1.359  14.445   8.754 -0.1872  0.0389  0.0538
  121loPI   C4A 1930   1.251  14.454   8.280  0.0357 -0.3193 -0.1094
  121loPI   C5A 1931   1.437  14.487   7.910 -0.0651  0.2145  0.1211
  121loPI   C6A 1932   1.319  14.600   7.452 -0.2033 -0.1420 -0.0473
  121loPI   C1B 1933   0.917  14.333   9.300  0.0071  0.1020 -0.0614
  121loPI   C2B 1934   0.851  14.302   8.936 -0.0430 -0.0363  0.1323
  121loPI   C3B 1935   0.793  14.274   8.508  0.2366 -0.3731 -0.0536
  121loPI   C4B 1936   0.782  14.264   8.024  0.1260  0.2982 -0.2674
  122loPI    C1 1937   5.448  15.134  10.963 -0.0417  0.0331  0.1189
  122loPI    C2 1938   5.668  14.801  10.982 -0.1769 -0.0597  0.0745
  122loPI    C3 1939   5.361  14.853  11.234 -0.2422 -0.0319 -0.0103
  122loPI   PO4 1940   5.554  15.168  10.665 -0.1553  0.1663 -0.1847
  122loPI   GL1 1941   5.621  14.832  10.304  0.0274  0.1409 -0.0318
  122loPI   GL2 1942   5.500  14.583  10.074  0.0060  0.0679  0.0195
  122loPI   C1A 1943   5.451  15.067   9.949 -0.1178  0.1914  0.2436
  122loPI   C2A 1944   5.520  15.080   9.461  0.2314 -0.0406 -0.3260
  122loPI   C3A 1945   5.489  15.015   9.118  0.2052 -0.0446  0.0250
  122loPI   C4A 1946   5.605  15.129   8.740 -0.3153 -0.2548  0.4133
  122loPI   C5A 1947   5.567  15.002   8.365 -0.1290  0.5979 -0.5664
  122loPI   C6A 1948   5.864  14.735   8.133 -0.1357 -0.1871  0.0365
  122loPI   C1B 1949   5.431  14.530   9.646 -0.1491  0.3178  0.1453
  122loPI   C2B 1950   5.418  14.510   9.239 -0.3779  0.3067 -0.1689
  122loPI   C3B 1951   5.504  14.471   8.817 -0.3280 -0.0685 -0.0813
  122loPI   C4B 1952   5.504  14.484   8.337  0.0073  0.0396 -0.1198
  123loPI    C1 1953   4.125  16.742  11.251 -0.0709 -0.2204 -0.0094
  123loPI    C2 1954   3.976  16.925  11.574  0.1042 -0.0682 -0.0126
  123loPI    C3 1955   4.371  16.876  11.537  0.0929  0.0119 -0.2546
  123loPI   PO4 1956   3.859  16.889  11.006  0.3755  0.3751  0.0124
  123loPI   GL1 1957   3.780  16.891  10.586  0.1896 -0.0305  0.0583
  123loPI   GL2 1958   3.642  17.265  10.605  0.1727  0.2100  0.4610
  123loPI   C1A 1959   3.925  16.867  10.129 -0.1293  0.1893  0.1162
  123loPI   C2A 1960   4.058  16.901   9.579  0.2196 -0.0337 -0.1384
  123loPI   C3A 1961   4.049  16.992   9.127  0.1056 -0.2654  0.1677
  123loPI   C4A 1962   4.054  17.069   8.688  0.0430 -0.3812 -0.0317
  123loPI   C5A 1963   4.131  17.386   8.333 -0.2534 -0.2911  0.0691
  123loPI   C6A 1964   4.223  17.824   8.326  0.1535 -0.5059  0.0111
  123loPI   C1B 1965   3.589  17.249  10.179  0.0298  0.0557  0.2360
  123loPI   C2B 1966   3.634  17.202   9.768  0.0018  0.3182 -0.1475
  123loPI   C3B 1967   3.686  17.331   9.289  0.0586 -0.4910 -0.1237
  123loPI   C4B 1968   3.672  17.353   8.857 -0.1124  0.2122 -0.2008
  124loPI    C1 1969  12.649   7.305  11.064  0.1018 -0.0839  0.0232
  124loPI    C2 1970  12.635   7.438  11.441 -0.0800  0.0774 -0.0381
  124loPI    C3 1971  12.297   7.396  11.232  0.0189 -0.0238 -0.1795
  124loPI   PO4 1972  12.898   7.435  10.905  0.0366 -0.2035  0.0054
  124loPI   GL1 1973  12.853   7.616  10.661 -0.1848 -0.1071 -0.0004
  124loPI   GL2 1974  13.101   7.373  10.443 -0.0026 -0.0036 -0.1731
  124loPI   C1A 1975  12.564   7.630  10.361 -0.1799  0.0961 -0.1452
  124loPI   C2A 1976  12.593   7.608   9.971 -0.1844 -0.1277 -0.1844
  124loPI   C3A 1977  12.567   7.596   9.514  0.0839  0.1234  0.1417
  124loPI   C4A 1978  12.598   7.585   9.094 -0.1121 -0.2764 -0.1277
  124loPI   C5A 1979  12.495   7.501   8.692 -0.1360 -0.0252  0.1569
  124loPI   C6A 1980  12.144   7.358   8.574 -0.1188  0.1256 -0.1349
  124loPI   C1B 1981  12.990   7.293  10.018 -0.0170  0.0557  0.1995
  124loPI   C2B 1982  13.018   7.280   9.632  0.0036  0.2327  0.0912
  124loPI   C3B 1983  13.069   7.307   9.196 -0.0609 -0.0141 -0.2729
  124loPI   C4B 1984  13.157   7.344   8.683  0.3345  0.2086 -0.3086
  125loPI    C1 1985   3.052   8.366  10.861  0.1020  0.1288 -0.1252
  125loPI    C2 1986   3.320   8.631  10.994 -0.0598  0.0998  0.2716
  125loPI    C3 1987   3.388   8.239  11.038  0.0198  0.0809 -0.0021
  125loPI   PO4 1988   3.044   8.460  10.565  0.2809  0.0878 -0.1709
  125loPI   GL1 1989   3.003   8.694  10.181  0.2104  0.0160  0.0019
  125loPI   GL2 1990   2.766   8.548  10.052 -0.0675 -0.0333 -0.1330
  125loPI   C1A 1991   3.191   8.788   9.811 -0.0445 -0.1356 -0.0007
  125loPI   C2A 1992   3.226   8.733   9.424 -0.0460  0.0834 -0.0591
  125loPI   C3A 1993   3.215   8.529   9.074 -0.0835 -0.0108 -0.4308
  125loPI   C4A 1994   3.255   8.560   8.640  0.2510  0.0614  0.0197
  125loPI   C5A 1995   3.375   8.565   8.251  0.1623  0.0648  0.2765
  125loPI   C6A 1996   3.247   8.441   7.863  0.0659  0.0538  0.3774
  125loPI   C1B 1997   2.729   8.468   9.580 -0.0480 -0.3496  0.1344
  125loPI   C2B 1998   2.693   8.496   9.132  0.0433 -0.1005  0.1633
  125loPI   C3B 1999   2.776   8.354   8.729 -0.1295 -0.0600  0.0298
  125loPI   C4B 2000   2.719   8.436   8.315 -0.1861  0.0269  0.0339
  126loPI    C1 2001   4.155  15.598  10.845  0.0237  0.1509 -0.1491
  126loPI    C2 2002   4.161  15.265  11.067 -0.0444  0.1195 -0.1941
  126loPI    C3 2003   4.414  15.564  11.147 -0.0746  0.1121 -0.0684
  126loPI   PO4 2004   4.163  15.492  10.603  0.1576 -0.1316  0.2465
  126loPI   GL1 2005   4.270  15.539  10.142  0.2946 -0.0245  0.1272
  126loPI   GL2 2006   4.171  15.198  10.108 -0.2010  0.0869 -0.2008
  126loPI   C1A 2007   4.157  15.480   9.668  0.0170 -0.0597  0.2312
  126loPI   C2A 2008   4.192  15.514   9.257 -0.0056 -0.1325  0.0912
  126loPI   C3A 2009   4.333  15.571   8.885  0.1406 -0.0674  0.1509
  126loPI   C4A 2010   4.307  15.585   8.490 -0.2724 -0.2064  0.0640
  126loPI   C5A 2011   4.261  15.398   8.054  0.3273 -0.0156  0.0293
  126loPI   C6A 2012   4.049  15.522   7.608 -0.0658 -0.3903  0.0596
  126loPI   C1B 2013   4.162  14.982   9.783 -0.2017 -0.1584 -0.1023
  126loPI   C2B 2014   4.210  15.005   9.364 -0.0761  0.0696 -0.0544
  126loPI   C3B 2015   4.184  15.091   8.862 -0.0302 -0.0257 -0.0738
  126loPI   C4B 2016   4.198  15.088   8.476 -0.0224 -0.3611 -0.0041
  127loPI    C1 2017   3.002  14.430  10.860  0.1061  0.1862  0.2182
  127loPI    C2 2018   2.761  14.252  11.126  0.0257  0.0519  0.0575
  127loPI    C3 2019   2.676  14.620  10.993  0.0229  0.0874  0.1564
  127loPI   PO4 2020   3.028  14.143  10.653  0.1476  0.3539 -0.1278
  127loPI   GL1 2021   2.795  14.195  10.243 -0.0072 -0.0784 -0.2038
  127loPI   GL2 2022   2.679  13.938  10.154 -0.0328  0.3590 -0.1510
  127loPI   C1A 2023   2.767  14.317   9.819  0.3913  0.0277  0.0623
  127loPI   C2A 2024   2.713  14.451   9.492 -0.1476 -0.0058 -0.2168
  127loPI   C3A 2025   2.694  14.482   9.030 -0.0568  0.3572 -0.0582
  127loPI   C4A 2026   2.795  14.469   8.612  0.3170 -0.2743 -0.0318
  127loPI   C5A 2027   2.727  14.332   8.196  0.1844 -0.2150 -0.0437
  127loPI   C6A 2028   2.447  14.586   8.000 -0.0409 -0.1410 -0.0651
  127loPI   C1B 2029   2.596  13.832   9.757 -0.1024 -0.2636  0.0751
  127loPI   C2B 2030   2.653  13.983   9.362 -0.1100  0.0384 -0.1725
  127loPI   C3B 2031   2.597  13.972   8.988  0.1694 -0.1739 -0.0751
  127loPI   C4B 2032   2.659  14.008   8.608  0.0757  0.0976 -0.0647
  128loPI    C1 2033   3.609   7.495  10.561 -0.0963 -0.0920 -0.0828
  128loPI    C2 2034   3.748   7.862  10.484 -0.0362 -0.1098 -0.0603
  128loPI    C3 2035   3.903   7.546  10.294 -0.0080 -0.1357  0.0053
  128loPI   PO4 2036   3.356   7.467  10.506 -0.2350  0.2183  0.0136
  128loPI   GL1 2037   3.169   7.336  10.138  0.2288  0.3522 -0.1505
  128loPI   GL2 2038   3.062   7.682  10.178 -0.2079 -0.0932  0.1139
  128loPI   C1A 2039   3.038   7.078   9.756  0.0184  0.0251 -0.3184
  128loPI   C2A 2040   3.149   7.064   9.334  0.1941 -0.0119  0.0262
  128loPI   C3A 2041   3.072   7.053   8.913 -0.0592 -0.1502  0.1000
  128loPI   C4A 2042   3.131   7.051   8.536 -0.1528  0.3581 -0.0257
  128loPI   C5A 2043   2.961   7.326   8.224  0.1124 -0.1257 -0.0799
  128loPI   C6A 2044   3.044   7.651   7.975 -0.0016 -0.3463 -0.1811
  128loPI   C1B 2045   3.169   7.656   9.733  0.2144 -0.2899 -0.0668
  128loPI   C2B 2046   3.097   7.599   9.232  0.0306 -0.3147 -0.0759
  128loPI   C3B 2047   3.116   7.592   8.808  0.0818 -0.0256  0.0499
  128loPI   C4B 2048   3.345   7.640   8.402 -0.0357 -0.0303  0.2730
  129loPI    C1 2049  13.743   6.912  11.089  0.0096  0.1225  0.0031
  129loPI    C2 2050  14.066   7.148  11.074  0.0632  0.0453 -0.0640
  129loPI    C3 2051  13.913   7.040  11.428  0.0082  0.2212 -0.0333
  129loPI   PO4 2052  13.695   6.845  10.845  0.0310  0.3069 -0.1739
  129loPI   GL1 2053  13.810   6.639  10.514  0.1334  0.1028 -0.0131
  129loPI   GL2 2054  13.863   6.278  10.492  0.0342  0.0887 -0.0574
  129loPI   C1A 2055  13.906   6.771  10.030  0.1454 -0.3857  0.4173
  129loPI   C2A 2056  13.942   6.872   9.573 -0.0695  0.0870  0.2883
  129loPI   C3A 2057  13.955   6.822   9.118  0.0534  0.1667  0.0614
  129loPI   C4A 2058  14.026   6.781   8.682 -0.2174  0.1768 -0.0345
  129loPI   C5A 2059  14.206   6.711   8.261 -0.0241 -0.1444  0.0564
  129loPI   C6A 2060  14.347   6.762   7.901  0.0031 -0.2385 -0.4535
  129loPI   C1B 2061  13.935   6.286  10.023  0.2419 -0.2222  0.0019
  129loPI   C2B 2062  13.911   6.275   9.505 -0.0791  0.1034 -0.0315
  129loPI   C3B 2063  13.948   6.358   9.080 -0.0066  0.1510 -0.2577
  129loPI   C4B 2064  13.880   6.321   8.563  0.1224 -0.1383  0.0674
  130loPI    C1 2065   6.899  17.680  10.518  0.1204 -0.2793  0.0082
  130loPI    C2 2066   7.021  17.767  10.889  0.1182 -0.0676 -0.0395
  130loPI    C3 2067   6.749  17.480  10.831 -0.0223  0.0266  0.1398
  130loPI   PO4 2068   7.004  17.689  10.350 -0.0385 -0.2386 -0.0609
  130loPI   GL1 2069   6.921  17.517  10.018 -0.0801 -0.2241  0.0207
  130loPI   GL2 2070   6.880  17.844   9.835 -0.1268  0.0103 -0.1136
  130loPI   C1A 2071   6.849  17.427   9.578  0.0813  0.3036  0.0714
  130loPI   C2A 2072   6.866  17.440   9.102  0.0103  0.2037 -0.0018
  130loPI   C3A 2073   6.907  17.464   8.680 -0.2669 -0.0186  0.0120
  130loPI   C4A 2074   6.872  17.317   8.331 -0.2004 -0.0790 -0.0912
  130loPI   C5A 2075   6.721  17.394   7.969  0.2916 -0.0522  0.1303
  130loPI   C6A 2076   6.859  17.268   7.505  0.0296 -0.2680  0.0324
  130loPI   C1B 2077   6.987  17.987   9.472  0.0629  0.1472 -0.1000
  130loPI   C2B 2078   7.045  17.896   9.021 -0.1483  0.0223 -0.1765
  130loPI   C3B 2079   6.920  17.966   8.594 -0.2176 -0.0783  0.1061
  130loPI   C4B 2080   7.122  17.785   8.262 -0.0011  0.0828  0.0047
  131loPI    C1 2081   1.738  11.074  10.362 -0.0953  0.3475 -0.1148
  131loPI    C2 2082   1.717  11.381  10.617  0.0114  0.0741  0.2306
  131loPI    C3 2083   1.383  11.234  10.454 -0.0584  0.2466  0.2154
  131loPI   PO4 2084   1.896  11.105  10.241 -0.0953 -0.1947 -0.1575
  131loPI   GL1 2085   1.918  10.993   9.812  0.0366  0.0913  0.0455
  131loPI   GL2 2086   1.905  11.258   9.723  0.0872  0.0003 -0.1414
  131loPI   C1A 2087   1.891  10.585   9.661  0.1564 -0.0767 -0.0547
  131loPI   C2A 2088   1.815  10.563   9.182  0.2736 -0.0777 -0.1790
  131loPI   C3A 2089   1.885  10.417   8.758  0.2445 -0.1109  0.2073
  131loPI   C4A 2090   2.091  10.514   8.343 -0.2838  0.0638 -0.3274
  131loPI   C5A 2091   1.937  10.424   7.999  0.4706 -0.1648  0.1893
  131loPI   C6A 2092   1.548  10.446   7.654 -0.0048 -0.0830 -0.0667
  131loPI   C1B 2093   1.829  11.085   9.354 -0.2531  0.1253 -0.0276
  131loPI   C2B 2094   1.864  11.032   8.951  0.2404 -0.1524 -0.2254
  131loPI   C3B 2095   1.845  10.877   8.571 -0.0909 -0.2298 -0.0740
  131loPI   C4B 2096   1.923  11.005   8.069 -0.2913 -0.2378  0.0565
  132loPI    C1 2097  10.142   6.019  11.080 -0.1364 -0.1351 -0.0094
  132loPI    C2 2098   9.800   5.928  11.266 -0.0271 -0.2715  0.1288
  132loPI    C3 2099  10.096   6.105  11.468 -0.0339 -0.1064 -0.0033
  132loPI   PO4 2100   9.993   6.186  10.879 -0.1393  0.0087  0.2997
  132loPI   GL1 2101   9.889   6.272  10.443  0.2205 -0.2204 -0.1288
  132loPI   GL2 2102  10.028   5.992  10.297 -0.0584 -0.0704  0.2331
  132loPI   C1A 2103   9.873   6.602  10.050  0.1046  0.3793  0.0635
  132loPI   C2A 2104   9.893   6.551   9.625  0.2614 -0.0813  0.1089
  132loPI   C3A 2105   9.877   6.671   9.214  0.3730  0.1993 -0.0684
  132loPI   C4A 2106   9.836   6.575   8.750  0.1032 -0.1046 -0.1871
  132loPI   C5A 2107   9.800   6.601   8.296 -0.2038  0.3320 -0.0705
  132loPI   C6A 2108   9.483   6.858   7.996 -0.2050 -0.1022 -0.3122
  132loPI   C1B 2109   9.966   6.051   9.878 -0.1913  0.0170  0.2867
  132loPI   C2B 2110   9.882   6.034   9.475  0.1419  0.4235  0.0755
  132loPI   C3B 2111   9.838   6.166   9.106 -0.1481  0.0029 -0.5601
  132loPI   C4B 2112   9.817   6.098   8.625  0.0913  0.2048  0.0419
  133loPI    C1 2113  15.175  11.569  10.562  0.1230  0.2513 -0.1399
  133loPI    C2 2114  14.869  11.481  10.805  0.3058  0.2359  0.0880
  133loPI    C3 2115  15.015  11.203  10.558  0.1743  0.2261  0.0209
  133loPI   PO4 2116  15.142  11.779  10.389 -0.0122 -0.1208 -0.0249
  133loPI   GL1 2117  15.030  11.733   9.998 -0.1221  0.0085 -0.3981
  133loPI   GL2 2118  14.687  11.662   9.866 -0.2517 -0.2529  0.0765
  133loPI   C1A 2119  15.114  11.635   9.568  0.0333  0.1280 -0.1269
  133loPI   C2A 2120  14.935  11.426   9.264  0.0293  0.0630  0.1270
  133loPI   C3A 2121  14.940  11.454   8.776 -0.1731  0.1212  0.2009
  133loPI   C4A 2122  15.076  11.346   8.340 -0.1750  0.2803 -0.1310
  133loPI   C5A 2123  15.096  11.086   8.000  0.2461 -0.0180  0.2834
  133loPI   C6A 2124  15.260  10.739   7.841 -0.1604 -0.0776 -0.0630
  133loPI   C1B 2125  14.585  11.762   9.446 -0.0962 -0.0258  0.0298
  133loPI   C2B 2126  14.560  11.827   8.939 -0.0991 -0.0365 -0.1942
  133loPI   C3B 2127  14.567  11.715   8.499 -0.1468  0.1043 -0.1913
  133loPI   C4B 2128  14.384  11.911   8.120 -0.4582  0.1854  0.2155
  134loPI    C1 2129   0.877   3.048  10.902  0.2662 -0.1192  0.0230
  134loPI    C2 2130   0.587   2.952  11.160  0.2094 -0.4318 -0.1523
  134loPI    C3 2131   0.970   2.939  11.275  0.1556  0.1416  0.1297
  134loPI   PO4 2132   0.926   2.861  10.658  0.2059 -0.0890  0.3437
  134loPI   GL1 2133   0.644   2.882  10.345  0.1698 -0.0146 -0.0393
  134loPI   GL2 2134   0.387   3.050  10.342 -0.2995 -0.1180 -0.1030
  134loPI   C1A 2135   0.765   2.760   9.980  0.1728  0.0472 -0.1226
  134loPI   C2A 2136   0.746   2.795   9.565  0.1017 -0.2328 -0.2868
  134loPI   C3A 2137   0.688   2.634   9.116 -0.0098 -0.1117  0.1612
  134loPI   C4A 2138   0.804   2.661   8.746  0.1581  0.2233 -0.5675
  134loPI   C5A 2139   1.163   2.705   8.501 -0.1191 -0.2489  0.3931
  134loPI   C6A 2140   1.400   2.607   8.076 -0.2464  0.0599 -0.2318
  134loPI   C1B 2141   0.326   3.006   9.920 -0.1580  0.2199 -0.0152
  134loPI   C2B 2142   0.309   3.003   9.537 -0.0082  0.0845  0.1438
  134loPI   C3B 2143   0.265   2.947   9.040  0.3260  0.0202  0.1538
  134loPI   C4B 2144   0.253   2.727   8.719  0.0420  0.0330  0.1551
  135loPI    C1 2145   7.540  15.870  11.034  0.1654  0.0943 -0.0496
  135loPI    C2 2146   7.465  16.032  11.392 -0.1667  0.0551 -0.0981
  135loPI    C3 2147   7.818  15.858  11.322 -0.1037  0.0510  0.2141
  135loPI   PO4 2148   7.494  16.002  10.845 -0.0038 -0.0740 -0.0956
  135loPI   GL1 2149   7.341  15.849  10.433  0.0659 -0.2431  0.1221
  135loPI   GL2 2150   7.533  15.636  10.336 -0.3745  0.0345 -0.1384
  135loPI   C1A 2151   7.591  16.128  10.070 -0.2398 -0.1608 -0.2490
  135loPI   C2A 2152   7.625  16.300   9.668 -0.0499  0.1359 -0.6023
  135loPI   C3A 2153   7.530  16.288   9.241  0.2186  0.0273 -0.1660
  135loPI   C4A 2154   7.661  16.156   8.827 -0.1907  0.0091  0.1191
  135loPI   C5A 2155   7.706  16.395   8.374  0.0237 -0.5608  0.1343
  135loPI   C6A 2156   7.654  16.322   8.014  0.0420 -0.0500  0.4968
  135loPI   C1B 2157   7.449  15.680   9.931  0.0021  0.1164  0.0858
  135loPI   C2B 2158   7.488  15.781   9.497 -0.2316  0.3730 -0.1154
  135loPI   C3B 2159   7.496  15.772   9.037  0.2396  0.3064 -0.1614
  135loPI   C4B 2160   7.563  15.701   8.599 -0.1647 -0.1756 -0.1292
  136loPI    C1 2161  16.524  15.638  11.092  0.3046  0.0386 -0.1812
  136loPI    C2 2162  16.591  15.462  11.445 -0.0694  0.0597 -0.0963
  136loPI    C3 2163  16.580  15.861  11.419 -0.1960  0.0566 -0.1001
  136loPI   PO4 2164  16.609  15.501  10.916  0.2212  0.1093 -0.1702
  136loPI   GL1 2165  16.684  15.426  10.446  0.1028 -0.1684  0.0487
  136loPI   GL2 2166  16.775  15.715  10.449  0.4317  0.2058  0.1839
  136loPI   C1A 2167  16.728  15.338   9.969  0.5080 -0.2312  0.1229
  136loPI   C2A 2168  16.748  15.275   9.514 -0.1046  0.1335 -0.2143
  136loPI   C3A 2169  16.753  15.279   9.047 -0.1750  0.1414 -0.0068
  136loPI   C4A 2170  16.712  15.279   8.589  0.0980  0.1788  0.0071
  136loPI   C5A 2171  16.822  15.531   8.211  0.1091 -0.0278 -0.2556
  136loPI   C6A 2172  17.188  15.742   8.187 -0.1372 -0.1930  0.2805
  136loPI   C1B 2173  16.826  15.806   9.996 -0.1974 -0.1726  0.1196
  136loPI   C2B 2174  16.827  15.796   9.556  0.2382 -0.3685  0.1876
  136loPI   C3B 2175  16.803  15.787   9.058 -0.2333  0.0840  0.2429
  136loPI   C4B 2176  16.810  15.860   8.609 -0.0505 -0.0019 -0.4475
  137loPI    C1 2177   6.174  12.092  10.744 -0.2138 -0.2943  0.1049
  137loPI    C2 2178   5.956  12.353  10.955 -0.0569 -0.1113  0.0440
  137loPI    C3 2179   6.215  12.112  11.141  0.1756  0.1400  0.0506
  137loPI   PO4 2180   6.236  12.222  10.545  0.0528 -0.2407  0.4244
  137loPI   GL1 2181   6.367  12.407  10.229  0.0939 -0.1420 -0.1191
  137loPI   GL2 2182   6.039  12.181  10.059  0.1291 -0.0107 -0.4191
  137loPI   C1A 2183   6.524  12.439   9.760 -0.2097 -0.1963  0.0527
  137loPI   C2A 2184   6.634  12.394   9.393  0.1351  0.0193  0.0511
  137loPI   C3A 2185   6.583  12.529   9.020  0.0749  0.2580 -0.0095
  137loPI   C4A 2186   6.578  12.488   8.597 -0.1334 -0.1297 -0.2473
  137loPI   C5A 2187   6.858  12.231   8.411 -0.0402  0.0862 -0.0617
  137loPI   C6A 2188   7.372  12.093   8.238  0.1025  0.0982  0.2669
  137loPI   C1B 2189   6.119  12.245   9.588  0.3526 -0.0248  0.1272
  137loPI   C2B 2190   6.145  12.261   9.167 -0.1697 -0.2338  0.2163
  137loPI   C3B 2191   6.019  12.229   8.746  0.0986 -0.1126  0.3350
  137loPI   C4B 2192   6.146  12.291   8.327 -0.0023  0.0173 -0.1565
  138loPI    C1 2193   8.621   7.999  11.238 -0.0062  0.1458  0.0619
  138loPI    C2 2194   8.736   7.652  11.075 -0.0348  0.1521  0.0283
  138loPI    C3 2195   8.867   7.755  11.438  0.1662  0.2163 -0.0607
  138loPI   PO4 2196   8.584   8.145  11.074 -0.1315 -0.1716 -0.4194
  138loPI   GL1 2197   8.721   8.040  10.748 -0.2100 -0.2267  0.2188
  138loPI   GL2 2198   8.555   7.935  10.543  0.1199 -0.0163  0.1122
  138loPI   C1A 2199   9.068   8.214  10.446 -0.2238 -0.0217 -0.0108
  138loPI   C2A 2200   9.027   8.191   9.975 -0.0437 -0.0223  0.1001
  138loPI   C3A 2201   9.076   8.154   9.615 -0.1209 -0.0283  0.1080
  138loPI   C4A 2202   9.160   8.232   9.178  0.1027 -0.0560  0.0046
  138loPI   C5A 2203   9.130   8.276   8.815 -0.1074  0.2645  0.1866
  138loPI   C6A 2204   9.147   8.612   8.473  0.0567 -0.2525 -0.0196
  138loPI   C1B 2205   8.548   7.899  10.070  0.0889  0.0147  0.2884
  138loPI   C2B 2206   8.561   7.964   9.651  0.0528  0.0303  0.0021
  138loPI   C3B 2207   8.730   7.970   9.251 -0.1587  0.2307  0.0223
  138loPI   C4B 2208   8.811   7.946   8.842  0.1444  0.0016 -0.0015
  139loPI    C1 2209  13.794  10.492  10.752  0.0854 -0.0998  0.2128
  139loPI    C2 2210  14.081  10.278  10.930  0.1235 -0.1173  0.1308
  139loPI    C3 2211  13.722  10.314  11.103  0.1434 -0.1780  0.1855
  139loPI   PO4 2212  13.846  10.388  10.525  0.0482  0.1068 -0.1066
  139loPI   GL1 2213  13.730  10.357  10.185 -0.0625  0.1227  0.1814
  139loPI   GL2 2214  13.481  10.149  10.049  0.2536  0.1225 -0.1123
  139loPI   C1A 2215  13.972  10.454   9.785  0.1482  0.0072 -0.1768
  139loPI   C2A 2216  14.029  10.415   9.370  0.2597  0.2077 -0.0069
  139loPI   C3A 2217  14.018  10.468   8.883 -0.2548  0.0215 -0.0433
  139loPI   C4A 2218  14.066  10.448   8.476 -0.1518  0.4299 -0.2508
  139loPI   C5A 2219  13.808  10.554   8.119 -0.1553 -0.0834 -0.0765
  139loPI   C6A 2220  13.490  10.422   7.935  0.0250 -0.2187  0.2135
  139loPI   C1B 2221  13.507  10.174   9.702  0.2740  0.2331 -0.1190
  139loPI   C2B 2222  13.526  10.226   9.304  0.0206  0.0509  0.3732
  139loPI   C3B 2223  13.602  10.196   8.886  0.3303 -0.2150 -0.0686
  139loPI   C4B 2224  13.547  10.223   8.448 -0.3145 -0.0846 -0.1415
  140loPI    C1 2225   2.932   3.180  10.881  0.2034  0.2812  0.1076
  140loPI    C2 2226   3.129   2.866  11.031 -0.2280 -0.0755 -0.0505
  140loPI    C3 2227   2.834   3.035  11.241 -0.3106 -0.0779 -0.1641
  140loPI   PO4 2228   2.837   3.072  10.597 -0.0136  0.0893 -0.0811
  140loPI   GL1 2229   3.085   3.208  10.307 -0.3301  0.1782  0.1292
  140loPI   GL2 2230   2.864   3.493  10.330  0.2200 -0.3691 -0.0537
  140loPI   C1A 2231   3.030   3.048   9.885 -0.0743  0.0639  0.3140
  140loPI   C2A 2232   3.030   2.993   9.502  0.1740  0.2397  0.1776
  140loPI   C3A 2233   3.041   2.994   9.115 -0.2538 -0.1665  0.4238
  140loPI   C4A 2234   3.031   3.020   8.638 -0.1282  0.3768 -0.0535
  140loPI   C5A 2235   3.131   3.041   8.198 -0.1101 -0.0099  0.1985
  140loPI   C6A 2236   3.330   3.051   7.847  0.0689  0.0042  0.0298
  140loPI   C1B 2237   2.992   3.582   9.879  0.3277  0.3385 -0.1407
  140loPI   C2B 2238   3.043   3.523   9.387 -0.1102 -0.1151  0.1434
  140loPI   C3B 2239   3.024   3.544   8.984 -0.0755  0.0603  0.0202
  140loPI   C4B 2240   3.033   3.509   8.498 -0.0804  0.0649  0.0115
  141loPI    C1 2241  17.448  12.646  10.599  0.1672 -0.0626  0.2001
  141loPI    C2 2242  17.398  13.043  10.595 -0.1700 -0.1027 -0.0997
  141loPI    C3 2243  17.734  12.885  10.743 -0.1892  0.2734  0.3693
  141loPI   PO4 2244  17.323  12.592  10.390  0.0333  0.1510  0.2298
  141loPI   GL1 2245  17.141  12.649   9.950  0.0265  0.0581 -0.1665
  141loPI   GL2 2246  17.415  12.552   9.882  0.0476 -0.2399 -0.1832
  141loPI   C1A 2247  16.788  12.692   9.569 -0.0063  0.1485 -0.3307
  141loPI   C2A 2248  16.578  12.733   9.205  0.1428 -0.3797  0.0706
  141loPI   C3A 2249  16.598  12.629   8.865 -0.1471 -0.0838  0.1196
  141loPI   C4A 2250  16.439  12.334   8.557  0.0845 -0.1186  0.0122
  141loPI   C5A 2251  16.268  11.953   8.354 -0.0026  0.1255 -0.0425
  141loPI   C6A 2252  15.871  11.770   8.099 -0.0858  0.0004  0.1274
  141loPI   C1B 2253  17.305  12.762   9.460 -0.0884  0.2153 -0.2261
  141loPI   C2B 2254  17.128  12.744   9.079  0.1038 -0.1201 -0.1094
  141loPI   C3B 2255  17.154  12.670   8.700  0.2968 -0.1453  0.1719
  141loPI   C4B 2256  17.040  12.578   8.236  0.0879 -0.4452  0.1307
  142loPI    C1 2257   7.898   4.022  10.790 -0.1736 -0.1795  0.0791
  142loPI    C2 2258   8.044   3.814  11.100 -0.0495  0.1025  0.2127
  142loPI    C3 2259   7.928   4.194  11.150 -0.2660  0.0715 -0.0309
  142loPI   PO4 2260   7.974   3.917  10.560 -0.1294  0.0718 -0.2185
  142loPI   GL1 2261   7.854   3.958  10.163  0.0374  0.3312 -0.4687
  142loPI   GL2 2262   8.209   3.764  10.131 -0.0601  0.0633  0.0378
  142loPI   C1A 2263   7.918   4.167   9.842 -0.0445 -0.2738 -0.0454
  142loPI   C2A 2264   7.943   4.150   9.424  0.2472  0.2072  0.1262
  142loPI   C3A 2265   8.076   4.125   9.028 -0.0451  0.1051  0.1992
  142loPI   C4A 2266   8.060   4.099   8.616  0.0526  0.2328 -0.1268
  142loPI   C5A 2267   7.773   4.052   8.283 -0.1240  0.1645  0.1400
  142loPI   C6A 2268   7.452   3.719   8.105  0.3381  0.0301 -0.1865
  142loPI   C1B 2269   8.000   3.627   9.795 -0.2752  0.0672 -0.0908
  142loPI   C2B 2270   8.020   3.698   9.347  0.2361 -0.0370  0.0060
  142loPI   C3B 2271   7.949   3.605   8.869 -0.4090 -0.1983 -0.1395
  142loPI   C4B 2272   7.985   3.631   8.430  0.0829 -0.0017 -0.1041
  143loPI    C1 2273  15.587  17.917  11.379  0.0916  0.1354  0.0385
  143loPI    C2 2274  15.374  18.088  11.671 -0.2151  0.0645 -0.1391
  143loPI    C3 2275  15.742  17.951  11.746 -0.2282  0.1915  0.1720
  143loPI   PO4 2276  15.587  18.102  11.162 -0.3054 -0.2382  0.0820
  143loPI   GL1 2277  15.481  18.143  10.716  0.1091 -0.0428 -0.0418
  143loPI   GL2 2278  15.268  18.472  10.841 -0.2694 -0.0414  0.2249
  143loPI   C1A 2279  15.422  18.122  10.268  0.0630  0.0242  0.3757
  143loPI   C2A 2280  15.403  18.172   9.822 -0.1653 -0.2280  0.2005
  143loPI   C3A 2281  15.429  18.090   9.469 -0.0152 -0.3647  0.1041
  143loPI   C4A 2282  15.486  18.073   8.944 -0.3561  0.0588 -0.0385
  143loPI   C5A 2283  15.744  18.001   8.542  0.1545  0.2900  0.0183
  143loPI   C6A 2284  15.841  18.254   8.145 -0.0874  0.2081  0.1456
  143loPI   C1B 2285  15.094  18.551  10.399  0.2166 -0.1519  0.2863
  143loPI   C2B 2286  15.018  18.532   9.977 -0.1071 -0.0014  0.0089
  143loPI   C3B 2287  15.026  18.497   9.588 -0.0786 -0.1089  0.1461
  143loPI   C4B 2288  15.013  18.395   9.119  0.1809  0.0909 -0.2290
  144loPI    C1 2289   1.083  16.555  10.957 -0.2041  0.1735 -0.0076
  144loPI    C2 2290   1.133  16.278  11.241 -0.0473  0.1382 -0.0686
  144loPI    C3 2291   0.862  16.568  11.290  0.0693  0.2080  0.1757
  144loPI   PO4 2292   1.283  16.423  10.801  0.2167  0.2959 -0.1672
  144loPI   GL1 2293   1.420  16.371  10.473  0.3959  0.0257  0.2252
  144loPI   GL2 2294   1.440  16.743  10.425 -0.0977  0.1504 -0.2589
  144loPI   C1A 2295   1.313  16.254  10.129  0.0419  0.1766 -0.1562
  144loPI   C2A 2296   1.252  16.313   9.732  0.0865 -0.0700  0.0651
  144loPI   C3A 2297   1.233  16.312   9.296 -0.1368  0.4676  0.0530
  144loPI   C4A 2298   1.228  16.317   8.874 -0.1605  0.1339  0.1103
  144loPI   C5A 2299   1.126  16.390   8.408  0.2081 -0.0212  0.1020
  144loPI   C6A 2300   0.966  16.156   8.102 -0.0524 -0.3020 -0.0403
  144loPI   C1B 2301   1.357  16.774  10.031  0.2882 -0.0605  0.1269
  144loPI   C2B 2302   1.312  16.785   9.531  0.0531  0.2292  0.1607
  144loPI   C3B 2303   1.154  16.791   9.108  0.1609 -0.0736  0.0782
  144loPI   C4B 2304   1.212  16.828   8.673  0.0517 -0.0563  0.0123
  145loPI    C1 2305   9.615   5.227  11.088  0.1928 -0.1863  0.2894
  145loPI    C2 2306   9.458   5.590  11.029  0.4264 -0.1648 -0.2631
  145loPI    C3 2307   9.538   5.465  11.400 -0.2700  0.0784 -0.0147
  145loPI   PO4 2308   9.619   5.188  10.762 -0.2362 -0.2959 -0.0573
  145loPI   GL1 2309   9.691   5.445  10.438  0.1525  0.5791 -0.1465
  145loPI   GL2 2310   9.543   5.833  10.325  0.1139 -0.1268  0.1082
  145loPI   C1A 2311   9.922   5.565  10.059  0.1342  0.0537 -0.3918
  145loPI   C2A 2312   9.989   5.590   9.710  0.1135 -0.1679  0.2763
  145loPI   C3A 2313  10.024   5.592   9.277 -0.0093  0.1043  0.3340
  145loPI   C4A 2314   9.995   5.569   8.815  0.1961  0.0325  0.1455
  145loPI   C5A 2315   9.768   5.433   8.450 -0.4899 -0.3011  0.0692
  145loPI   C6A 2316   9.347   5.302   8.373 -0.2447  0.0314  0.0711
  145loPI   C1B 2317   9.428   5.829   9.896 -0.2106  0.0973 -0.0048
  145loPI   C2B 2318   9.426   5.850   9.521  0.1048  0.0339  0.0963
  145loPI   C3B 2319   9.527   5.774   9.105  0.0442  0.0109  0.0526
  145loPI   C4B 2320   9.360   5.824   8.627  0.2387 -0.1984 -0.1170
  146loPI    C1 2321  10.224  17.486  10.933  0.0629 -0.2636  0.1085
  146loPI    C2 2322  10.360  17.634  11.278  0.0422 -0.1356  0.0622
  146loPI    C3 2323  10.045  17.802  11.099  0.0322 -0.2226 -0.0019
  146loPI   PO4 2324  10.430  17.450  10.768  0.2377 -0.2026 -0.2602
  146loPI   GL1 2325  10.740  17.565  10.421  0.0667  0.1883 -0.0197
  146loPI   GL2 2326  11.023  17.652  10.296 -0.0618  0.4592 -0.3045
  146loPI   C1A 2327  10.733  17.332   9.995  0.4638 -0.2949  0.0159
  146loPI   C2A 2328  10.781  17.439   9.583  0.2132 -0.2764  0.0992
  146loPI   C3A 2329  10.789  17.450   9.169 -0.2983  0.0757 -0.0255
  146loPI   C4A 2330  10.830  17.443   8.747  0.0305  0.0788  0.1861
  146loPI   C5A 2331  10.937  17.331   8.309  0.0089 -0.0828  0.1562
  146loPI   C6A 2332  11.061  17.471   7.954 -0.0590  0.0784  0.1416
  146loPI   C1B 2333  11.189  17.630   9.852  0.1925  0.0725 -0.2047
  146loPI   C2B 2334  11.226  17.610   9.465 -0.3730  0.0576  0.1348
  146loPI   C3B 2335  11.192  17.707   8.964  0.1660  0.2112  0.2376
  146loPI   C4B 2336  11.262  17.686   8.571  0.1485  0.0417 -0.0553
  147loPI    C1 2337   6.539  15.063  10.744  0.1227  0.1276 -0.0849
  147loPI    C2 2338   6.501  15.430  10.897 -0.0175  0.2346 -0.3694
  147loPI    C3 2339   6.857  15.248  10.902 -0.0077  0.2565  0.0285
  147loPI   PO4 2340   6.474  15.040  10.516 -0.2084  0.1256  0.0621
  147loPI   GL1 2341   6.433  14.750  10.248  0.4652 -0.3214 -0.1904
  147loPI   GL2 2342   6.708  14.472  10.139 -0.1779  0.0725 -0.2333
  147loPI   C1A 2343   6.453  14.869   9.821 -0.0299  0.2716 -0.1051
  147loPI   C2A 2344   6.354  14.916   9.409  0.1952 -0.4909 -0.3068
  147loPI   C3A 2345   6.509  14.940   8.992  0.1573  0.1935 -0.1971
  147loPI   C4A 2346   6.523  14.956   8.521 -0.1853  0.1365  0.1708
  147loPI   C5A 2347   6.423  14.967   8.106  0.1917  0.2411 -0.1618
  147loPI   C6A 2348   6.578  15.241   7.747 -0.2126  0.0622  0.1683
  147loPI   C1B 2349   6.842  14.574   9.680  0.1859 -0.1739  0.1725
  147loPI   C2B 2350   6.849  14.617   9.194  0.1208 -0.0778  0.4139
  147loPI   C3B 2351   6.915  14.616   8.739  0.1011 -0.2699  0.0977
  147loPI   C4B 2352   6.774  14.631   8.263  0.0771 -0.2434  0.0436
  148loPI    C1 2353   1.037  10.865  10.753 -0.0452  0.2765  0.0058
  148loPI    C2 2354   0.722  11.007  10.955 -0.0065 -0.0710  0.3206
  148loPI    C3 2355   1.073  10.959  11.140  0.1877  0.1457  0.0172
  148loPI   PO4 2356   0.931  10.981  10.448  0.2750  0.3750  0.1192
  148loPI   GL1 2357   0.984  11.027   9.962 -0.1283  0.2707 -0.2302
  148loPI   GL2 2358   1.398  11.026   9.959  0.3621  0.0071  0.1276
  148loPI   C1A 2359   0.962  11.032   9.490 -0.1668  0.1270 -0.1169
  148loPI   C2A 2360   0.945  11.070   8.984 -0.0466 -0.0342  0.1271
  148loPI   C3A 2361   0.978  11.096   8.597 -0.0653 -0.0399 -0.0735
  148loPI   C4A 2362   1.193  11.323   8.270  0.3973  0.0540  0.1271
  148loPI   C5A 2363   1.089  11.659   7.987 -0.1380 -0.1035  0.0792
  148loPI   C6A 2364   1.029  11.971   7.729  0.2957 -0.0106 -0.1812
  148loPI   C1B 2365   1.426  10.860   9.610  0.1905  0.0548  0.0335
  148loPI   C2B 2366   1.376  10.750   9.163  0.2437  0.1436  0.2063
  148loPI   C3B 2367   1.400  10.739   8.726 -0.2975  0.3314 -0.2900
  148loPI   C4B 2368   1.388  10.866   8.340  0.1961 -0.0870  0.1243
  149loPI    C1 2369   8.724   6.528  11.339 -0.3197  0.1341  0.1315
  149loPI    C2 2370   8.752   6.153  11.477 -0.3963  0.0651 -0.0369
  149loPI    C3 2371   8.680   6.455  11.730 -0.4233 -0.0450  0.0879
  149loPI   PO4 2372   8.609   6.539  11.177  0.0533  0.0550  0.1755
  149loPI   GL1 2373   8.503   6.560  10.790  0.1899 -0.0116  0.0431
  149loPI   GL2 2374   8.843   6.527  10.664 -0.0044  0.2165 -0.2124
  149loPI   C1A 2375   8.587   6.832  10.340  0.0420 -0.1631 -0.3048
  149loPI   C2A 2376   8.608   6.884   9.915  0.0364  0.1322 -0.0289
  149loPI   C3A 2377   8.648   6.970   9.456  0.1194  0.1495  0.1035
  149loPI   C4A 2378   8.575   6.990   9.017  0.0967  0.1404 -0.2346
  149loPI   C5A 2379   8.511   7.033   8.630  0.0245  0.0104 -0.0074
  149loPI   C6A 2380   8.757   7.316   8.261  0.1300 -0.1315 -0.0127
  149loPI   C1B 2381   9.010   6.604  10.288  0.1321 -0.1480  0.2235
  149loPI   C2B 2382   9.006   6.580   9.839  0.2278 -0.2248 -0.0674
  149loPI   C3B 2383   8.937   6.600   9.389  0.0105 -0.1101  0.4227
  149loPI   C4B 2384   9.051   6.724   8.982 -0.1249  0.0527 -0.0972
  150loPI    C1 2385   8.808   7.038  11.257  0.0526  0.2044  0.0551
  150loPI    C2 2386   8.580   7.313  11.436 -0.2845  0.0338 -0.1017
  150loPI    C3 2387   8.609   6.946  11.591 -0.2393  0.0093 -0.1678
  150loPI   PO4 2388   8.786   7.040  10.895  0.1931  0.4069 -0.1752
  150loPI   GL1 2389   9.000   7.078  10.534  0.0938 -0.0947  0.1528
  150loPI   GL2 2390   9.252   6.954  10.678 -0.3896 -0.2440 -0.1654
  150loPI   C1A 2391   9.021   7.096  10.075  0.1463 -0.1567  0.1351
  150loPI   C2A 2392   9.054   7.140   9.634  0.0603  0.1463  0.1864
  150loPI   C3A 2393   9.069   7.204   9.191  0.0036  0.3433 -0.2388
  150loPI   C4A 2394   9.018   7.211   8.775 -0.1243 -0.1247  0.0847
  150loPI   C5A 2395   9.011   6.858   8.406  0.0513 -0.2377 -0.2094
  150loPI   C6A 2396   8.729   6.875   8.121 -0.2199 -0.1834 -0.1174
  150loPI   C1B 2397   9.474   6.955  10.295 -0.1985  0.1147  0.0457
  150loPI   C2B 2398   9.449   6.836   9.886 -0.2638  0.0250  0.0191
  150loPI   C3B 2399   9.421   6.843   9.416 -0.4140  0.1150 -0.0771
  150loPI   C4B 2400   9.521   6.993   8.955 -0.3382  0.0165  0.0237
  151loPI    C1 2401  11.601   2.051  11.073 -0.0270 -0.0560 -0.0847
  151loPI    C2 2402  11.913   1.989  10.830  0.0438  0.2230 -0.0686
  151loPI    C3 2403  11.852   2.351  10.989 -0.1288  0.0992  0.1535
  151loPI   PO4 2404  11.395   1.991  10.904  0.1204 -0.1459 -0.0759
  151loPI   GL1 2405  11.256   2.205  10.519  0.2135  0.4247  0.1893
  151loPI   GL2 2406  11.595   2.124  10.405  0.0658  0.0013  0.1629
  151loPI   C1A 2407  11.166   2.032  10.089 -0.1345 -0.1213  0.0511
  151loPI   C2A 2408  11.099   2.138   9.615  0.0113  0.0912 -0.4110
  151loPI   C3A 2409  11.009   2.099   9.282 -0.0609  0.0996  0.0817
  151loPI   C4A 2410  11.115   2.203   8.853  0.0684 -0.0487  0.0259
  151loPI   C5A 2411  11.021   2.255   8.457  0.0917 -0.1229 -0.1054
  151loPI   C6A 2412  11.323   2.469   8.157  0.0047  0.0298  0.1628
  151loPI   C1B 2413  11.593   2.285  10.043  0.1005 -0.0817  0.1998
  151loPI   C2B 2414  11.533   2.362   9.511 -0.0886 -0.3015 -0.0564
  151loPI   C3B 2415  11.638   2.503   9.116  0.0253  0.2614  0.1858
  151loPI   C4B 2416  11.557   2.405   8.623  0.1990  0.1572 -0.0809
  152loPI    C1 2417   7.983   5.641  11.356  0.2536 -0.0016  0.0045
  152loPI    C2 2418   8.200   5.315  11.438  0.0230 -0.1636 -0.0166
  152loPI    C3 2419   8.102   5.569  11.731  0.2850 -0.0591 -0.0164
  152loPI   PO4 2420   8.139   5.706  11.134  0.0178  0.1205  0.2999
  152loPI   GL1 2421   8.090   5.888  10.701  0.0506 -0.1146 -0.2076
  152loPI   GL2 2422   8.162   6.187  10.576  0.1579  0.1171  0.1850
  152loPI   C1A 2423   8.018   5.591  10.374  0.0095  0.0222  0.2677
  152loPI   C2A 2424   8.079   5.622   9.884  0.3295 -0.0412  0.0262
  152loPI   C3A 2425   8.051   5.688   9.431  0.1658 -0.0112 -0.1339
  152loPI   C4A 2426   8.091   5.624   8.979 -0.1179  0.0310 -0.0580
  152loPI   C5A 2427   8.183   5.782   8.605  0.0144 -0.1358  0.1207
  152loPI   C6A 2428   8.269   5.796   8.268 -0.3728 -0.0094  0.1447
  152loPI   C1B 2429   7.985   6.093  10.163 -0.0886 -0.2011 -0.1660
  152loPI   C2B 2430   8.113   6.112   9.695 -0.0622  0.0589 -0.0214
  152loPI   C3B 2431   8.118   6.230   9.334  0.1857 -0.0496 -0.1135
  152loPI   C4B 2432   8.209   6.154   8.894  0.3401 -0.0671  0.1186
  153loPI    C1 2433  13.222   6.674  11.334  0.0195  0.1741  0.1758
  153loPI    C2 2434  13.593   6.587  11.456  0.0342  0.0438  0.0416
  153loPI    C3 2435  13.279   6.493  11.687  0.0684 -0.0953  0.0324
  153loPI   PO4 2436  13.202   6.625  11.001 -0.1725 -0.0224 -0.0500
  153loPI   GL1 2437  13.123   6.925  10.634  0.1445 -0.0489  0.1130
  153loPI   GL2 2438  13.320   6.649  10.520 -0.0376 -0.0599  0.2919
  153loPI   C1A 2439  12.933   6.837  10.247 -0.1426  0.0738  0.1631
  153loPI   C2A 2440  12.994   6.771   9.795  0.1139  0.0131  0.0709
  153loPI   C3A 2441  13.071   6.771   9.388  0.2259  0.1849 -0.2359
  153loPI   C4A 2442  13.148   6.826   8.936 -0.1710 -0.1476  0.0715
  153loPI   C5A 2443  13.073   6.828   8.525 -0.2108 -0.0622 -0.0461
  153loPI   C6A 2444  12.747   7.192   8.381  0.2118 -0.0952 -0.0483
  153loPI   C1B 2445  13.453   6.542  10.124 -0.0415  0.0673 -0.0915
  153loPI   C2B 2446  13.494   6.544   9.764 -0.1621 -0.0859  0.1858
  153loPI   C3B 2447  13.538   6.524   9.243  0.1419 -0.0963 -0.0813
  153loPI   C4B 2448  13.548   6.582   8.824  0.0974  0.3729  0.1775
  154loPI    C1 2449   0.110   3.135  10.904 -0.2594  0.0252 -0.2062
  154loPI    C2 2450  -0.213   3.114  11.139 -0.2463 -0.0945 -0.1982
  154loPI    C3 2451   0.127   3.269  11.281 -0.2776 -0.0403 -0.1821
  154loPI   PO4 2452   0.063   3.053  10.685 -0.0714 -0.2995  0.0117
  154loPI   GL1 2453   0.089   2.663  10.420  0.1206 -0.0785  0.0551
  154loPI   GL2 2454  -0.117   2.835  10.289  0.3004 -0.0438  0.5407
  154loPI   C1A 2455   0.336   2.538  10.137 -0.4165  0.1278  0.0476
  154loPI   C2A 2456   0.322   2.454   9.703  0.0409  0.2291 -0.0652
  154loPI   C3A 2457   0.245   2.428   9.257  0.1007 -0.1952  0.5543
  154loPI   C4A 2458   0.332   2.263   8.880  0.0366 -0.0187 -0.0359
  154loPI   C5A 2459   0.454   2.230   8.497  0.2309 -0.1037  0.1606
  154loPI   C6A 2460   0.044   2.465   8.293 -0.0636  0.0792 -0.0016
  154loPI   C1B 2461  -0.106   2.741   9.927 -0.2756  0.1677  0.1589
  154loPI   C2B 2462  -0.135   2.725   9.522  0.3583  0.3741  0.1407
  154loPI   C3B 2463  -0.227   2.724   9.009  0.0626 -0.0703 -0.2213
  154loPI   C4B 2464  -0.266   2.782   8.624  0.2231 -0.1082  0.0645
  155loPI    C1 2465   7.154  14.328  10.796 -0.0770 -0.0580  0.1020
  155loPI    C2 2466   7.280  14.627  11.031 -0.0784 -0.1380  0.2049
  155loPI    C3 2467   7.532  14.334  10.927 -0.0272 -0.0096 -0.0415
  155loPI   PO4 2468   7.072  14.409  10.550 -0.1769 -0.1434  0.1804
  155loPI   GL1 2469   7.264  14.254  10.176  0.0436 -0.2471 -0.1917
  155loPI   GL2 2470   7.222  14.649  10.079 -0.1343 -0.1453  0.2438
  155loPI   C1A 2471   7.254  14.192   9.781 -0.3269 -0.1285 -0.0156
  155loPI   C2A 2472   7.206  14.286   9.375  0.1779 -0.1332  0.1942
  155loPI   C3A 2473   7.302  14.303   8.933 -0.1375  0.0888 -0.4754
  155loPI   C4A 2474   7.205  14.247   8.489 -0.0721  0.0942  0.0507
  155loPI   C5A 2475   7.043  14.296   8.065 -0.3285  0.0951 -0.0195
  155loPI   C6A 2476   7.181  14.362   7.632  0.2251 -0.2609 -0.2137
  155loPI   C1B 2477   7.305  14.761   9.697  0.0552  0.1482 -0.0372
  155loPI   C2B 2478   7.374  14.815   9.280 -0.3404  0.1026 -0.0656
  155loPI   C3B 2479   7.388  14.751   8.856 -0.0999  0.1971 -0.0307
  155loPI   C4B 2480   7.262  14.702   8.322 -0.2436 -0.0178  0.0760
  156loPI    C1 2481   6.295  10.971  11.016 -0.2836 -0.2527  0.0435
  156loPI    C2 2482   6.029  11.053  11.303 -0.0803  0.0144  0.1605
  156loPI    C3 2483   6.391  11.223  11.312 -0.0447 -0.0332 -0.2143
  156loPI   PO4 2484   6.205  11.010  10.813 -0.1647 -0.1413  0.1736
  156loPI   GL1 2485   6.269  10.746  10.502 -0.3602 -0.2842 -0.2932
  156loPI   GL2 2486   6.293  10.952  10.226  0.0812  0.1543 -0.1776
  156loPI   C1A 2487   6.286  10.389  10.289 -0.0925 -0.1351 -0.0252
  156loPI   C2A 2488   6.355  10.352   9.892 -0.0613 -0.3279 -0.0066
  156loPI   C3A 2489   6.398  10.379   9.387 -0.0505  0.0275 -0.3776
  156loPI   C4A 2490   6.395  10.362   8.971  0.2488  0.2776  0.1417
  156loPI   C5A 2491   6.456  10.389   8.600  0.0466  0.0762 -0.1803
  156loPI   C6A 2492   6.790  10.449   8.322 -0.1481 -0.1336 -0.1234
  156loPI   C1B 2493   6.435  10.915   9.778  0.0282 -0.0753  0.3190
  156loPI   C2B 2494   6.479  10.878   9.339 -0.0438 -0.1681  0.0915
  156loPI   C3B 2495   6.390  10.929   8.965 -0.0145  0.1241  0.0014
  156loPI   C4B 2496   6.525  10.917   8.504  0.4526 -0.1933  0.0546
  157loPI    C1 2497  11.735  11.322  10.850  0.0041  0.1779  0.1281
  157loPI    C2 2498  11.531  10.980  10.885  0.0643  0.1045 -0.2077
  157loPI    C3 2499  11.860  11.040  11.105 -0.1040  0.0665  0.0588
  157loPI   PO4 2500  11.643  11.440  10.628 -0.0541 -0.0432 -0.2373
  157loPI   GL1 2501  11.992  11.532  10.356  0.0772 -0.1025 -0.2153
  157loPI   GL2 2502  11.937  11.270  10.230  0.1584  0.0666  0.1294
  157loPI   C1A 2503  12.163  11.706   9.995 -0.1681  0.0093  0.2050
  157loPI   C2A 2504  12.053  11.750   9.530  0.1946  0.0460 -0.0398
  157loPI   C3A 2505  11.937  11.698   9.146  0.0436 -0.0748 -0.2482
  157loPI   C4A 2506  11.975  11.647   8.773  0.1551 -0.3353  0.0107
  157loPI   C5A 2507  11.979  11.512   8.335 -0.2868  0.3013  0.0425
  157loPI   C6A 2508  12.042  11.244   8.110 -0.0816 -0.0627 -0.1289
  157loPI   C1B 2509  11.807  11.388   9.863 -0.0192 -0.2187 -0.2444
  157loPI   C2B 2510  11.847  11.302   9.409  0.1417 -0.0536  0.0258
  157loPI   C3B 2511  11.825  11.132   8.980 -0.0684  0.0277 -0.1582
  157loPI   C4B 2512  11.826  11.083   8.525  0.1101  0.0920  0.2927
  158loPI    C1 2513  12.583   2.779  11.187  0.0461 -0.0803  0.2335
  158loPI    C2 2514  12.678   3.058  11.457  0.0242 -0.1032  0.2649
  158loPI    C3 2515  12.295   2.994  11.362  0.0504  0.1384 -0.0207
  158loPI   PO4 2516  12.673   2.832  10.966  0.0025  0.1746 -0.0936
  158loPI   GL1 2517  12.829   3.062  10.679 -0.2462 -0.1651  0.0003
  158loPI   GL2 2518  13.091   2.842  10.653  0.1462  0.0109  0.1279
  158loPI   C1A 2519  12.884   3.224  10.318  0.1349  0.2033 -0.0166
  158loPI   C2A 2520  12.909   3.157   9.820 -0.1343  0.1481 -0.0248
  158loPI   C3A 2521  12.965   3.223   9.353  0.3781 -0.0079  0.1818
  158loPI   C4A 2522  12.936   3.213   8.906 -0.0555 -0.4140  0.1117
  158loPI   C5A 2523  12.772   3.166   8.532 -0.3866  0.0551 -0.1570
  158loPI   C6A 2524  12.540   3.080   8.122 -0.0713  0.0017  0.0484
  158loPI   C1B 2525  12.934   2.672  10.283  0.0926  0.0562  0.0917
  158loPI   C2B 2526  12.956   2.578   9.861 -0.0946 -0.0683 -0.2094
  158loPI   C3B 2527  12.889   2.667   9.419 -0.1821 -0.0987  0.1100
  158loPI   C4B 2528  12.960   2.750   9.035 -0.1309  0.1995  0.0984
  159loPI    C1 2529   1.834   2.847  10.997 -0.1517  0.1678 -0.1443
  159loPI    C2 2530   2.029   2.574  11.215 -0.2409 -0.0781 -0.3668
  159loPI    C3 2531   1.978   2.945  11.358  0.0953 -0.1048 -0.1652
  159loPI   PO4 2532   1.914   2.784  10.756 -0.0984 -0.2273  0.0926
  159loPI   GL1 2533   1.931   3.054  10.411  0.0086 -0.4864 -0.0901
  159loPI   GL2 2534   1.805   3.407  10.393  0.0032 -0.0507 -0.0761
  159loPI   C1A 2535   2.125   3.048   9.988  0.3085 -0.4731 -0.2308
  159loPI   C2A 2536   2.208   3.008   9.579 -0.2649  0.2529  0.1746
  159loPI   C3A 2537   2.107   3.029   9.094  0.1301 -0.1139  0.1748
  159loPI   C4A 2538   2.149   3.043   8.697  0.2258  0.2224 -0.2025
  159loPI   C5A 2539   2.189   3.122   8.322  0.3560 -0.0861 -0.0459
  159loPI   C6A 2540   2.309   2.997   8.009 -0.0833  0.2891  0.3125
  159loPI   C1B 2541   1.725   3.371  10.036 -0.0774  0.2065  0.0297
  159loPI   C2B 2542   1.791   3.313   9.762 -0.0866 -0.1476  0.0842
  159loPI   C3B 2543   1.672   3.278   9.406  0.0598 -0.1917 -0.2549
  159loPI   C4B 2544   1.702   3.275   8.949 -0.0360 -0.1503 -0.0956
  160loPI    C1 2545  10.892  17.951  10.652  0.0202 -0.2345  0.0535
  160loPI    C2 2546  11.042  18.041  11.012 -0.1002  0.1039  0.0219
  160loPI    C3 2547  10.686  17.860  10.983 -0.1104  0.1157  0.0729
  160loPI   PO4 2548  10.941  18.141  10.545  0.2989 -0.1748 -0.1653
  160loPI   GL1 2549  11.176  18.324  10.265  0.1199  0.0321 -0.0089
  160loPI   GL2 2550  10.900  18.471  10.088 -0.1050 -0.4005  0.1454
  160loPI   C1A 2551  11.356  18.136   9.899  0.1554  0.0036  0.0470
  160loPI   C2A 2552  11.361  18.100   9.562  0.2765 -0.2618 -0.3377
  160loPI   C3A 2553  11.308  18.220   9.215  0.1416 -0.0391  0.1217
  160loPI   C4A 2554  11.372  18.244   8.825 -0.1852  0.1876  0.3245
  160loPI   C5A 2555  11.590  18.079   8.480 -0.4519  0.1447  0.1098
  160loPI   C6A 2556  11.979  17.897   8.464  0.0557  0.1231  0.0814
  160loPI   C1B 2557  10.992  18.518   9.632 -0.1769 -0.1657 -0.0392
  160loPI   C2B 2558  10.994  18.572   9.203  0.0743  0.1772  0.0406
  160loPI   C3B 2559  11.016  18.614   8.798  0.1120  0.5140  0.0101
  160loPI   C4B 2560  11.174  18.286   8.376  0.0181  0.2387  0.5195
  161loPI    C1 2561  17.304   2.583  11.020 -0.0006 -0.1718  0.0899
  161loPI    C2 2562  17.264   2.439  11.392  0.0063  0.0181  0.1653
  161loPI    C3 2563  17.610   2.605  11.277 -0.0466  0.1004  0.1241
  161loPI   PO4 2564  17.092   2.480  10.916  0.1109  0.1768  0.0031
  161loPI   GL1 2565  16.961   2.245  10.660  0.0019 -0.1433  0.0190
  161loPI   GL2 2566  16.856   1.885  10.651 -0.2390  0.0456  0.0794
  161loPI   C1A 2567  16.928   2.286  10.285  0.1007 -0.0758  0.2041
  161loPI   C2A 2568  16.924   2.254   9.853 -0.2174  0.0984  0.0503
  161loPI   C3A 2569  16.981   2.292   9.448 -0.0170 -0.0974 -0.0176
  161loPI   C4A 2570  16.946   2.209   8.960  0.0528  0.1317 -0.1937
  161loPI   C5A 2571  16.833   2.231   8.572  0.0309 -0.0663  0.0083
  161loPI   C6A 2572  16.712   2.288   8.225 -0.2049 -0.0846  0.2009
  161loPI   C1B 2573  16.942   1.816  10.199 -0.3527  0.3252  0.2813
  161loPI   C2B 2574  16.942   1.764   9.749 -0.0705 -0.2903 -0.0709
  161loPI   C3B 2575  16.872   1.720   9.316 -0.0520 -0.1057  0.1638
  161loPI   C4B 2576  16.924   1.691   8.899 -0.0258  0.2558  0.0803
  162loPI    C1 2577   6.518  10.514  11.164  0.2089  0.0746 -0.1823
  162loPI    C2 2578   6.856  10.323  11.260  0.0160 -0.1936 -0.0242
  162loPI    C3 2579   6.661  10.536  11.537 -0.0409 -0.1894 -0.0675
  162loPI   PO4 2580   6.576  10.496  10.843  0.1911  0.3257 -0.3443
  162loPI   GL1 2581   6.937  10.242  10.581  0.0794 -0.0408  0.0104
  162loPI   GL2 2582   6.818  10.490  10.431  0.2959 -0.0354 -0.1444
  162loPI   C1A 2583   6.784  10.138  10.104  0.1668 -0.1546 -0.0251
  162loPI   C2A 2584   6.869  10.077   9.708 -0.0553  0.4970 -0.0043
  162loPI   C3A 2585   6.880  10.027   9.279 -0.1917  0.1193 -0.0014
  162loPI   C4A 2586   6.923  10.111   8.928  0.2780  0.3901 -0.1090
  162loPI   C5A 2587   6.755   9.969   8.559  0.1714  0.2667  0.1545
  162loPI   C6A 2588   6.695   9.596   8.274 -0.0395  0.2066 -0.2144
  162loPI   C1B 2589   6.713  10.648  10.103  0.1225 -0.1838  0.0079
  162loPI   C2B 2590   6.807  10.547   9.663  0.1406 -0.0226 -0.0238
  162loPI   C3B 2591   6.838  10.569   9.196  0.0563  0.0587 -0.3103
  162loPI   C4B 2592   6.809  10.682   8.766 -0.0669 -0.2321  0.1338
  163loPI    C1 2593   6.326   7.885  11.342  0.2005  0.1822  0.1486
  163loPI    C2 2594   6.385   8.199  11.582  0.2959  0.1183  0.2094
  163loPI    C3 2595   6.474   7.830  11.709 -0.1966  0.0196  0.2904
  163loPI   PO4 2596   6.174   7.913  11.212 -0.0468 -0.0355 -0.1063
  163loPI   GL1 2597   6.064   7.934  10.689 -0.1551  0.0461 -0.0699
  163loPI   GL2 2598   6.210   7.711  10.446  0.0140 -0.2988 -0.2435
  163loPI   C1A 2599   5.582   8.016  10.409 -0.1014  0.3022  0.2317
  163loPI   C2A 2600   5.323   8.010  10.049 -0.2616  0.4271  0.2276
  163loPI   C3A 2601   5.459   7.754   9.778  0.1116  0.1337  0.1215
  163loPI   C4A 2602   5.449   7.827   9.296  0.0273  0.3363 -0.2213
  163loPI   C5A 2603   5.490   7.845   8.929  0.0505  0.1326 -0.1942
  163loPI   C6A 2604   5.400   7.751   8.522 -0.5000  0.2319 -0.0688
  163loPI   C1B 2605   6.312   7.687   9.988 -0.2408  0.2718 -0.2405
  163loPI   C2B 2606   6.357   7.725   9.536 -0.0836  0.1269  0.1273
  163loPI   C3B 2607   6.356   7.758   9.121  0.0865 -0.2455  0.0519
  163loPI   C4B 2608   6.264   7.763   8.620  0.2859  0.0109  0.0652
  164loPI    C1 2609  10.578   6.880  11.420  0.1133  0.0368  0.0288
  164loPI    C2 2610  10.348   7.089  11.671  0.2541  0.4519 -0.1775
  164loPI    C3 2611  10.738   7.046  11.746  0.1508 -0.1199  0.0911
  164loPI   PO4 2612  10.438   6.996  11.171  0.2426 -0.0596 -0.0546
  164loPI   GL1 2613  10.545   6.879  10.835  0.0678  0.0480 -0.2441
  164loPI   GL2 2614  10.334   6.988  10.723  0.2287  0.3589  0.1124
  164loPI   C1A 2615  10.772   6.724  10.454  0.6455 -0.3700 -0.0838
  164loPI   C2A 2616  10.796   6.548  10.028  0.3393 -0.1477 -0.2326
  164loPI   C3A 2617  10.796   6.467   9.529  0.0745  0.0352 -0.1778
  164loPI   C4A 2618  10.754   6.504   9.109 -0.4045  0.3566 -0.1760
  164loPI   C5A 2619  10.722   6.619   8.771  0.0275  0.0325 -0.0756
  164loPI   C6A 2620  10.795   6.770   8.359  0.1917  0.0981  0.1120
  164loPI   C1B 2621  10.446   7.272  10.361  0.1230 -0.0446 -0.0413
  164loPI   C2B 2622  10.429   7.389  10.005 -0.0338  0.3595 -0.2741
  164loPI   C3B 2623  10.390   7.405   9.518 -0.0133 -0.0219  0.2699
  164loPI   C4B 2624  10.448   7.377   9.040 -0.3318  0.2642 -0.1842
  165loPI    C1 2625   5.680  16.548  10.629  0.2900 -0.0911 -0.0152
  165loPI    C2 2626   5.473  16.502  10.969  0.1115 -0.0436 -0.1161
  165loPI    C3 2627   5.792  16.744  10.960  0.0104  0.0948 -0.0268
  165loPI   PO4 2628   5.680  16.225  10.534  0.0490  0.2763 -0.1291
  165loPI   GL1 2629   5.823  16.178  10.102 -0.2413 -0.1507 -0.1320
  165loPI   GL2 2630   5.753  16.494  10.140 -0.0282  0.0285  0.3264
  165loPI   C1A 2631   5.703  16.000   9.754  0.0707  0.0412  0.2376
  165loPI   C2A 2632   5.719  16.006   9.285 -0.1555  0.1076 -0.0657
  165loPI   C3A 2633   5.707  16.113   8.931 -0.2999  0.3690  0.0071
  165loPI   C4A 2634   5.795  16.172   8.511 -0.4112 -0.3708 -0.0377
  165loPI   C5A 2635   5.806  16.286   8.116  0.3160  0.0713  0.0184
  165loPI   C6A 2636   5.531  16.290   7.764  0.0347 -0.2469  0.2764
  165loPI   C1B 2637   5.812  16.477   9.725 -0.0230  0.0839  0.0023
  165loPI   C2B 2638   5.768  16.544   9.337  0.0338  0.0327  0.1718
  165loPI   C3B 2639   5.924  16.612   8.821 -0.0540 -0.1050 -0.0967
  165loPI   C4B 2640   6.038  16.707   8.367  0.1479  0.1273 -0.1471
  166loPI    C1 2641  13.857   3.585  11.228  0.3047 -0.0790  0.0457
  166loPI    C2 2642  14.027   3.569  11.590  0.4299 -0.0676 -0.0125
  166loPI    C3 2643  14.043   3.252  11.347  0.1297 -0.1625  0.0883
  166loPI   PO4 2644  13.893   3.716  11.077 -0.0064 -0.0917  0.1318
  166loPI   GL1 2645  13.917   3.711  10.662 -0.0273 -0.0294 -0.0391
  166loPI   GL2 2646  14.239   3.834  10.531  0.0075 -0.3733 -0.0113
  166loPI   C1A 2647  13.881   3.677  10.174  0.2021  0.1887  0.2450
  166loPI   C2A 2648  13.935   3.672   9.735  0.0626 -0.1752  0.4049
  166loPI   C3A 2649  13.882   3.709   9.282 -0.0685 -0.1295  0.0122
  166loPI   C4A 2650  13.888   3.824   8.824  0.1601 -0.2379  0.0826
  166loPI   C5A 2651  14.087   3.941   8.425  0.0404  0.0924  0.2262
  166loPI   C6A 2652  14.457   3.962   8.169 -0.1386  0.1779  0.0214
  166loPI   C1B 2653  14.330   3.973  10.016 -0.1330  0.0255 -0.0501
  166loPI   C2B 2654  14.361   3.882   9.657 -0.1126  0.0650  0.1437
  166loPI   C3B 2655  14.410   3.941   9.216 -0.2350  0.0575  0.2072
  166loPI   C4B 2656  14.396   3.936   8.840  0.2011 -0.0216 -0.0393
  167loPI    C1 2657   9.423   6.761  11.415  0.0633  0.1605  0.1924
  167loPI    C2 2658   9.072   6.767  11.606 -0.0544  0.0597 -0.0160
  167loPI    C3 2659   9.400   6.637  11.794 -0.1094  0.2379  0.2083
  167loPI   PO4 2660   9.430   7.001  11.245  0.1446 -0.2411  0.2399
  167loPI   GL1 2661   9.666   7.143  10.849 -0.0840 -0.0280  0.2372
  167loPI   GL2 2662   9.654   7.453  10.837  0.1549 -0.3992 -0.2815
  167loPI   C1A 2663   9.929   7.192  10.419  0.0719 -0.3216  0.0212
  167loPI   C2A 2664   9.970   7.203  10.056  0.0835 -0.2146  0.1465
  167loPI   C3A 2665   9.974   7.064   9.651  0.0349  0.3107 -0.1354
  167loPI   C4A 2666   9.993   7.163   9.249 -0.2067 -0.0423  0.0849
  167loPI   C5A 2667   9.967   7.201   8.880 -0.1373 -0.1834  0.2148
  167loPI   C6A 2668   9.729   7.177   8.534 -0.3764  0.3854  0.1274
  167loPI   C1B 2669   9.492   7.422  10.410  0.0187  0.0136 -0.2531
  167loPI   C2B 2670   9.504   7.382  10.021  0.0788 -0.1769  0.0549
  167loPI   C3B 2671   9.543   7.369   9.585  0.0176 -0.2272 -0.0955
  167loPI   C4B 2672   9.598   7.451   9.147 -0.1368  0.1839  0.3750
  168loPI    C1 2673   5.233   5.901  11.133 -0.0312 -0.0731  0.2178
  168loPI    C2 2674   5.516   5.641  11.021  0.1138  0.1471  0.0634
  168loPI    C3 2675   5.498   5.766  11.401 -0.0201 -0.1617  0.1627
  168loPI   PO4 2676   5.067   5.856  10.967 -0.0485 -0.0278 -0.0127
  168loPI   GL1 2677   5.105   5.589  10.667 -0.1279 -0.1485  0.0259
  168loPI   GL2 2678   4.806   5.508  10.495 -0.3663 -0.1761  0.0331
  168loPI   C1A 2679   5.290   5.582  10.225  0.2166  0.2284  0.2479
  168loPI   C2A 2680   5.393   5.716   9.815  0.0747 -0.0363  0.1012
  168loPI   C3A 2681   5.389   5.712   9.388  0.3178  0.0533 -0.2082
  168loPI   C4A 2682   5.461   5.724   8.945 -0.0224 -0.1451 -0.3073
  168loPI   C5A 2683   5.491   5.933   8.551  0.0869  0.0341 -0.1508
  168loPI   C6A 2684   5.635   6.353   8.436  0.4587  0.1643 -0.0353
  168loPI   C1B 2685   4.832   5.416  10.052  0.1643  0.1051  0.1204
  168loPI   C2B 2686   4.866   5.446   9.572 -0.0269  0.0844 -0.0499
  168loPI   C3B 2687   4.855   5.583   9.261  0.2862 -0.2801  0.5071
  168loPI   C4B 2688   4.941   5.432   8.828 -0.0216  0.1496 -0.1641
  169loPI    C1 2689  14.512   5.747  11.132 -0.1600  0.0897  0.0701
  169loPI    C2 2690  14.451   5.408  11.337 -0.2226 -0.0161 -0.1207
  169loPI    C3 2691  14.797   5.606  11.375 -0.1447 -0.1572 -0.0877
  169loPI   PO4 2692  14.516   5.665  10.903 -0.0276  0.0995  0.1221
  169loPI   GL1 2693  14.255   5.964  10.637 -0.1403 -0.2303 -0.2751
  169loPI   GL2 2694  14.020   5.799  10.486  0.1904 -0.2173  0.0884
  169loPI   C1A 2695  14.367   5.925  10.197 -0.2469 -0.4237  0.0499
  169loPI   C2A 2696  14.357   5.969   9.764  0.2868  0.1929 -0.3212
  169loPI   C3A 2697  14.412   6.001   9.391  0.0315  0.0856 -0.4084
  169loPI   C4A 2698  14.332   5.992   8.999 -0.2431 -0.1755  0.0394
  169loPI   C5A 2699  14.394   6.175   8.543 -0.2578  0.0873 -0.1812
  169loPI   C6A 2700  14.284   6.211   8.147 -0.1040  0.1726  0.1119
  169loPI   C1B 2701  13.953   5.767   9.996 -0.0093  0.1214  0.0021
  169loPI   C2B 2702  13.925   5.713   9.555  0.1544  0.1043  0.2800
  169loPI   C3B 2703  13.861   5.849   9.182  0.3633  0.0148 -0.1564
  169loPI   C4B 2704  13.841   5.802   8.766 -0.1420  0.1724 -0.0554
  170loPI    C1 2705   9.192   6.101  11.067 -0.1722 -0.1211  0.0135
  170loPI    C2 2706   9.214   6.295  11.417  0.0374  0.0872 -0.1120
  170loPI    C3 2707   9.287   5.902  11.401 -0.0083  0.0699  0.0832
  170loPI   PO4 2708   8.983   6.149  10.952 -0.0314  0.0803  0.0266
  170loPI   GL1 2709   8.897   5.966  10.512 -0.2961 -0.1224 -0.4093
  170loPI   GL2 2710   8.628   6.054  10.499  0.0202 -0.0328  0.0880
  170loPI   C1A 2711   9.112   6.013  10.252  0.1256 -0.0566  0.0112
  170loPI   C2A 2712   8.993   6.085   9.956 -0.1493  0.0178  0.1462
  170loPI   C3A 2713   8.980   6.114   9.550 -0.1186  0.1375 -0.1977
  170loPI   C4A 2714   8.965   6.114   9.099  0.2017 -0.0162  0.0610
  170loPI   C5A 2715   8.910   6.047   8.761 -0.2223 -0.1795 -0.1859
  170loPI   C6A 2716   8.692   6.102   8.478 -0.4994  0.0165 -0.2729
  170loPI   C1B 2717   8.564   6.295  10.114  0.1270 -0.1593  0.1602
  170loPI   C2B 2718   8.568   6.375   9.622 -0.0720 -0.1048 -0.2026
  170loPI   C3B 2719   8.542   6.446   9.069  0.3221 -0.1541 -0.0154
  170loPI   C4B 2720   8.519   6.535   8.671 -0.2909 -0.1559 -0.1735
  171loPI    C1 2721   4.242   0.461  11.032 -0.0812 -0.0077 -0.0342
  171loPI    C2 2722   4.045   0.447  11.380 -0.0923  0.0581 -0.0376
  171loPI    C3 2723   4.313   0.164  11.291 -0.1123  0.0237  0.0108
  171loPI   PO4 2724   4.036   0.483  10.782 -0.0924  0.0481  0.0154
  171loPI   GL1 2725   3.926   0.513  10.484  0.0293 -0.0511 -0.3205
  171loPI   GL2 2726   4.218   0.387  10.346 -0.0079 -0.3189 -0.0448
  171loPI   C1A 2727   3.788   0.265  10.120 -0.2256  0.0160 -0.1567
  171loPI   C2A 2728   3.770   0.344   9.718 -0.1901 -0.2443 -0.2103
  171loPI   C3A 2729   3.715   0.351   9.343  0.2558  0.1316 -0.1599
  171loPI   C4A 2730   3.769   0.337   8.924 -0.1228  0.0500 -0.2645
  171loPI   C5A 2731   3.766   0.213   8.510 -0.0839  0.0346  0.0149
  171loPI   C6A 2732   3.545  -0.100   8.218  0.0235 -0.2801 -0.3063
  171loPI   C1B 2733   4.336   0.488   9.829  0.2408 -0.1545 -0.1768
  171loPI   C2B 2734   4.341   0.511   9.455  0.0192  0.2409 -0.3477
  171loPI   C3B 2735   4.215   0.581   9.023 -0.1059  0.1691  0.1354
  171loPI   C4B 2736   4.178   0.609   8.626  0.2119 -0.0129  0.3716
  172loPI    C1 2737   4.723   4.707  11.243  0.2280 -0.0246  0.0565
  172loPI    C2 2738   4.687   5.081  11.378 -0.0655 -0.0468  0.0454
  172loPI    C3 2739   5.025   4.878  11.442  0.1322  0.2514 -0.0305
  172loPI   PO4 2740   4.695   4.709  10.924  0.1853 -0.1952 -0.1862
  172loPI   GL1 2741   4.539   4.603  10.536  0.1389  0.0643  0.4583
  172loPI   GL2 2742   4.317   4.346  10.593 -0.2183  0.0787  0.0331
  172loPI   C1A 2743   4.379   4.680  10.190  0.1571 -0.2115  0.2144
  172loPI   C2A 2744   4.421   4.630   9.735  0.0927  0.2788  0.0847
  172loPI   C3A 2745   4.400   4.799   9.280 -0.0333 -0.2870  0.1193
  172loPI   C4A 2746   4.376   4.756   8.849  0.1777 -0.1333 -0.2144
  172loPI   C5A 2747   4.686   4.609   8.621 -0.0442 -0.1852 -0.1376
  172loPI   C6A 2748   4.974   4.346   8.630 -0.1396  0.2397 -0.0480
  172loPI   C1B 2749   4.441   4.161  10.207  0.1483 -0.4520  0.0335
  172loPI   C2B 2750   4.378   4.135   9.800  0.0232 -0.0160  0.2622
  172loPI   C3B 2751   4.476   4.171   9.370  0.0121  0.0047  0.0976
  172loPI   C4B 2752   4.550   4.159   8.966  0.1432 -0.0312 -0.0816
  173loPI    C1 2753  16.866   7.264  11.001 -0.0369 -0.4323  0.0542
  173loPI    C2 2754  17.154   7.151  11.254  0.1070 -0.0080  0.0876
  173loPI    C3 2755  16.853   7.381  11.383  0.1187  0.1137 -0.0985
  173loPI   PO4 2756  16.956   7.380  10.833  0.0958 -0.2256  0.0232
  173loPI   GL1 2757  16.829   7.509  10.350  0.1451  0.1073  0.0133
  173loPI   GL2 2758  16.593   7.267  10.277  0.0774 -0.2526 -0.3096
  173loPI   C1A 2759  17.022   7.566   9.940 -0.0109 -0.0282 -0.0433
  173loPI   C2A 2760  17.023   7.411   9.504 -0.1745 -0.0209 -0.0652
  173loPI   C3A 2761  17.062   7.431   9.088 -0.0510  0.2612  0.1267
  173loPI   C4A 2762  17.171   7.388   8.716  0.2462 -0.0218 -0.0474
  173loPI   C5A 2763  17.168   7.411   8.185  0.0709 -0.1284 -0.1339
  173loPI   C6A 2764  17.169   7.210   7.838  0.2119 -0.0390 -0.2397
  173loPI   C1B 2765  16.644   7.279   9.823 -0.0090 -0.0015  0.2659
  173loPI   C2B 2766  16.635   7.160   9.421 -0.1060  0.0463 -0.1123
  173loPI   C3B 2767  16.667   7.124   9.056  0.0897 -0.1445  0.1997
  173loPI   C4B 2768  16.722   7.182   8.631 -0.1602  0.0492  0.1267
  174loPI    C1 2769   0.124  10.961  10.546  0.2020  0.0876  0.0577
  174loPI    C2 2770  -0.228  11.112  10.662  0.1517 -0.1131  0.1700
  174loPI    C3 2771   0.113  11.270  10.800  0.1078  0.1034  0.0346
  174loPI   PO4 2772   0.160  10.953  10.327 -0.0865 -0.2265  0.0207
  174loPI   GL1 2773   0.472  11.209  10.037 -0.0987 -0.2741  0.1766
  174loPI   GL2 2774   0.163  11.072   9.820 -0.0120 -0.0883 -0.2447
  174loPI   C1A 2775   0.481  11.298   9.561 -0.3531  0.2750  0.1081
  174loPI   C2A 2776   0.479  11.309   9.039  0.0131 -0.0802 -0.2456
  174loPI   C3A 2777   0.538  11.301   8.507 -0.1397 -0.0668 -0.1493
  174loPI   C4A 2778   0.711  11.269   8.130 -0.2039  0.2672  0.0735
  174loPI   C5A 2779   0.941  10.964   8.016 -0.1532 -0.0814  0.0925
  174loPI   C6A 2780   1.446  10.909   7.873 -0.0576  0.0069 -0.1959
  174loPI   C1B 2781   0.093  11.025   9.323  0.3995 -0.1532  0.4796
  174loPI   C2B 2782   0.096  11.100   8.825 -0.0427 -0.1748  0.2095
  174loPI   C3B 2783   0.067  11.181   8.434  0.2761 -0.1120 -0.4201
  174loPI   C4B 2784   0.208  11.333   7.997 -0.2845 -0.1394  0.2404
  175loPI    C1 2785  11.793  17.542  11.104 -0.1432  0.2848 -0.1385
  175loPI    C2 2786  11.882  17.826  11.372  0.2532  0.0582 -0.0211
  175loPI    C3 2787  11.689  17.496  11.488  0.1667  0.0897 -0.0742
  175loPI   PO4 2788  12.053  17.502  10.966  0.1917 -0.0459  0.0126
  175loPI   GL1 2789  12.122  17.352  10.544 -0.0481 -0.0938  0.0389
  175loPI   GL2 2790  12.333  17.295  10.544  0.0855  0.0362  0.0430
  175loPI   C1A 2791  12.071  17.346  10.041  0.1646 -0.0823 -0.0575
  175loPI   C2A 2792  12.177  17.495   9.660 -0.0182 -0.1514 -0.0891
  175loPI   C3A 2793  12.103  17.508   9.157  0.0600  0.1545  0.1110
  175loPI   C4A 2794  12.293  17.480   8.686  0.0162 -0.0779 -0.1173
  175loPI   C5A 2795  12.498  17.211   8.476 -0.2976 -0.2493  0.2322
  175loPI   C6A 2796  12.964  17.152   8.274  0.0366 -0.0029  0.0709
  175loPI   C1B 2797  12.510  17.100  10.163  0.1282  0.1049  0.1841
  175loPI   C2B 2798  12.500  17.074   9.707 -0.1906 -0.1603  0.0954
  175loPI   C3B 2799  12.474  17.226   9.313 -0.0884  0.1088  0.0677
  175loPI   C4B 2800  12.504  17.076   8.923 -0.0310  0.3315 -0.1356
  176loPI    C1 2801   8.903   5.721  11.184  0.1674  0.4790  0.0265
  176loPI    C2 2802   8.563   5.704  11.393  0.0535  0.1137 -0.1795
  176loPI    C3 2803   8.915   5.677  11.581 -0.0408  0.0688 -0.0068
  176loPI   PO4 2804   8.832   5.627  10.935  0.1744  0.2638 -0.1549
  176loPI   GL1 2805   8.779   5.418  10.563  0.0997  0.0268 -0.5804
  176loPI   GL2 2806   8.446   5.538  10.619 -0.2291  0.2213 -0.2322
  176loPI   C1A 2807   8.883   5.546  10.216 -0.1636 -0.2505 -0.1137
  176loPI   C2A 2808   8.996   5.615   9.827 -0.0592  0.0392 -0.0042
  176loPI   C3A 2809   8.953   5.674   9.343 -0.0814  0.1452  0.0235
  176loPI   C4A 2810   8.990   5.562   9.000  0.0528  0.1639 -0.3117
  176loPI   C5A 2811   8.878   5.623   8.524  0.0551  0.0360  0.0708
  176loPI   C6A 2812   8.619   5.486   8.265 -0.0702 -0.0666  0.2104
  176loPI   C1B 2813   8.478   5.790  10.158 -0.1930  0.0524 -0.3740
  176loPI   C2B 2814   8.545   5.906   9.735  0.0805 -0.1297 -0.0546
  176loPI   C3B 2815   8.532   5.991   9.314 -0.0195 -0.0705  0.0097
  176loPI   C4B 2816   8.572   5.790   8.903  0.4003  0.0633  0.0094
  177loPI    C1 2817  14.028  17.274  11.237  0.0079  0.0115 -0.1903
  177loPI    C2 2818  13.868  17.637  11.288 -0.1654 -0.1025  0.1065
  177loPI    C3 2819  13.674  17.313  11.419 -0.0254 -0.3073 -0.1806
  177loPI   PO4 2820  14.178  17.271  11.022 -0.0027  0.0538  0.1263
  177loPI   GL1 2821  14.249  17.352  10.629  0.0094 -0.3001  0.0991
  177loPI   GL2 2822  13.962  17.278  10.558 -0.0913  0.1860  0.0213
  177loPI   C1A 2823  14.412  17.370  10.159 -0.4779  0.0605  0.0183
  177loPI   C2A 2824  14.336  17.331   9.724  0.1501 -0.0060 -0.2959
  177loPI   C3A 2825  14.413  17.264   9.308  0.2228  0.0717 -0.0320
  177loPI   C4A 2826  14.351  17.337   8.902  0.1946  0.0529  0.1068
  177loPI   C5A 2827  14.237  17.370   8.448  0.1947  0.0556 -0.2794
  177loPI   C6A 2828  14.076  17.545   8.045 -0.2385  0.2298 -0.1532
  177loPI   C1B 2829  13.926  17.119  10.196  0.3238 -0.0982  0.0085
  177loPI   C2B 2830  13.861  17.134   9.742 -0.0990  0.1035  0.2401
  177loPI   C3B 2831  13.862  17.084   9.264 -0.2758  0.0951 -0.4197
  177loPI   C4B 2832  13.897  17.140   8.875  0.2284  0.1137  0.3339
  178loPI    C1 2833  10.037  15.462  11.093  0.0409  0.0962 -0.1969
  178loPI    C2 2834  10.326  15.263  11.284 -0.1069 -0.1091 -0.1852
  178loPI    C3 2835   9.967  15.310  11.456 -0.0391  0.2692 -0.1384
  178loPI   PO4 2836  10.016  15.290  10.840  0.1312 -0.0424  0.1769
  178loPI   GL1 2837  10.025  15.343  10.469 -0.3132 -0.0109 -0.0515
  178loPI   GL2 2838   9.854  15.147  10.252  0.1291  0.0263  0.0016
  178loPI   C1A 2839  10.309  15.325  10.096  0.0679  0.1233 -0.1676
  178loPI   C2A 2840  10.331  15.304   9.704 -0.0154 -0.0567  0.0844
  178loPI   C3A 2841  10.228  15.409   9.321  0.0815  0.2961  0.1477
  178loPI   C4A 2842  10.385  15.447   8.902 -0.1814 -0.1334 -0.2030
  178loPI   C5A 2843  10.331  15.486   8.497 -0.0958 -0.0471  0.0312
  178loPI   C6A 2844  10.390  15.191   8.018  0.2818 -0.1167  0.1199
  178loPI   C1B 2845   9.746  15.188   9.795 -0.0434  0.1821 -0.1009
  178loPI   C2B 2846   9.723  15.176   9.382 -0.1174  0.1288 -0.1252
  178loPI   C3B 2847   9.856  15.253   9.016 -0.1351  0.2520  0.0700
  178loPI   C4B 2848   9.828  15.381   8.657 -0.3010 -0.2768 -0.2054
  179loPI    C1 2849  13.456   3.006  11.439  0.0888 -0.0160  0.1060
  179loPI    C2 2850  13.758   3.025  11.700 -0.1101  0.2374  0.3238
  179loPI    C3 2851  13.381   3.004  11.832 -0.2049  0.2110  0.0552
  179loPI   PO4 2852  13.553   3.145  11.157 -0.0603  0.0970  0.0001
  179loPI   GL1 2853  13.604   3.351  10.840 -0.1612  0.1132 -0.0269
  179loPI   GL2 2854  13.951   3.262  10.835  0.2417 -0.0227 -0.1462
  179loPI   C1A 2855  13.545   3.428  10.480 -0.1405 -0.1663  0.3104
  179loPI   C2A 2856  13.465   3.434  10.123  0.1524 -0.0214 -0.0674
  179loPI   C3A 2857  13.410   3.427   9.650  0.0990  0.2421  0.0544
  179loPI   C4A 2858  13.332   3.506   9.187  0.0761  0.1971 -0.1693
  179loPI   C5A 2859  13.518   3.514   8.757  0.1032  0.1396  0.5224
  179loPI   C6A 2860  13.771   3.172   8.717  0.0150  0.1432 -0.0265
  179loPI   C1B 2861  14.017   3.281  10.489 -0.1114  0.2363 -0.0714
  179loPI   C2B 2862  13.946   3.191  10.074  0.0813 -0.0518 -0.2041
  179loPI   C3B 2863  13.869   3.175   9.671 -0.0752  0.1897 -0.2314
  179loPI   C4B 2864  13.817   3.239   9.341  0.0862  0.1525  0.1622
  180loPI    C1 2865   5.049  11.512  10.837 -0.0301 -0.3723 -0.2454
  180loPI    C2 2866   4.813  11.330  11.104 -0.0593  0.2109  0.1433
  180loPI    C3 2867   5.193  11.211  11.059 -0.0576  0.0967  0.4365
  180loPI   PO4 2868   4.969  11.519  10.549 -0.1388  0.0498  0.2025
  180loPI   GL1 2869   5.078  11.346  10.126 -0.0320 -0.2753 -0.0732
  180loPI   GL2 2870   4.979  11.135  10.158 -0.0510 -0.1838 -0.1008
  180loPI   C1A 2871   5.098  11.194   9.647 -0.0889  0.1576 -0.4303
  180loPI   C2A 2872   5.165  11.160   9.208 -0.0163  0.1166 -0.1003
  180loPI   C3A 2873   5.141  11.225   8.854 -0.0412 -0.0431  0.3541
  180loPI   C4A 2874   4.943  11.372   8.497 -0.1042  0.3039  0.0070
  180loPI   C5A 2875   4.992  11.527   8.130 -0.1679 -0.0470 -0.1614
  180loPI   C6A 2876   5.147  11.590   7.707 -0.3951  0.1169 -0.0729
  180loPI   C1B 2877   5.192  10.782   9.882 -0.3320 -0.0940 -0.0007
  180loPI   C2B 2878   5.163  10.695   9.369 -0.0038 -0.0581  0.0203
  180loPI   C3B 2879   5.079  10.732   8.912  0.1565 -0.0854 -0.0243
  180loPI   C4B 2880   5.156  10.776   8.465 -0.0044 -0.0515  0.0198
  181loPI    C1 2881  14.101  15.704  11.179  0.0964 -0.0141  0.0876
  181loPI    C2 2882  14.331  15.750  11.504  0.1973  0.3790 -0.0338
  181loPI    C3 2883  13.947  15.862  11.513  0.1145  0.0974  0.0436
  181loPI   PO4 2884  14.161  15.860  10.959 -0.0325  0.3251 -0.2727
  181loPI   GL1 2885  14.138  15.781  10.541 -0.2497 -0.3050 -0.0939
  181loPI   GL2 2886  14.363  15.531  10.414 -0.0331  0.0880  0.3259
  181loPI   C1A 2887  14.038  15.849  10.158 -0.1678 -0.1536 -0.2937
  181loPI   C2A 2888  14.044  15.831   9.763  0.1195 -0.1216 -0.2389
  181loPI   C3A 2889  14.044  15.772   9.371 -0.1772 -0.1043  0.3007
  181loPI   C4A 2890  14.063  15.829   8.978 -0.3504  0.0903  0.1797
  181loPI   C5A 2891  14.118  15.670   8.496  0.2842  0.1033 -0.0184
  181loPI   C6A 2892  14.137  15.311   8.283  0.1435 -0.1546 -0.0456
  181loPI   C1B 2893  14.273  15.436  10.098 -0.1615  0.0014 -0.2817
  181loPI   C2B 2894  14.404  15.515   9.652 -0.2019 -0.0464  0.1591
  181loPI   C3B 2895  14.334  15.347   9.188 -0.0554 -0.1726 -0.1954
  181loPI   C4B 2896  14.507  15.433   8.743  0.0006 -0.1747  0.1479
  182loPI    C1 2897   4.162   3.665  11.154 -0.1415  0.1803  0.0149
  182loPI    C2 2898   4.271   3.900  11.459 -0.0399 -0.1154  0.2101
  182loPI    C3 2899   4.038   3.581  11.524 -0.0459 -0.1615 -0.0270
  182loPI   PO4 2900   4.242   3.841  10.910 -0.0239  0.0847  0.2629
  182loPI   GL1 2901   4.251   3.852  10.518 -0.2433  0.2042  0.2917
  182loPI   GL2 2902   3.947   4.007  10.435 -0.1801 -0.0504 -0.0673
  182loPI   C1A 2903   4.335   3.743  10.028 -0.0498  0.0763  0.1641
  182loPI   C2A 2904   4.430   3.654   9.594  0.1543  0.0489  0.0258
  182loPI   C3A 2905   4.490   3.656   9.129 -0.2252  0.0276 -0.2462
  182loPI   C4A 2906   4.383   3.737   8.733  0.3610 -0.5283  0.2104
  182loPI   C5A 2907   4.401   3.993   8.352 -0.2232  0.1623  0.0697
  182loPI   C6A 2908   4.426   4.130   7.982 -0.2226  0.2328  0.0433
  182loPI   C1B 2909   3.908   4.006   9.995  0.0959  0.0044 -0.0887
  182loPI   C2B 2910   3.961   3.932   9.574 -0.1299 -0.1817 -0.3479
  182loPI   C3B 2911   4.069   3.957   9.129 -0.3061 -0.2459 -0.2380
  182loPI   C4B 2912   3.899   4.009   8.632  0.2138 -0.1741 -0.0807
  183loPI    C1 2913  11.278   9.794  11.087  0.2496 -0.0538  0.0328
  183loPI    C2 2914  11.436   9.825  11.453  0.2367 -0.1365  0.0458
  183loPI    C3 2915  11.042   9.768  11.409  0.1872  0.2082  0.0104
  183loPI   PO4 2916  11.421  10.006  10.957 -0.2379 -0.1280  0.1867
  183loPI   GL1 2917  11.408  10.133  10.488 -0.2041  0.1460 -0.1759
  183loPI   GL2 2918  11.023  10.288  10.519  0.0412  0.0244 -0.1018
  183loPI   C1A 2919  11.236   9.971  10.146  0.0990 -0.0655 -0.0448
  183loPI   C2A 2920  11.288   9.851   9.691 -0.0346 -0.2121  0.2490
  183loPI   C3A 2921  11.414   9.770   9.228 -0.2436 -0.0871  0.0384
  183loPI   C4A 2922  11.463   9.860   8.890 -0.2111  0.0714  0.0659
  183loPI   C5A 2923  11.543  10.013   8.421  0.1008  0.1168 -0.0788
  183loPI   C6A 2924  11.360  10.384   8.241 -0.0844 -0.1211  0.1403
  183loPI   C1B 2925  10.833  10.300  10.126  0.0435  0.1390  0.0529
  183loPI   C2B 2926  10.883  10.246   9.752  0.0936 -0.1180  0.2954
  183loPI   C3B 2927  10.879  10.201   9.388  0.2019  0.0432  0.2157
  183loPI   C4B 2928  10.941  10.238   8.979  0.1523 -0.2337 -0.1331
  184loPI    C1 2929   9.498  17.385  10.590  0.1708  0.1681  0.1160
  184loPI    C2 2930   9.112  17.469  10.523  0.0490 -0.3923  0.0664
  184loPI    C3 2931   9.225  17.316  10.875  0.3046  0.1935  0.2514
  184loPI   PO4 2932   9.605  17.166  10.468 -0.1905 -0.2676 -0.1571
  184loPI   GL1 2933   9.750  17.022  10.133  0.0705 -0.1654  0.2994
  184loPI   GL2 2934   9.846  17.236   9.825 -0.2463  0.3137 -0.0391
  184loPI   C1A 2935   9.511  16.895   9.872  0.2390 -0.2472  0.1666
  184loPI   C2A 2936   9.583  16.960   9.384  0.1302 -0.2973 -0.2715
  184loPI   C3A 2937   9.647  17.111   9.064  0.1213  0.2717  0.0030
  184loPI   C4A 2938   9.731  17.319   8.725  0.0303 -0.0974 -0.1025
  184loPI   C5A 2939   9.940  17.632   8.597  0.0439  0.1039 -0.1360
  184loPI   C6A 2940   9.962  17.864   8.369  0.2601  0.2136 -0.0190
  184loPI   C1B 2941  10.003  17.266   9.423  0.0452  0.0388  0.1669
  184loPI   C2B 2942  10.113  17.206   9.060 -0.0180  0.0760  0.2306
  184loPI   C3B 2943  10.305  17.324   8.704 -0.2168  0.1073  0.1968
  184loPI   C4B 2944  10.385  17.608   8.370 -0.2189  0.0686  0.0323
  185loPI    C1 2945  13.454  15.157  11.297 -0.0213 -0.0747  0.1230
  185loPI    C2 2946  13.638  15.509  11.348 -0.0814 -0.0188 -0.0419
  185loPI    C3 2947  13.266  15.456  11.485 -0.0335 -0.0532  0.0764
  185loPI   PO4 2948  13.469  15.116  10.962  0.1071  0.3760 -0.0445
  185loPI   GL1 2949  13.324  15.231  10.522  0.1435 -0.2777  0.3569
  185loPI   GL2 2950  13.430  15.512  10.402  0.0161 -0.0973  0.3312
  185loPI   C1A 2951  13.391  15.047  10.144 -0.0580 -0.4422  0.0116
  185loPI   C2A 2952  13.365  15.098   9.758 -0.1713 -0.3674 -0.2266
  185loPI   C3A 2953  13.369  15.128   9.299  0.1405 -0.2204  0.1399
  185loPI   C4A 2954  13.446  15.202   8.840 -0.0557  0.1590  0.0513
  185loPI   C5A 2955  13.353  15.029   8.438  0.1309 -0.1137  0.2756
  185loPI   C6A 2956  13.645  15.153   8.122 -0.0631 -0.0460 -0.0269
  185loPI   C1B 2957  13.493  15.625  10.103  0.3162  0.1197 -0.0236
  185loPI   C2B 2958  13.461  15.571   9.593 -0.2759  0.3771 -0.3459
  185loPI   C3B 2959  13.476  15.656   9.211 -0.2038 -0.2125 -0.1079
  185loPI   C4B 2960  13.636  15.642   8.833 -0.0554  0.0511 -0.1624
  186loPI    C1 2961   3.036   8.968  10.785  0.1126  0.1242  0.0598
  186loPI    C2 2962   2.857   9.156  11.089 -0.1662  0.0840 -0.0762
  186loPI    C3 2963   2.808   8.762  11.042  0.0681  0.0495 -0.0386
  186loPI   PO4 2964   2.946   9.036  10.565  0.0459 -0.3835  0.1631
  186loPI   GL1 2965   3.075   9.170  10.124 -0.0061  0.2865  0.0073
  186loPI   GL2 2966   2.939   9.468  10.258 -0.1484 -0.0408  0.0194
  186loPI   C1A 2967   3.222   9.227   9.661 -0.1620  0.1853  0.2703
  186loPI   C2A 2968   3.260   9.199   9.208 -0.1785  0.2396 -0.1784
  186loPI   C3A 2969   3.259   9.020   8.783  0.1485 -0.4161 -0.2015
  186loPI   C4A 2970   3.248   9.059   8.323 -0.1353 -0.1628 -0.0484
  186loPI   C5A 2971   3.430   8.888   7.924  0.0460 -0.2445  0.2880
  186loPI   C6A 2972   3.866   9.020   7.598 -0.0291 -0.0386  0.0586
  186loPI   C1B 2973   2.771   9.550   9.872 -0.0171 -0.1032  0.1486
  186loPI   C2B 2974   2.836   9.461   9.394  0.0179 -0.1732  0.1849
  186loPI   C3B 2975   2.791   9.446   8.951  0.0150 -0.2206 -0.3148
  186loPI   C4B 2976   2.887   9.452   8.533  0.1975 -0.2613  0.3185
  187loPI    C1 2977  16.020  11.974  11.220 -0.0922 -0.1813  0.0599
  187loPI    C2 2978  16.385  11.858  11.336 -0.0555 -0.0814  0.0461
  187loPI    C3 2979  16.149  12.057  11.590  0.0114  0.1077 -0.0386
  187loPI   PO4 2980  16.061  12.008  10.961  0.0739  0.1427  0.2546
  187loPI   GL1 2981  15.863  12.072  10.509 -0.0682 -0.2704  0.3493
  187loPI   GL2 2982  16.086  11.802  10.441  0.1080  0.3271  0.0675
  187loPI   C1A 2983  15.807  12.262  10.171 -0.2454 -0.0584 -0.4757
  187loPI   C2A 2984  15.721  12.627   9.879 -0.0742 -0.0158 -0.0710
  187loPI   C3A 2985  15.538  12.662   9.462 -0.1026 -0.1945 -0.2341
  187loPI   C4A 2986  15.678  12.637   9.126 -0.0430 -0.0024 -0.2324
  187loPI   C5A 2987  15.594  12.567   8.675  0.1899 -0.1113  0.1740
  187loPI   C6A 2988  15.714  12.805   8.291  0.1317 -0.1791  0.0639
  187loPI   C1B 2989  16.070  11.856   9.977 -0.1013 -0.0827 -0.1084
  187loPI   C2B 2990  15.927  12.249   9.714 -0.0540  0.0988  0.1460
  187loPI   C3B 2991  15.747  12.146   9.300 -0.1220  0.2304 -0.2208
  187loPI   C4B 2992  15.597  12.149   8.988 -0.0633  0.0754 -0.0852
  188loPI    C1 2993  14.850   9.750  10.932 -0.3207  0.0233  0.2613
  188loPI    C2 2994  14.990  10.012  11.200  0.0875 -0.0763  0.1537
  188loPI    C3 2995  15.053   9.621  11.251 -0.2076 -0.1301  0.1291
  188loPI   PO4 2996  14.811   9.823  10.682  0.4248 -0.0077 -0.2301
  188loPI   GL1 2997  14.868   9.896  10.268  0.3419 -0.3480 -0.1266
  188loPI   GL2 2998  14.474   9.828  10.253 -0.2228  0.0293  0.1758
  188loPI   C1A 2999  14.822   9.915   9.794  0.2782  0.0746 -0.1780
  188loPI   C2A 3000  14.876   9.876   9.307 -0.1094 -0.2475 -0.2650
  188loPI   C3A 3001  14.899   9.908   8.955  0.1010  0.0751  0.0968
  188loPI   C4A 3002  14.876   9.964   8.465  0.0679 -0.0382  0.2233
  188loPI   C5A 3003  14.588  10.224   8.132 -0.0406  0.3781 -0.5345
  188loPI   C6A 3004  14.752  10.567   7.915  0.0242  0.2169 -0.3611
  188loPI   C1B 3005  14.357   9.705   9.852  0.0310  0.0765 -0.4817
  188loPI   C2B 3006  14.406   9.641   9.445  0.1660 -0.3159  0.2388
  188loPI   C3B 3007  14.438   9.691   9.021  0.0191 -0.1979 -0.2272
  188loPI   C4B 3008  14.520   9.669   8.649  0.1342 -0.3068 -0.0896
  189loPI    C1 3009  14.500  10.149  11.199 -0.0450 -0.0553  0.1146
  189loPI    C2 3010  14.687  10.374  11.472  0.1457 -0.0213 -0.0417
  189loPI    C3 3011  14.657   9.979  11.525 -0.1225  0.0274  0.1959
  189loPI   PO4 3012  14.589  10.287  10.944  0.1240  0.0472 -0.0498
  189loPI   GL1 3013  14.646  10.390  10.499 -0.0064 -0.2032  0.0867
  189loPI   GL2 3014  14.290  10.262  10.356  0.2335  0.0260 -0.1617
  189loPI   C1A 3015  14.853  10.361  10.047 -0.4116  0.1244 -0.3062
  189loPI   C2A 3016  14.829  10.363   9.600  0.0305  0.0271 -0.1300
  189loPI   C3A 3017  14.829  10.409   9.159 -0.3668 -0.3552 -0.4199
  189loPI   C4A 3018  14.920  10.472   8.683 -0.1821  0.2863 -0.2465
  189loPI   C5A 3019  15.132  10.446   8.257  0.0008 -0.0319  0.0810
  189loPI   C6A 3020  15.051  10.151   7.980 -0.2099  0.3371 -0.1583
  189loPI   C1B 3021  14.387  10.219   9.918  0.1228 -0.3549  0.2535
  189loPI   C2B 3022  14.423  10.120   9.435 -0.0472 -0.1328  0.0523
  189loPI   C3B 3023  14.413  10.235   9.027 -0.0023 -0.1372  0.0469
  189loPI   C4B 3024  14.496  10.199   8.638  0.0768  0.2651 -0.0724
  190loPI    C1 3025   4.873  17.138  10.811  0.0198  0.0828  0.0499
  190loPI    C2 3026   4.621  17.443  10.754 -0.0207  0.0080 -0.1820
  190loPI    C3 3027   4.854  17.434  11.079  0.0584  0.3387 -0.2249
  190loPI   PO4 3028   4.884  17.056  10.591  0.0751 -0.2752  0.3531
  190loPI   GL1 3029   4.695  16.946  10.220  0.0312  0.0576  0.0016
  190loPI   GL2 3030   4.896  16.653  10.124 -0.0123  0.0739 -0.0652
  190loPI   C1A 3031   4.535  16.999   9.752  0.0029 -0.1530 -0.1680
  190loPI   C2A 3032   4.493  17.148   9.308 -0.0709 -0.2426 -0.1351
  190loPI   C3A 3033   4.547  17.031   8.845  0.0228  0.1383 -0.0613
  190loPI   C4A 3034   4.567  17.078   8.440 -0.0494 -0.3103 -0.1590
  190loPI   C5A 3035   4.942  17.077   8.084 -0.0179  0.2420  0.0627
  190loPI   C6A 3036   5.196  17.369   7.852 -0.2043  0.1170 -0.2453
  190loPI   C1B 3037   4.970  16.679   9.767 -0.0591  0.0908  0.0500
  190loPI   C2B 3038   4.890  16.696   9.324 -0.1896 -0.1342 -0.1505
  190loPI   C3B 3039   4.970  16.727   8.868  0.1397 -0.1174  0.2741
  190loPI   C4B 3040   4.999  16.693   8.425 -0.1065 -0.4004 -0.1817
  191loPI    C1 3041  11.400   6.318  11.307 -0.0966  0.2423  0.1594
  191loPI    C2 3042  11.310   6.351  11.695  0.1423 -0.0004  0.2388
  191loPI    C3 3043  11.675   6.230  11.584 -0.0442 -0.3111 -0.0557
  191loPI   PO4 3044  11.272   6.428  11.194  0.0674 -0.1525 -0.2346
  191loPI   GL1 3045  11.306   6.521  10.764  0.0019 -0.0364 -0.1576
  191loPI   GL2 3046  11.502   6.243  10.732  0.2158  0.0978  0.0437
  191loPI   C1A 3047  11.159   6.432  10.384 -0.2595  0.3437 -0.4880
  191loPI   C2A 3048  11.226   6.246   9.976 -0.0250 -0.1355  0.1363
  191loPI   C3A 3049  11.257   6.281   9.597 -0.1842 -0.0657 -0.0459
  191loPI   C4A 3050  11.231   6.343   9.195 -0.0758 -0.0532  0.2534
  191loPI   C5A 3051  11.194   6.475   8.739 -0.1815  0.0917 -0.1434
  191loPI   C6A 3052  11.362   6.901   8.569  0.0537 -0.0972 -0.0201
  191loPI   C1B 3053  11.645   6.121  10.278  0.1731  0.1339  0.1675
  191loPI   C2B 3054  11.755   5.942   9.848 -0.1621 -0.3269  0.0747
  191loPI   C3B 3055  11.723   6.058   9.423 -0.0008  0.0986 -0.3310
  191loPI   C4B 3056  11.682   6.044   9.016  0.0019 -0.0685  0.1379
  192loPI    C1 3057   2.392   1.179  10.781 -0.1364  0.3466  0.1059
  192loPI    C2 3058   2.460   1.244  11.170 -0.0480  0.1159  0.1309
  192loPI    C3 3059   2.285   0.905  11.051  0.1494  0.0750 -0.0496
  192loPI   PO4 3060   2.609   1.284  10.672  0.3984 -0.1677 -0.2047
  192loPI   GL1 3061   2.680   1.089  10.293  0.0076 -0.3599 -0.1042
  192loPI   GL2 3062   2.308   1.061  10.277 -0.0676  0.1033 -0.0896
  192loPI   C1A 3063   2.934   0.912   9.995 -0.0007 -0.1561 -0.2146
  192loPI   C2A 3064   2.940   0.885   9.610  0.1257  0.0596 -0.2756
  192loPI   C3A 3065   2.869   0.930   9.173  0.3186 -0.1206 -0.1601
  192loPI   C4A 3066   2.847   0.939   8.833  0.0700 -0.1072  0.1261
  192loPI   C5A 3067   2.785   0.964   8.434 -0.1116 -0.1141  0.3933
  192loPI   C6A 3068   2.775   0.763   8.034  0.1677  0.0242  0.0044
  192loPI   C1B 3069   2.501   1.167   9.858 -0.3092  0.0809  0.0763
  192loPI   C2B 3070   2.507   1.245   9.469 -0.1931  0.1376  0.1180
  192loPI   C3B 3071   2.349   1.236   9.053  0.0406  0.4009  0.0138
  192loPI   C4B 3072   2.385   1.255   8.622 -0.1706 -0.1267 -0.3079
  193loPI    C1 3073  12.561   6.332  11.204 -0.0288  0.1165 -0.0328
  193loPI    C2 3074  12.698   6.594  11.474  0.0985  0.0109  0.0060
  193loPI    C3 3075  12.564   6.236  11.592 -0.0480  0.0464 -0.0499
  193loPI   PO4 3076  12.364   6.496  11.010  0.1329  0.1035 -0.0648
  193loPI   GL1 3077  12.030   6.377  10.618 -0.1202  0.3649 -0.0707
  193loPI   GL2 3078  11.825   6.621  10.604 -0.0050 -0.0284 -0.0936
  193loPI   C1A 3079  12.117   6.256  10.185 -0.1866  0.0664 -0.1535
  193loPI   C2A 3080  12.134   6.241   9.730  0.2291  0.1988 -0.1584
  193loPI   C3A 3081  12.243   6.265   9.353  0.0894 -0.2211  0.3565
  193loPI   C4A 3082  12.157   6.422   8.964  0.1199  0.0703  0.2722
  193loPI   C5A 3083  12.479   6.544   8.591 -0.0247 -0.0078 -0.3272
  193loPI   C6A 3084  12.815   6.396   8.363  0.3871  0.2468 -0.0300
  193loPI   C1B 3085  11.746   6.598  10.136  0.1625  0.0883 -0.1692
  193loPI   C2B 3086  11.719   6.482   9.784  0.0536 -0.3409 -0.0279
  193loPI   C3B 3087  11.734   6.580   9.356 -0.4146 -0.0140  0.2192
  193loPI   C4B 3088  11.689   6.569   8.913 -0.1010  0.0679 -0.0188
  194loPI    C1 3089  17.017   1.895  11.208  0.1402  0.1655 -0.0647
  194loPI    C2 3090  17.244   1.907  11.538 -0.0809  0.0816  0.0928
  194loPI    C3 3091  16.859   1.800  11.563 -0.0336 -0.1801 -0.2294
  194loPI   PO4 3092  17.165   1.688  11.091 -0.2305 -0.2729 -0.0017
  194loPI   GL1 3093  17.142   1.432  10.701 -0.2785 -0.1377 -0.2352
  194loPI   GL2 3094  17.472   1.315  10.615 -0.2808  0.0665  0.0157
  194loPI   C1A 3095  16.928   1.333  10.422  0.2038  0.1018  0.1590
  194loPI   C2A 3096  16.955   1.258   9.967 -0.0557  0.2029  0.0353
  194loPI   C3A 3097  16.891   1.187   9.602 -0.2128  0.0475  0.1503
  194loPI   C4A 3098  16.887   1.257   9.171  0.1659 -0.0933 -0.0384
  194loPI   C5A 3099  16.855   1.071   8.747  0.1988 -0.2663  0.1919
  194loPI   C6A 3100  16.886   1.344   8.416 -0.2789 -0.0275 -0.0912
  194loPI   C1B 3101  17.367   1.477  10.218  0.0360 -0.1909  0.3523
  194loPI   C2B 3102  17.379   1.495   9.733 -0.0415 -0.0749 -0.1806
  194loPI   C3B 3103  17.294   1.437   9.376  0.0105  0.2524 -0.1629
  194loPI   C4B 3104  17.361   1.349   8.971 -0.2719  0.2083  0.0042
  195loPI    C1 3105  15.569  11.803  10.813 -0.3718 -0.0821 -0.0241
  195loPI    C2 3106  15.553  11.731  11.206  0.0245  0.0777  0.0263
  195loPI    C3 3107  15.215  11.785  10.998 -0.1987 -0.2275  0.2998
  195loPI   PO4 3108  15.659  11.591  10.666  0.0704  0.2343 -0.0461
  195loPI   GL1 3109  15.738  11.532  10.184 -0.2142 -0.1300  0.0520
  195loPI   GL2 3110  15.632  11.799  10.132 -0.0992 -0.0088 -0.0465
  195loPI   C1A 3111  15.969  11.415   9.773 -0.1081  0.2803  0.2860
  195loPI   C2A 3112  15.997  11.441   9.374  0.1302  0.1134  0.2511
  195loPI   C3A 3113  15.865  11.360   8.930 -0.1340 -0.0997  0.3249
  195loPI   C4A 3114  15.962  11.339   8.503 -0.0635  0.1834  0.1312
  195loPI   C5A 3115  16.255  11.394   8.252 -0.1525  0.1520  0.0231
  195loPI   C6A 3116  16.728  11.284   8.037  0.1055  0.0332  0.4627
  195loPI   C1B 3117  15.625  11.774   9.635  0.1179  0.0853  0.4737
  195loPI   C2B 3118  15.526  11.720   9.215 -0.1438  0.1062 -0.1792
  195loPI   C3B 3119  15.434  11.667   8.842  0.3192 -0.2283  0.2459
  195loPI   C4B 3120  15.496  11.533   8.467 -0.2176  0.0631 -0.1081
  196loPI    C1 3121  16.621   9.153  11.246 -0.3248  0.1063 -0.0988
  196loPI    C2 3122  16.410   9.086  11.579 -0.2459 -0.1089 -0.0907
  196loPI    C3 3123  16.750   9.297  11.596 -0.3109 -0.0061 -0.0575
  196loPI   PO4 3124  16.458   9.117  11.062  0.0183 -0.0562 -0.0178
  196loPI   GL1 3125  16.579   9.202  10.665  0.0645  0.1661 -0.2273
  196loPI   GL2 3126  16.504   8.923  10.457 -0.0336 -0.1505  0.0138
  196loPI   C1A 3127  16.611   9.336  10.187  0.0333  0.0892  0.1115
  196loPI   C2A 3128  16.682   9.469   9.869  0.0551  0.1483 -0.3185
  196loPI   C3A 3129  16.720   9.317   9.431  0.0511 -0.2745  0.0566
  196loPI   C4A 3130  16.785   9.252   9.002  0.1881  0.1482  0.0207
  196loPI   C5A 3131  16.732   9.208   8.554 -0.0797  0.0333  0.1338
  196loPI   C6A 3132  16.458   8.974   8.154 -0.1286  0.0105  0.2022
  196loPI   C1B 3133  16.617   8.837   9.949 -0.2481  0.1080  0.0358
  196loPI   C2B 3134  16.645   8.806   9.407  0.1144 -0.4533 -0.1106
  196loPI   C3B 3135  16.689   8.689   8.943  0.1859  0.1309  0.2822
  196loPI   C4B 3136  16.622   8.741   8.551  0.0340 -0.1661 -0.3203
  197loPI    C1 3137   5.364   2.803  10.995 -0.2039  0.1317  0.0925
  197loPI    C2 3138   5.313   2.542  11.294  0.1677  0.0143  0.0589
  197loPI    C3 3139   5.055   2.844  11.246  0.0133 -0.0587  0.3983
  197loPI   PO4 3140   5.520   2.746  10.809 -0.2926 -0.1096  0.0443
  197loPI   GL1 3141   5.755   2.789  10.349  0.0936  0.0274 -0.2133
  197loPI   GL2 3142   5.918   3.136  10.284  0.0434 -0.0348 -0.0288
  197loPI   C1A 3143   5.655   2.846   9.912 -0.1757  0.1867 -0.2534
  197loPI   C2A 3144   5.759   2.950   9.546  0.1424  0.1035 -0.1102
  197loPI   C3A 3145   5.832   2.949   9.139  0.1406 -0.1605  0.1185
  197loPI   C4A 3146   5.749   2.922   8.800 -0.1087  0.0137  0.0695
  197loPI   C5A 3147   5.580   3.013   8.439  0.0693  0.0597 -0.2539
  197loPI   C6A 3148   5.716   3.004   8.012 -0.1091 -0.0743  0.0186
  197loPI   C1B 3149   5.966   3.396  10.008 -0.1762  0.1210  0.3605
  197loPI   C2B 3150   5.789   3.429   9.568  0.2805  0.0493 -0.2296
  197loPI   C3B 3151   5.824   3.454   9.121  0.2352 -0.0975  0.0750
  197loPI   C4B 3152   5.852   3.416   8.765 -0.1391 -0.1647 -0.0220
  198loPI    C1 3153   7.507  13.614  10.638  0.0636 -0.0309  0.0055
  198loPI    C2 3154   7.762  13.784  10.895  0.1611 -0.1105 -0.0380
  198loPI    C3 3155   7.367  13.827  10.946  0.1774 -0.2115  0.1848
  198loPI   PO4 3156   7.803  13.654  10.400  0.0538 -0.2786  0.2842
  198loPI   GL1 3157   7.777  13.881  10.010  0.1796 -0.1612 -0.0522
  198loPI   GL2 3158   7.717  14.247   9.946 -0.2535 -0.0367 -0.1228
  198loPI   C1A 3159   7.630  13.927   9.556  0.1328  0.2250 -0.2679
  198loPI   C2A 3160   7.688  13.892   9.075  0.0663 -0.2187  0.3822
  198loPI   C3A 3161   7.665  13.958   8.707 -0.1308 -0.1583 -0.0249
  198loPI   C4A 3162   7.603  14.016   8.249 -0.0792 -0.0198 -0.1115
  198loPI   C5A 3163   7.602  14.398   7.999  0.3915  0.5016 -0.2048
  198loPI   C6A 3164   7.484  14.896   7.924 -0.1024  0.0566  0.0341
  198loPI   C1B 3165   7.712  14.442   9.618 -0.0273 -0.0281 -0.0571
  198loPI   C2B 3166   7.692  14.409   9.221 -0.1165  0.0287  0.2391
  198loPI   C3B 3167   7.843  14.530   8.851  0.3564 -0.0955  0.0272
  198loPI   C4B 3168   7.654  14.485   8.517  0.0435  0.0152 -0.0810
  199loPI    C1 3169  14.728   7.060  11.110 -0.0610 -0.0967 -0.0164
  199loPI    C2 3170  14.779   7.445  11.208 -0.2820 -0.0705  0.0021
  199loPI    C3 3171  14.912   7.157  11.452 -0.0200 -0.0077 -0.0635
  199loPI   PO4 3172  14.536   7.054  10.900  0.0974 -0.5333 -0.1183
  199loPI   GL1 3173  14.623   7.024  10.483  0.1651 -0.0636  0.1009
  199loPI   GL2 3174  14.835   6.736  10.308  0.1913 -0.1902 -0.0726
  199loPI   C1A 3175  14.330   7.136  10.075 -0.1984  0.2794 -0.0266
  199loPI   C2A 3176  14.402   7.132   9.655  0.2018 -0.1705 -0.1817
  199loPI   C3A 3177  14.368   7.075   9.306 -0.0872 -0.1716  0.1806
  199loPI   C4A 3178  14.471   7.057   8.939 -0.0842  0.3805  0.0121
  199loPI   C5A 3179  14.541   7.055   8.435  0.2230 -0.1865 -0.0997
  199loPI   C6A 3180  14.720   7.058   8.129  0.1908  0.0184 -0.0678
  199loPI   C1B 3181  14.725   6.874   9.981 -0.0231  0.2205  0.1088
  199loPI   C2B 3182  14.813   6.780   9.603  0.1353  0.0701 -0.0433
  199loPI   C3B 3183  14.888   6.762   9.167  0.0506  0.0245 -0.1519
  199loPI   C4B 3184  14.912   6.835   8.754 -0.2209  0.4421  0.3058
  200loPI    C1 3185  13.253  17.451  11.193  0.0926  0.0575 -0.0157
  200loPI    C2 3186  13.040  17.536  11.522  0.2327 -0.2165  0.1489
  200loPI    C3 3187  12.873  17.330  11.222  0.0239  0.2571 -0.0688
  200loPI   PO4 3188  13.363  17.660  11.013  0.1346  0.1839  0.1224
  200loPI   GL1 3189  13.530  17.801  10.669 -0.0985  0.0169 -0.0071
  200loPI   GL2 3190  13.839  17.740  10.686 -0.3476 -0.1855 -0.2969
  200loPI   C1A 3191  13.592  18.017  10.249  0.0173 -0.0970  0.3145
  200loPI   C2A 3192  13.558  17.939   9.855 -0.1227 -0.1454 -0.0036
  200loPI   C3A 3193  13.557  17.985   9.373  0.1748  0.0586 -0.0753
  200loPI   C4A 3194  13.607  18.029   8.850  0.0410  0.1806 -0.2658
  200loPI   C5A 3195  13.796  17.903   8.404 -0.1343  0.3134 -0.0035
  200loPI   C6A 3196  13.819  18.032   8.015 -0.0360 -0.0637  0.1334
  200loPI   C1B 3197  13.994  17.665  10.286 -0.2126 -0.0897  0.0370
  200loPI   C2B 3198  13.960  17.618   9.810 -0.0800  0.1861 -0.1360
  200loPI   C3B 3199  13.937  17.586   9.373  0.0239  0.2007  0.1799
  200loPI   C4B 3200  13.988  17.735   8.923 -0.2293  0.0109 -0.1114
  201loPI    C1 3201  10.726  11.586  10.765  0.2399 -0.1060  0.1485
  201loPI    C2 3202  10.585  11.807  11.066 -0.0364 -0.0725 -0.0027
  201loPI    C3 3203  10.542  11.409  11.073  0.0871 -0.0850  0.0700
  201loPI   PO4 3204  10.622  11.636  10.583 -0.2069  0.0775 -0.1033
  201loPI   GL1 3205  10.872  11.517  10.244 -0.2800  0.0467  0.0612
  201loPI   GL2 3206  10.677  11.287  10.238  0.0632  0.5091 -0.0044
  201loPI   C1A 3207  11.004  11.742   9.824  0.0262 -0.3870 -0.1199
  201loPI   C2A 3208  11.059  11.816   9.400 -0.1770 -0.0649  0.1675
  201loPI   C3A 3209  11.076  11.685   9.002 -0.1588  0.1349  0.2617
  201loPI   C4A 3210  11.053  11.727   8.578  0.0238  0.1962 -0.2628
  201loPI   C5A 3211  10.657  11.937   8.349 -0.4088 -0.0244  0.1020
  201loPI   C6A 3212  10.345  12.093   7.974  0.2253 -0.0514 -0.1685
  201loPI   C1B 3213  10.817  11.228   9.761  0.2378 -0.0864 -0.3020
  201loPI   C2B 3214  10.915  11.270   9.291 -0.2226 -0.0941  0.1675
  201loPI   C3B 3215  11.005  11.209   8.813  0.0053  0.0674 -0.2336
  201loPI   C4B 3216  11.036  11.179   8.422  0.1533  0.0427  0.1351
  202loPI    C1 3217   5.140   5.337  11.103  0.0556  0.0012 -0.2150
  202loPI    C2 3218   4.999   5.556  11.406 -0.2785 -0.3253 -0.1268
  202loPI    C3 3219   5.313   5.315  11.463  0.1282  0.1596 -0.2392
  202loPI   PO4 3220   4.951   5.148  10.960 -0.2740 -0.0708 -0.1310
  202loPI   GL1 3221   5.036   4.914  10.553 -0.0356 -0.0611  0.0581
  202loPI   GL2 3222   5.124   5.153  10.363 -0.0299 -0.2961 -0.1077
  202loPI   C1A 3223   4.821   4.845  10.089 -0.2471 -0.2418 -0.1537
  202loPI   C2A 3224   4.886   4.913   9.666  0.0369 -0.0528 -0.1232
  202loPI   C3A 3225   4.870   5.090   9.226 -0.0347 -0.0833 -0.1816
  202loPI   C4A 3226   5.039   4.928   8.800 -0.1793 -0.0685 -0.0813
  202loPI   C5A 3227   5.154   4.726   8.360 -0.2839  0.0296 -0.0330
  202loPI   C6A 3228   5.414   4.347   8.313  0.2332  0.0017 -0.0248
  202loPI   C1B 3229   5.236   5.177   9.889 -0.0904 -0.1782  0.0739
  202loPI   C2B 3230   5.326   5.175   9.445 -0.1738 -0.0605 -0.1351
  202loPI   C3B 3231   5.417   5.203   9.018  0.2058  0.1899 -0.1153
  202loPI   C4B 3232   5.482   5.323   8.630  0.0923  0.0859 -0.0832
  203loPI    C1 3233   3.379   3.281  10.961 -0.0714  0.0206 -0.0224
  203loPI    C2 3234   3.144   3.493  11.204 -0.1582  0.0849 -0.1614
  203loPI    C3 3235   3.538   3.483  11.268 -0.1999 -0.0482  0.0908
  203loPI   PO4 3236   3.356   3.398  10.713  0.2674  0.0390 -0.0659
  203loPI   GL1 3237   3.546   3.425  10.377  0.2301 -0.1757  0.2778
  203loPI   GL2 3238   3.887   3.548  10.289 -0.0570  0.0054  0.1356
  203loPI   C1A 3239   3.440   3.302   9.936 -0.0235  0.3028 -0.2714
  203loPI   C2A 3240   3.476   3.171   9.512 -0.3142  0.1335 -0.3206
  203loPI   C3A 3241   3.579   3.193   9.093 -0.0170 -0.3029 -0.3309
  203loPI   C4A 3242   3.482   3.205   8.559  0.4421 -0.1571 -0.3019
  203loPI   C5A 3243   3.471   3.421   8.194  0.0342  0.2142  0.0816
  203loPI   C6A 3244   3.481   3.916   8.078 -0.0736 -0.1078  0.1548
  203loPI   C1B 3245   3.935   3.480   9.847  0.0517 -0.0140  0.0821
  203loPI   C2B 3246   3.908   3.417   9.407 -0.0621  0.4895  0.2707
  203loPI   C3B 3247   4.051   3.435   9.035 -0.1174 -0.1365 -0.0630
  203loPI   C4B 3248   3.973   3.464   8.652 -0.1658  0.1465  0.2629
  204loPI    C1 3249   9.517  13.906  10.822  0.0238  0.0796  0.1668
  204loPI    C2 3250   9.376  13.551  10.938 -0.0163  0.1558  0.3557
  204loPI    C3 3251   9.439  13.839  11.208  0.3490  0.1773  0.2529
  204loPI   PO4 3252   9.631  13.824  10.585 -0.3988 -0.1466  0.0495
  204loPI   GL1 3253   9.506  13.836  10.170  0.2271  0.1337  0.0016
  204loPI   GL2 3254   9.762  14.050  10.113 -0.0481 -0.0191 -0.0906
  204loPI   C1A 3255   9.359  13.707   9.778  0.0099  0.0882  0.3319
  204loPI   C2A 3256   9.425  13.746   9.340 -0.0188 -0.1676  0.3629
  204loPI   C3A 3257   9.528  14.172   9.181  0.2657 -0.1561  0.1224
  204loPI   C4A 3258   9.527  14.352   8.801  0.0914 -0.1821  0.0174
  204loPI   C5A 3259   9.482  14.431   8.355 -0.0074 -0.0462  0.0769
  204loPI   C6A 3260   9.330  14.457   7.899 -0.0363 -0.2222  0.1443
  204loPI   C1B 3261   9.556  14.162   9.725 -0.2174  0.0480 -0.1017
  204loPI   C2B 3262   9.179  14.464   9.543  0.0594  0.0122  0.0606
  204loPI   C3B 3263   9.235  14.653   9.098 -0.4951 -0.0743  0.1349
  204loPI   C4B 3264   9.120  14.580   8.708  0.0272 -0.1547 -0.1428
  205loPI    C1 3265  15.788  15.684  10.894  0.0543 -0.1156 -0.0371
  205loPI    C2 3266  16.011  15.862  11.174  0.1202 -0.1635 -0.0590
  205loPI    C3 3267  15.663  15.692  11.274  0.0333  0.0203 -0.0465
  205loPI   PO4 3268  15.781  15.852  10.702 -0.0732 -0.0581  0.0151
  205loPI   GL1 3269  15.830  15.807  10.293  0.3229 -0.2100  0.0971
  205loPI   GL2 3270  15.471  15.822  10.214  0.0839 -0.1070  0.2322
  205loPI   C1A 3271  15.969  15.926  10.017  0.2566  0.1303  0.1378
  205loPI   C2A 3272  15.922  15.975   9.542  0.1078 -0.1639 -0.0576
  205loPI   C3A 3273  15.955  16.032   9.130  0.3584  0.1988 -0.0133
  205loPI   C4A 3274  16.019  16.056   8.623  0.4745  0.2563 -0.3180
  205loPI   C5A 3275  16.119  16.087   8.203  0.1714 -0.0375  0.2001
  205loPI   C6A 3276  16.065  16.424   7.854 -0.4829 -0.0668  0.0093
  205loPI   C1B 3277  15.438  15.857   9.755  0.1925  0.4089 -0.3476
  205loPI   C2B 3278  15.451  15.798   9.312  0.0030 -0.0046 -0.1636
  205loPI   C3B 3279  15.477  15.838   8.891 -0.2770  0.2453 -0.1502
  205loPI   C4B 3280  15.455  15.953   8.434  0.1186 -0.2326  0.1249
  206loPI    C1 3281  16.624   9.709  10.797 -0.0788  0.1941 -0.2021
  206loPI    C2 3282  16.524   9.618  11.174  0.0825 -0.0047 -0.2054
  206loPI    C3 3283  16.389   9.956  11.007 -0.1517 -0.0123 -0.0371
  206loPI   PO4 3284  16.893   9.581  10.754 -0.1998  0.2128 -0.0811
  206loPI   GL1 3285  17.109   9.432  10.369  0.1349 -0.1371  0.0700
  206loPI   GL2 3286  17.164   9.766  10.149 -0.0025  0.3371  0.1014
  206loPI   C1A 3287  17.132   9.053  10.171  0.3384  0.1010 -0.0914
  206loPI   C2A 3288  17.095   9.023   9.745 -0.0913  0.1755  0.3207
  206loPI   C3A 3289  17.098   9.005   9.274 -0.2121  0.0265 -0.0671
  206loPI   C4A 3290  17.133   8.939   8.827 -0.0070 -0.0877 -0.2081
  206loPI   C5A 3291  17.075   8.838   8.423  0.2798  0.6010  0.0903
  206loPI   C6A 3292  16.881   8.672   8.126 -0.0097 -0.0434 -0.0035
  206loPI   C1B 3293  17.133   9.601   9.700 -0.2731 -0.0459  0.1403
  206loPI   C2B 3294  17.134   9.507   9.263 -0.1944 -0.1466 -0.0486
  206loPI   C3B 3295  17.170   9.452   8.797  0.2551  0.1396  0.1791
  206loPI   C4B 3296  17.144   9.451   8.344 -0.0847 -0.3594  0.2464
  207loPI    C1 3297   7.909  17.689  10.705 -0.2404 -0.2353 -0.1508
  207loPI    C2 3298   8.258  17.508  10.778 -0.0627  0.0805 -0.1970
  207loPI    C3 3299   8.016  17.605  11.081 -0.1273 -0.1671 -0.1671
  207loPI   PO4 3300   7.886  17.600  10.414  0.2317 -0.0165 -0.0826
  207loPI   GL1 3301   7.891  17.281  10.083  0.1630  0.5553 -0.1165
  207loPI   GL2 3302   8.283  17.347  10.104  0.0239 -0.4220 -0.0083
  207loPI   C1A 3303   7.832  17.241   9.583 -0.4621 -0.1918  0.2746
  207loPI   C2A 3304   7.849  17.272   9.103 -0.1248 -0.1932 -0.1068
  207loPI   C3A 3305   7.825  17.393   8.678  0.0885  0.0070  0.0010
  207loPI   C4A 3306   7.908  17.243   8.181 -0.1706  0.3161  0.0551
  207loPI   C5A 3307   7.800  16.886   7.945 -0.0730  0.0499  0.2723
  207loPI   C6A 3308   7.668  16.596   7.589 -0.0795 -0.1181 -0.0489
  207loPI   C1B 3309   8.324  17.506   9.841  0.1913 -0.0686 -0.1391
  207loPI   C2B 3310   8.218  17.471   9.323  0.2825  0.1285 -0.1541
  207loPI   C3B 3311   8.258  17.542   8.833  0.4485  0.0228 -0.1006
  207loPI   C4B 3312   8.092  17.692   8.474  0.2288 -0.1557  0.0373
  208loPI    C1 3313  14.771   4.462  11.261  0.0583  0.1020  0.1892
  208loPI    C2 3314  14.472   4.502  11.524 -0.0322 -0.1180  0.1222
  208loPI    C3 3315  14.843   4.612  11.625 -0.1191  0.0758  0.2362
  208loPI   PO4 3316  14.648   4.293  11.066 -0.1220 -0.1904 -0.2648
  208loPI   GL1 3317  14.661   4.205  10.632  0.0604 -0.0647 -0.2810
  208loPI   GL2 3318  14.333   4.329  10.428  0.3745 -0.1416 -0.1817
  208loPI   C1A 3319  14.767   4.189  10.134 -0.1652 -0.0969 -0.2537
  208loPI   C2A 3320  14.854   4.290   9.719 -0.1392  0.0845 -0.1289
  208loPI   C3A 3321  14.834   4.180   9.407 -0.0438 -0.1538 -0.3178
  208loPI   C4A 3322  14.805   4.207   8.903  0.2964 -0.2322 -0.1097
  208loPI   C5A 3323  14.847   4.188   8.456 -0.0719  0.0363 -0.1617
  208loPI   C6A 3324  15.268   4.115   8.205  0.0043 -0.5172  0.1434
  208loPI   C1B 3325  14.362   4.492  10.075  0.0405  0.1602  0.0079
  208loPI   C2B 3326  14.358   4.369   9.544  0.0087  0.1240  0.0882
  208loPI   C3B 3327  14.255   4.532   9.062  0.0881 -0.0880 -0.0311
  208loPI   C4B 3328  14.297   4.402   8.669  0.1119  0.3823 -0.1806
  209loPI    C1 3329   8.422  12.335  10.676 -0.1699 -0.0804 -0.0792
  209loPI    C2 3330   8.531  12.005  10.874  0.1390  0.0020 -0.1065
  209loPI    C3 3331   8.807  12.225  10.685 -0.0629  0.2797 -0.0841
  209loPI   PO4 3332   8.267  12.350  10.541  0.0047 -0.0332 -0.0738
  209loPI   GL1 3333   8.319  12.321  10.092  0.1312  0.0337  0.1801
  209loPI   GL2 3334   8.381  12.701   9.888 -0.4205  0.0319 -0.0086
  209loPI   C1A 3335   8.312  12.320   9.578  0.2059 -0.1838  0.0220
  209loPI   C2A 3336   8.309  12.291   9.193 -0.0077 -0.0383  0.0540
  209loPI   C3A 3337   8.367  12.445   8.751  0.1605  0.0436  0.0162
  209loPI   C4A 3338   8.308  12.387   8.315  0.3845 -0.2294  0.0150
  209loPI   C5A 3339   8.664  12.468   7.957 -0.2673  0.0216  0.2117
  209loPI   C6A 3340   8.703  12.873   7.710 -0.2510 -0.1936 -0.2348
  209loPI   C1B 3341   8.402  12.781   9.474 -0.1350  0.0174 -0.0326
  209loPI   C2B 3342   8.431  12.801   9.064  0.1647  0.1942 -0.0178
  209loPI   C3B 3343   8.428  12.924   8.577  0.2907  0.0523 -0.3256
  209loPI   C4B 3344   8.526  12.918   8.201  0.1846 -0.0007  0.2953
  210loPI    C1 3345   5.084   9.076  11.206 -0.0395  0.1478  0.1348
  210loPI    C2 3346   4.701   8.960  11.226  0.0074 -0.0347  0.0076
  210loPI    C3 3347   4.791   9.342  11.146 -0.1472 -0.0046 -0.0256
  210loPI   PO4 3348   5.154   8.899  10.968 -0.1122  0.0667 -0.1604
  210loPI   GL1 3349   5.310   8.899  10.550 -0.0619 -0.1473  0.0622
  210loPI   GL2 3350   5.005   8.711  10.392 -0.2233  0.0552 -0.0506
  210loPI   C1A 3351   5.470   8.961  10.048 -0.1374  0.1024 -0.1726
  210loPI   C2A 3352   5.456   8.807   9.637 -0.1495 -0.0804 -0.1413
  210loPI   C3A 3353   5.524   8.815   9.280 -0.0591  0.0220  0.1021
  210loPI   C4A 3354   5.619   8.765   8.844 -0.2831  0.0989 -0.1860
  210loPI   C5A 3355   5.521   8.640   8.401  0.0336 -0.0021 -0.1320
  210loPI   C6A 3356   5.323   8.325   8.292  0.0888 -0.5484 -0.1292
  210loPI   C1B 3357   5.005   8.613   9.983  0.1904  0.0040  0.1643
  210loPI   C2B 3358   5.052   8.568   9.523  0.1026  0.2598  0.2518
  210loPI   C3B 3359   5.007   8.502   9.083  0.0384 -0.0640  0.1005
  210loPI   C4B 3360   5.055   8.496   8.629 -0.0841 -0.2694  0.4108
  211loPI    C1 3361  12.815  10.018  10.799  0.0879  0.3553  0.1260
  211loPI    C2 3362  12.694   9.903  11.162 -0.0843  0.1903  0.0179
  211loPI    C3 3363  12.833  10.274  11.107 -0.0035  0.1986  0.2632
  211loPI   PO4 3364  12.646   9.950  10.618  0.1553  0.1466  0.1224
  211loPI   GL1 3365  12.741   9.699  10.275 -0.0565 -0.0683 -0.2296
  211loPI   GL2 3366  12.555   9.744  10.065  0.3276 -0.0531 -0.1246
  211loPI   C1A 3367  13.065   9.906   9.969 -0.1575  0.0909  0.1434
  211loPI   C2A 3368  13.075   9.904   9.497 -0.3143  0.2370  0.0347
  211loPI   C3A 3369  13.170  10.001   9.022  0.3748 -0.0165 -0.0186
  211loPI   C4A 3370  13.181   9.915   8.537 -0.0702 -0.2659 -0.1721
  211loPI   C5A 3371  13.098   9.945   8.140  0.1688  0.1614  0.0067
  211loPI   C6A 3372  13.343  10.021   7.715  0.1566  0.1208  0.1856
  211loPI   C1B 3373  12.601   9.643   9.570  0.2663 -0.0753  0.1102
  211loPI   C2B 3374  12.719   9.608   9.139  0.0878 -0.3812  0.1054
  211loPI   C3B 3375  12.830   9.678   8.803 -0.0539  0.2691 -0.1023
  211loPI   C4B 3376  12.655   9.834   8.369 -0.1632 -0.0519  0.2764
  212loPI    C1 3377  15.641   7.331  10.975 -0.0008 -0.1997 -0.1499
  212loPI    C2 3378  15.370   7.330  10.680 -0.0214  0.2541 -0.1395
  212loPI    C3 3379  15.253   7.378  11.059  0.0074 -0.3043 -0.0517
  212loPI   PO4 3380  15.971   7.412  10.850 -0.3123 -0.3083 -0.1860
  212loPI   GL1 3381  16.017   7.498  10.501  0.1237 -0.1518  0.2185
  212loPI   GL2 3382  16.164   7.729  10.358 -0.2025  0.0117  0.2184
  212loPI   C1A 3383  15.743   7.274  10.171 -0.1197  0.0905  0.0628
  212loPI   C2A 3384  15.738   7.332   9.687  0.0867 -0.0183  0.2059
  212loPI   C3A 3385  15.702   7.160   9.307  0.1711 -0.0268  0.0621
  212loPI   C4A 3386  15.803   7.208   8.898 -0.1561 -0.1427  0.0525
  212loPI   C5A 3387  15.943   7.252   8.536  0.0827 -0.0347 -0.2111
  212loPI   C6A 3388  16.171   7.508   8.210  0.1512 -0.0538  0.2724
  212loPI   C1B 3389  16.190   7.569   9.947 -0.0566  0.1191 -0.1454
  212loPI   C2B 3390  16.191   7.483   9.555 -0.1831  0.0005  0.2098
  212loPI   C3B 3391  16.159   7.430   9.140  0.1334 -0.1014  0.0548
  212loPI   C4B 3392  16.314   7.475   8.772  0.1605  0.0253  0.0346
  213loPI    C1 3393   4.713  14.769  10.758  0.1791  0.0346 -0.1606
  213loPI    C2 3394   4.911  15.025  10.993  0.1226 -0.0151 -0.0583
  213loPI    C3 3395   4.537  14.917  11.086  0.0085  0.1583 -0.3057
  213loPI   PO4 3396   4.724  14.829  10.476 -0.3982 -0.1602 -0.2316
  213loPI   GL1 3397   4.953  14.724  10.045 -0.2441  0.0456  0.0728
  213loPI   GL2 3398   4.612  14.855   9.951 -0.0961  0.2153  0.0123
  213loPI   C1A 3399   5.022  14.793   9.644 -0.0757 -0.0351 -0.3966
  213loPI   C2A 3400   4.991  14.906   9.225 -0.1412 -0.0869 -0.1311
  213loPI   C3A 3401   5.180  14.869   8.762 -0.0597  0.0394  0.1624
  213loPI   C4A 3402   5.071  14.879   8.427  0.2156  0.1229  0.1174
  213loPI   C5A 3403   5.072  15.094   7.996  0.0814 -0.0808 -0.0689
  213loPI   C6A 3404   5.179  15.562   7.815  0.1473 -0.2375 -0.1113
  213loPI   C1B 3405   4.568  15.123   9.605  0.1298  0.1628 -0.0711
  213loPI   C2B 3406   4.650  15.251   9.195 -0.0154  0.0812 -0.0929
  213loPI   C3B 3407   4.679  15.193   8.793 -0.1847 -0.1968  0.0804
  213loPI   C4B 3408   4.683  15.198   8.339  0.0983  0.0891  0.2350
  214loPI    C1 3409  12.721   1.654  11.122 -0.1730  0.0927 -0.2020
  214loPI    C2 3410  12.348   1.527  11.185 -0.0498 -0.0525  0.2757
  214loPI    C3 3411  12.646   1.393  11.415  0.2769  0.1720 -0.0074
  214loPI   PO4 3412  12.759   1.871  10.982 -0.0548  0.0048  0.0805
  214loPI   GL1 3413  12.662   2.081  10.570  0.1136  0.0030 -0.0092
  214loPI   GL2 3414  12.767   2.289  10.551 -0.3040  0.0341 -0.0202
  214loPI   C1A 3415  12.474   1.918  10.277 -0.0140 -0.0982  0.1122
  214loPI   C2A 3416  12.371   1.991   9.824 -0.3994 -0.1780  0.0159
  214loPI   C3A 3417  12.374   1.910   9.325 -0.1277  0.0855 -0.0617
  214loPI   C4A 3418  12.466   1.899   8.847  0.2931 -0.0772 -0.1570
  214loPI   C5A 3419  12.446   1.888   8.440 -0.3471  0.0126 -0.0696
  214loPI   C6A 3420  12.434   1.705   8.076 -0.2887  0.0076  0.1120
  214loPI   C1B 3421  12.929   2.123  10.151  0.0932 -0.0098  0.0152
  214loPI   C2B 3422  12.900   2.162   9.640 -0.0412 -0.2804 -0.0131
  214loPI   C3B 3423  12.964   2.142   9.346  0.0103 -0.0232  0.0712
  214loPI   C4B 3424  12.901   2.189   8.787 -0.2698  0.0910  0.2239
  215loPI    C1 3425  12.583  10.898  10.850 -0.0572  0.3166 -0.2919
  215loPI    C2 3426  12.776  11.105  11.132  0.2692 -0.4047  0.0393
  215loPI    C3 3427  12.407  10.968  11.202  0.1318 -0.1176 -0.1044
  215loPI   PO4 3428  12.712  11.032  10.621  0.0320  0.0513  0.3403
  215loPI   GL1 3429  12.730  11.333  10.327  0.2026  0.2033  0.3852
  215loPI   GL2 3430  12.439  11.199  10.194  0.1990 -0.0436  0.0651
  215loPI   C1A 3431  12.827  11.249   9.824 -0.0084  0.0722 -0.0178
  215loPI   C2A 3432  12.822  11.259   9.429 -0.0308  0.0204  0.0961
  215loPI   C3A 3433  12.734  11.487   9.005  0.0719 -0.1893 -0.0278
  215loPI   C4A 3434  12.809  11.448   8.645 -0.1311 -0.0114 -0.3153
  215loPI   C5A 3435  13.070  11.539   8.356 -0.0311  0.0226 -0.0732
  215loPI   C6A 3436  13.274  11.860   8.105  0.0983  0.3114  0.1295
  215loPI   C1B 3437  12.330  11.272   9.738  0.1480 -0.2060  0.0001
  215loPI   C2B 3438  12.327  11.309   9.310  0.0494  0.0923 -0.1254
  215loPI   C3B 3439  12.251  11.239   8.753 -0.0777  0.1841 -0.2848
  215loPI   C4B 3440  12.319  10.901   8.353  0.2555  0.0660 -0.1050
  216loPI    C1 3441   2.535   2.006  10.931 -0.0129  0.1361  0.1261
  216loPI    C2 3442   2.323   1.701  10.781  0.1960 -0.0478  0.1991
  216loPI    C3 3443   2.136   2.002  10.967 -0.0006 -0.2061  0.2611
  216loPI   PO4 3444   2.670   2.104  10.769  0.1928  0.0885 -0.0511
  216loPI   GL1 3445   2.453   2.134  10.416 -0.0756  0.1401 -0.4000
  216loPI   GL2 3446   2.184   2.104  10.408  0.1375 -0.2066  0.0590
  216loPI   C1A 3447   2.644   2.266   9.995 -0.1122  0.4608  0.2206
  216loPI   C2A 3448   2.679   2.327   9.590 -0.0448 -0.0955 -0.0447
  216loPI   C3A 3449   2.575   2.253   9.100  0.1831 -0.1602 -0.1553
  216loPI   C4A 3450   2.559   2.167   8.610 -0.1777  0.0140  0.0176
  216loPI   C5A 3451   2.266   1.990   8.407  0.0282 -0.0735 -0.1260
  216loPI   C6A 3452   2.098   1.942   7.977  0.1433 -0.2109 -0.0187
  216loPI   C1B 3453   1.885   1.965  10.101 -0.0877 -0.0649 -0.0763
  216loPI   C2B 3454   1.989   1.900   9.644 -0.1014  0.0532 -0.0927
  216loPI   C3B 3455   2.021   1.917   9.267  0.3663  0.1080 -0.1108
  216loPI   C4B 3456   2.094   1.996   8.908 -0.0065 -0.0596 -0.0714
  217loPI    C1 3457   2.903   6.937  11.129 -0.0848  0.0440 -0.0350
  217loPI    C2 3458   3.170   6.659  11.238 -0.1768 -0.0138  0.0442
  217loPI    C3 3459   2.881   6.770  11.492 -0.2567  0.0144 -0.0583
  217loPI   PO4 3460   2.800   6.773  10.795  0.0857 -0.1194  0.1470
  217loPI   GL1 3461   2.836   6.731  10.468 -0.0767 -0.1219 -0.2051
  217loPI   GL2 3462   2.518   6.888  10.319 -0.1129  0.0485 -0.1144
  217loPI   C1A 3463   3.006   6.675  10.079  0.1462  0.0204 -0.1645
  217loPI   C2A 3464   3.140   6.612   9.635 -0.1353  0.0688 -0.1974
  217loPI   C3A 3465   3.159   6.584   9.181 -0.0291 -0.0749 -0.1343
  217loPI   C4A 3466   3.107   6.461   8.750 -0.3031  0.0084  0.0266
  217loPI   C5A 3467   3.020   6.444   8.313 -0.1035 -0.2057 -0.3757
  217loPI   C6A 3468   3.384   6.547   7.977  0.0143 -0.1021 -0.2252
  217loPI   C1B 3469   2.605   7.011   9.946  0.1239  0.0593 -0.0009
  217loPI   C2B 3470   2.617   6.912   9.489  0.0091 -0.1667  0.1841
  217loPI   C3B 3471   2.671   6.848   9.049  0.1454  0.0247  0.1047
  217loPI   C4B 3472   2.732   6.766   8.541 -0.1651  0.0904 -0.3963
  218loPI    C1 3473   7.025  10.731  10.938 -0.1066 -0.1719  0.1934
  218loPI    C2 3474   7.151  10.997  11.210 -0.3569  0.0650  0.0823
  218loPI    C3 3475   6.759  10.935  11.156 -0.3130  0.0699 -0.2691
  218loPI   PO4 3476   7.184  10.817  10.736  0.1373 -0.2976 -0.0347
  218loPI   GL1 3477   7.184  10.802  10.304 -0.1556 -0.0703  0.0782
  218loPI   GL2 3478   7.110  11.157  10.333 -0.0118  0.0653 -0.2273
  218loPI   C1A 3479   7.293  10.760   9.915 -0.1038  0.2567 -0.1097
  218loPI   C2A 3480   7.291  10.784   9.474  0.0959 -0.1803  0.0729
  218loPI   C3A 3481   7.216  10.842   9.079 -0.0265 -0.1465  0.2316
  218loPI   C4A 3482   7.295  10.988   8.624 -0.0556  0.1201 -0.0713
  218loPI   C5A 3483   7.643  10.769   8.353 -0.2634  0.1625  0.0314
  218loPI   C6A 3484   8.046  10.675   8.193  0.2145  0.2837 -0.3919
  218loPI   C1B 3485   7.238  11.267   9.855  0.1404  0.0508 -0.1218
  218loPI   C2B 3486   7.386  11.402   9.396  0.4604  0.2451  0.2240
  218loPI   C3B 3487   7.376  11.379   8.930  0.1210  0.2300 -0.0524
  218loPI   C4B 3488   7.436  11.534   8.448  0.0032 -0.0039 -0.1145
  219loPI    C1 3489   4.067  12.746  10.329  0.2130  0.2413  0.0128
  219loPI    C2 3490   4.123  12.388  10.497 -0.2030 -0.0277 -0.3962
  219loPI    C3 3491   4.011  12.699  10.722 -0.0424 -0.2009 -0.0699
  219loPI   PO4 3492   3.886  12.711  10.160  0.1768 -0.1318 -0.0147
  219loPI   GL1 3493   3.588  12.724   9.829  0.1014 -0.1391 -0.0421
  219loPI   GL2 3494   3.692  12.505   9.759 -0.0551 -0.0391  0.2436
  219loPI   C1A 3495   3.833  12.890   9.533 -0.3236 -0.0056  0.2334
  219loPI   C2A 3496   3.894  12.869   9.131 -0.3054 -0.2572 -0.0232
  219loPI   C3A 3497   3.915  12.964   8.756 -0.3044 -0.0742 -0.1899
  219loPI   C4A 3498   3.803  12.973   8.329  0.1411 -0.0785  0.0688
  219loPI   C5A 3499   4.057  12.805   7.946  0.2554  0.0745 -0.0984
  219loPI   C6A 3500   4.147  12.968   7.566  0.0393  0.1939  0.0541
  219loPI   C1B 3501   3.575  12.505   9.360 -0.0438  0.2094  0.1519
  219loPI   C2B 3502   3.499  12.531   8.977  0.0568  0.0465  0.0894
  219loPI   C3B 3503   3.457  12.756   8.529 -0.4266  0.2535 -0.4330
  219loPI   C4B 3504   3.253  12.812   8.101 -0.3721 -0.1538  0.0741
  220loPI    C1 3505  17.937  10.599  10.907  0.0458  0.2370 -0.1496
  220loPI    C2 3506  18.225  10.825  11.068  0.0599  0.0605  0.0778
  220loPI    C3 3507  18.070  10.520  11.276  0.0538 -0.1521 -0.2311
  220loPI   PO4 3508  18.095  10.485  10.647 -0.1575  0.2753  0.1821
  220loPI   GL1 3509  18.104  10.448  10.268 -0.0701  0.2419  0.3764
  220loPI   GL2 3510  18.058  10.629   9.961 -0.2258 -0.1884 -0.1364
  220loPI   C1A 3511  18.092  10.091   9.974  0.2861  0.1474  0.1771
  220loPI   C2A 3512  17.979   9.992   9.504  0.0384 -0.0058  0.1742
  220loPI   C3A 3513  18.079   9.936   9.094 -0.2497 -0.0942  0.0824
  220loPI   C4A 3514  18.154  10.020   8.709  0.3370  0.1171 -0.1390
  220loPI   C5A 3515  18.257  10.062   8.248 -0.1165  0.1705 -0.1443
  220loPI   C6A 3516  18.053  10.041   7.828 -0.3203  0.1044 -0.1775
  220loPI   C1B 3517  18.028  10.500   9.572 -0.1456  0.1496 -0.2502
  220loPI   C2B 3518  18.126  10.516   9.210  0.1179  0.0908  0.0874
  220loPI   C3B 3519  18.079  10.540   8.789  0.0243  0.4175 -0.0052
  220loPI   C4B 3520  18.134  10.575   8.353 -0.0520  0.2630 -0.3752
  221loPI    C1 3521   5.801  17.193  10.544  0.0029 -0.1628  0.2544
  221loPI    C2 3522   6.057  17.446  10.369 -0.2363 -0.1317 -0.0607
  221loPI    C3 3523   5.931  17.515  10.742 -0.0653  0.0467 -0.0344
  221loPI   PO4 3524   5.951  16.971  10.445  0.2006 -0.1304  0.1876
  221loPI   GL1 3525   5.934  17.050  10.056  0.2653  0.1602  0.2321
  221loPI   GL2 3526   5.718  17.238  10.031 -0.1598 -0.1145 -0.1814
  221loPI   C1A 3527   5.808  17.015   9.574  0.2627  0.0345  0.1586
  221loPI   C2A 3528   5.893  17.045   9.221 -0.1436 -0.0759 -0.1800
  221loPI   C3A 3529   5.981  17.163   8.821  0.1651  0.0406  0.0145
  221loPI   C4A 3530   6.005  17.592   8.598  0.1991 -0.0784 -0.0842
  221loPI   C5A 3531   5.976  17.871   8.326  0.0432 -0.0939 -0.0340
  221loPI   C6A 3532   5.889  18.035   7.980  0.0753 -0.1224  0.1711
  221loPI   C1B 3533   5.916  17.552   9.907 -0.1313  0.0724 -0.0864
  221loPI   C2B 3534   5.937  17.554   9.461 -0.0528 -0.0039  0.0714
  221loPI   C3B 3535   6.085  17.656   9.091 -0.0802 -0.1747  0.1602
  221loPI   C4B 3536   5.918  18.015   8.810 -0.4416 -0.0263 -0.0113
  222loPI    C1 3537   1.919   3.843  10.811  0.0617 -0.1889  0.0889
  222loPI    C2 3538   2.044   4.213  10.896  0.2188 -0.2155 -0.0207
  222loPI    C3 3539   1.896   3.979  11.186  0.2158 -0.1044  0.0681
  222loPI   PO4 3540   2.023   3.793  10.650  0.2906  0.0982  0.0114
  222loPI   GL1 3541   2.078   4.118  10.378  0.1166 -0.1276  0.3367
  222loPI   GL2 3542   1.716   4.020  10.344 -0.0979 -0.4031 -0.1569
  222loPI   C1A 3543   2.141   4.106   9.926 -0.1077 -0.0662  0.0135
  222loPI   C2A 3544   2.160   4.122   9.500  0.0450  0.0008  0.0780
  222loPI   C3A 3545   2.136   4.027   9.102  0.2066  0.3115 -0.0806
  222loPI   C4A 3546   2.149   3.991   8.639  0.2241  0.0095  0.2269
  222loPI   C5A 3547   1.878   4.143   8.319  0.0250  0.4797 -0.3568
  222loPI   C6A 3548   1.473   4.195   8.370  0.4222 -0.1456  0.1199
  222loPI   C1B 3549   1.740   3.850  10.028  0.1544 -0.1630 -0.1973
  222loPI   C2B 3550   1.739   3.787   9.700 -0.1415 -0.3972 -0.1595
  222loPI   C3B 3551   1.693   3.844   9.278  0.0255  0.0225 -0.2515
  222loPI   C4B 3552   1.616   3.876   8.778 -0.0604  0.0793  0.3979
  223loPI    C1 3553  17.546  13.847  10.808 -0.1156 -0.1905  0.2343
  223loPI    C2 3554  17.677  13.941  11.174 -0.0304 -0.2085  0.2085
  223loPI    C3 3555  17.909  13.730  10.926 -0.0225 -0.0569  0.0849
  223loPI   PO4 3556  17.498  14.001  10.723  0.0476  0.2029  0.1874
  223loPI   GL1 3557  17.412  14.128  10.325 -0.0513  0.1704 -0.1981
  223loPI   GL2 3558  17.696  14.211  10.320 -0.2232  0.1571 -0.4667
  223loPI   C1A 3559  17.393  14.170   9.838 -0.2734 -0.0771  0.0501
  223loPI   C2A 3560  17.391  14.150   9.404  0.0310  0.0778 -0.0140
  223loPI   C3A 3561  17.466  14.186   8.970 -0.1956  0.0562  0.5279
  223loPI   C4A 3562  17.363  14.116   8.578 -0.0514  0.0336  0.2464
  223loPI   C5A 3563  17.312  14.090   8.105  0.0172  0.1153  0.0649
  223loPI   C6A 3564  17.250  14.184   7.687 -0.3712  0.0156  0.0415
  223loPI   C1B 3565  17.726  14.527  10.006 -0.2099 -0.3927  0.0871
  223loPI   C2B 3566  17.605  14.603   9.616  0.1166 -0.1003  0.0583
  223loPI   C3B 3567  17.500  14.707   9.223  0.1327  0.0025 -0.2094
  223loPI   C4B 3568  17.581  14.647   8.762 -0.0862  0.3066  0.2149
  224loPI    C1 3569   3.806   8.902  10.747  0.1871 -0.0458 -0.2543
  224loPI    C2 3570   3.806   9.299  10.799  0.3398 -0.0800  0.0258
  224loPI    C3 3571   3.491   9.082  10.917  0.2206 -0.0351 -0.2036
  224loPI   PO4 3572   3.886   8.888  10.495  0.1668 -0.1244 -0.0535
  224loPI   GL1 3573   3.897   8.563  10.215 -0.0038  0.0854 -0.2187
  224loPI   GL2 3574   3.991   8.256  10.197 -0.0413 -0.1937 -0.3026
  224loPI   C1A 3575   4.016   8.664   9.846  0.0048 -0.2198  0.0578
  224loPI   C2A 3576   4.125   8.672   9.390 -0.2082 -0.0255 -0.3262
  224loPI   C3A 3577   4.125   8.639   8.967 -0.0725 -0.0899  0.0205
  224loPI   C4A 3578   4.120   8.546   8.539 -0.1460  0.0805  0.2204
  224loPI   C5A 3579   3.980   8.455   8.170 -0.1878  0.0705  0.3541
  224loPI   C6A 3580   3.731   8.444   7.783  0.1069  0.0315 -0.1861
  224loPI   C1B 3581   4.148   8.185   9.773  0.2163  0.1381  0.1043
  224loPI   C2B 3582   4.121   8.175   9.270 -0.0128  0.1313 -0.0105
  224loPI   C3B 3583   4.153   8.099   8.841 -0.0453 -0.0026  0.0008
  224loPI   C4B 3584   4.108   8.062   8.430  0.1472 -0.0679 -0.1062
  225loPI    C1 3585  10.357   0.766  10.795  0.0748  0.0088  0.1016
  225loPI    C2 3586  10.025   0.635  10.975 -0.0647  0.0666 -0.1098
  225loPI    C3 3587  10.159   1.005  11.047 -0.0279  0.0323 -0.0005
  225loPI   PO4 3588  10.404   0.692  10.474  0.0144 -0.1010  0.2109
  225loPI   GL1 3589  10.713   0.994  10.214 -0.1502 -0.2585 -0.0505
  225loPI   GL2 3590  11.051   0.968  10.111 -0.0285  0.2680  0.0648
  225loPI   C1A 3591  10.597   1.260   9.893 -0.2176 -0.0548 -0.3619
  225loPI   C2A 3592  10.655   1.317   9.507  0.1401 -0.2190 -0.4534
  225loPI   C3A 3593  10.623   1.498   9.185  0.0374 -0.2670 -0.0831
  225loPI   C4A 3594  10.617   1.487   8.751  0.2124  0.3189 -0.0741
  225loPI   C5A 3595  10.570   1.283   8.325  0.1620 -0.0498  0.2310
  225loPI   C6A 3596  10.522   0.990   8.026  0.4662  0.0681 -0.3043
  225loPI   C1B 3597  11.065   1.098   9.610  0.1889 -0.1376  0.2392
  225loPI   C2B 3598  11.022   1.102   9.110  0.1968  0.0907 -0.0431
  225loPI   C3B 3599  11.039   1.232   8.726  0.0073 -0.1673 -0.2934
  225loPI   C4B 3600  11.045   1.074   8.358 -0.0101  0.0967  0.0530
  226loPI    C1 3601   5.420  17.114  10.833 -0.1346  0.1580 -0.1330
  226loPI    C2 3602   5.284  17.102  11.209 -0.0473  0.2217 -0.0990
  226loPI    C3 3603   5.668  17.189  11.138  0.0239 -0.1442 -0.1832
  226loPI   PO4 3604   5.390  16.968  10.759 -0.1308  0.1092 -0.0478
  226loPI   GL1 3605   5.413  16.839  10.292 -0.0775 -0.0145 -0.0011
  226loPI   GL2 3606   5.297  17.091  10.307  0.3678  0.1645 -0.1654
  226loPI   C1A 3607   5.439  16.790   9.834 -0.1919  0.0213  0.0804
  226loPI   C2A 3608   5.336  16.890   9.477  0.0728 -0.0626 -0.0597
  226loPI   C3A 3609   5.447  16.870   8.977  0.1790 -0.0575  0.1133
  226loPI   C4A 3610   5.462  16.868   8.498  0.3536 -0.0572 -0.1991
  226loPI   C5A 3611   5.594  16.850   8.118 -0.0719  0.3457  0.2471
  226loPI   C6A 3612   5.894  16.940   7.816  0.3423  0.1830 -0.0083
  226loPI   C1B 3613   5.048  17.167   9.947  0.0073  0.0185 -0.0504
  226loPI   C2B 3614   4.920  17.200   9.551  0.1970  0.1675 -0.1976
  226loPI   C3B 3615   5.013  17.195   9.108 -0.2192  0.1543 -0.1217
  226loPI   C4B 3616   5.122  17.172   8.703 -0.1425  0.0859  0.1918
  227loPI    C1 3617  10.813  12.759  10.919  0.1680 -0.1774 -0.1516
  227loPI    C2 3618  11.086  12.508  11.067 -0.1335 -0.4284 -0.0108
  227loPI    C3 3619  10.866  12.732  11.315 -0.0976 -0.2708 -0.1205
  227loPI   PO4 3620  10.897  12.941  10.589  0.1206 -0.0255  0.1012
  227loPI   GL1 3621  10.776  12.828  10.137 -0.0183  0.0941 -0.1198
  227loPI   GL2 3622  10.553  12.989  10.126  0.0665  0.0470 -0.2197
  227loPI   C1A 3623  10.880  12.646   9.749 -0.1985 -0.1545 -0.0829
  227loPI   C2A 3624  10.858  12.672   9.371  0.0016 -0.1826 -0.0075
  227loPI   C3A 3625  10.753  12.575   8.995 -0.1744  0.1077 -0.1032
  227loPI   C4A 3626  10.707  12.572   8.528  0.2887  0.0038  0.1845
  227loPI   C5A 3627  10.685  12.400   8.116  0.0554  0.1897  0.2619
  227loPI   C6A 3628  10.886  12.271   7.713  0.0091 -0.0430  0.1575
  227loPI   C1B 3629  10.320  12.898   9.783  0.0564  0.1304 -0.0506
  227loPI   C2B 3630  10.287  13.061   9.379 -0.0461 -0.1292 -0.0620
  227loPI   C3B 3631  10.282  12.954   8.840  0.3521  0.3014 -0.0342
  227loPI   C4B 3632  10.386  12.992   8.425 -0.0203 -0.0958 -0.4030
  228loPI    C1 3633  14.727  13.567  10.958  0.0523  0.0486  0.1061
  228loPI    C2 3634  14.554  13.232  11.092  0.1112 -0.0261 -0.0021
  228loPI    C3 3635  14.739  13.479  11.348  0.1382 -0.1170  0.0669
  228loPI   PO4 3636  14.829  13.523  10.773  0.1001 -0.0774 -0.1208
  228loPI   GL1 3637  15.041  13.588  10.452  0.0874  0.1376 -0.0893
  228loPI   GL2 3638  14.930  13.412  10.289 -0.0341  0.2713  0.0298
  228loPI   C1A 3639  14.977  13.821  10.052 -0.0104  0.2870 -0.0647
  228loPI   C2A 3640  14.961  13.770   9.686 -0.0822  0.0133  0.0808
  228loPI   C3A 3641  15.028  13.779   9.232  0.1120  0.0987  0.1747
  228loPI   C4A 3642  15.092  13.790   8.817  0.2958 -0.4724  0.3594
  228loPI   C5A 3643  15.144  13.696   8.440  0.0538  0.4070 -0.0731
  228loPI   C6A 3644  14.952  13.549   7.987 -0.2600  0.0362  0.1835
  228loPI   C1B 3645  14.894  13.271  10.003 -0.3538 -0.0179  0.0360
  228loPI   C2B 3646  14.875  13.284   9.438  0.0589 -0.1926  0.3055
  228loPI   C3B 3647  14.919  13.334   8.928  0.0422 -0.1672  0.0960
  228loPI   C4B 3648  14.915  13.186   8.516  0.1134 -0.3479  0.2851
  229loPI    C1 3649  13.028   8.578  11.054  0.0448  0.2391  0.1330
  229loPI    C2 3650  12.674   8.398  11.107  0.1360  0.0508  0.1133
  229loPI    C3 3651  12.731   8.772  11.240 -0.0712  0.0846  0.1112
  229loPI   PO4 3652  13.118   8.477  10.763  0.1171 -0.1211 -0.0670
  229loPI   GL1 3653  12.942   8.420  10.328 -0.2170  0.2344  0.3432
  229loPI   GL2 3654  12.678   8.218  10.509 -0.1104 -0.0826 -0.1397
  229loPI   C1A 3655  13.041   8.392   9.900  0.1080  0.2358 -0.0563
  229loPI   C2A 3656  13.018   8.338   9.499  0.2585  0.0135  0.0983
  229loPI   C3A 3657  13.131   8.284   9.141  0.0310  0.1845  0.0459
  229loPI   C4A 3658  13.042   8.307   8.749 -0.0167 -0.1203 -0.3732
  229loPI   C5A 3659  13.067   8.367   8.349  0.2443 -0.0263 -0.4645
  229loPI   C6A 3660  13.099   8.321   7.899  0.2969  0.0526  0.0295
  229loPI   C1B 3661  12.569   8.231  10.047  0.0913  0.0728  0.1695
  229loPI   C2B 3662  12.497   8.070   9.573  0.0321 -0.1638  0.0303
  229loPI   C3B 3663  12.614   8.138   9.114 -0.2667 -0.2917  0.0263
  229loPI   C4B 3664  12.574   8.002   8.756 -0.0672 -0.3930 -0.0159
  230loPI    C1 3665   8.615   4.926  10.857 -0.2552 -0.0386  0.0607
  230loPI    C2 3666   8.652   5.203  11.143 -0.1014 -0.0572  0.0600
  230loPI    C3 3667   8.859   4.862  11.168  0.1938  0.0932 -0.2534
  230loPI   PO4 3668   8.525   4.985  10.716  0.0085  0.1118 -0.0306
  230loPI   GL1 3669   8.332   5.051  10.390 -0.0167 -0.0175 -0.0630
  230loPI   GL2 3670   8.344   4.814  10.228  0.1205 -0.2744 -0.0756
  230loPI   C1A 3671   8.374   5.290  10.128 -0.2109  0.0016  0.2981
  230loPI   C2A 3672   8.511   5.408   9.741 -0.0054  0.0307  0.1132
  230loPI   C3A 3673   8.496   5.437   9.348 -0.0959 -0.1889 -0.0157
  230loPI   C4A 3674   8.497   5.317   8.958  0.0668 -0.1209 -0.0210
  230loPI   C5A 3675   8.263   5.309   8.579 -0.0535 -0.0875  0.2290
  230loPI   C6A 3676   8.033   4.960   8.234 -0.0957 -0.2020 -0.1110
  230loPI   C1B 3677   8.482   4.897   9.774 -0.0709  0.2236 -0.0460
  230loPI   C2B 3678   8.574   4.913   9.369 -0.0017 -0.0659 -0.0448
  230loPI   C3B 3679   8.508   4.818   8.943 -0.1072  0.0958 -0.0728
  230loPI   C4B 3680   8.445   4.848   8.481  0.0247  0.1223  0.1693
  231loPI    C1 3681  11.968   7.812  11.156  0.0395  0.0755  0.1604
  231loPI    C2 3682  11.836   7.972  11.498  0.0296 -0.0464  0.2145
  231loPI    C3 3683  11.945   7.588  11.487 -0.0254 -0.0584  0.0661
  231loPI   PO4 3684  11.868   8.003  11.021 -0.0118 -0.3398 -0.2897
  231loPI   GL1 3685  11.561   8.128  10.739  0.0028 -0.0560 -0.3612
  231loPI   GL2 3686  11.822   8.170  10.552  0.1144  0.1042 -0.0265
  231loPI   C1A 3687  11.346   7.907  10.431  0.0391 -0.0577  0.0323
  231loPI   C2A 3688  11.235   7.900   9.968  0.2687 -0.1931 -0.0504
  231loPI   C3A 3689  11.209   7.876   9.566 -0.0303  0.0332  0.0286
  231loPI   C4A 3690  11.277   7.844   9.098  0.1628  0.0462  0.0500
  231loPI   C5A 3691  11.315   7.909   8.689 -0.0466 -0.1907 -0.2396
  231loPI   C6A 3692  11.254   8.190   8.425  0.0273 -0.3387  0.0134
  231loPI   C1B 3693  11.646   8.174  10.145 -0.2765 -0.1504 -0.1397
  231loPI   C2B 3694  11.660   8.122   9.782 -0.1299 -0.2875  0.1456
  231loPI   C3B 3695  11.652   8.158   9.230 -0.1555  0.0336 -0.1605
  231loPI   C4B 3696  11.737   8.136   8.830  0.0450  0.1740  0.2119
  232loPI    C1 3697  14.269  14.245  11.133 -0.1001 -0.2912 -0.0392
  232loPI    C2 3698  13.895  14.188  11.264 -0.0561 -0.1611  0.1483
  232loPI    C3 3699  14.204  14.145  11.515  0.0508 -0.1979  0.0120
  232loPI   PO4 3700  14.269  14.094  10.915  0.2399 -0.2064 -0.0115
  232loPI   GL1 3701  14.328  13.777  10.647 -0.0582  0.2218 -0.0844
  232loPI   GL2 3702  14.504  13.653  10.406  0.1578 -0.0918 -0.1045
  232loPI   C1A 3703  14.096  13.920  10.246  0.1384 -0.2260 -0.2853
  232loPI   C2A 3704  14.076  13.956   9.822 -0.1687 -0.0101 -0.0334
  232loPI   C3A 3705  14.022  13.939   9.352 -0.1386 -0.4288  0.3347
  232loPI   C4A 3706  14.040  13.959   8.898 -0.0759 -0.3235  0.0872
  232loPI   C5A 3707  14.119  13.882   8.513  0.0535 -0.2334 -0.0123
  232loPI   C6A 3708  14.046  13.537   8.263  0.0048  0.2377 -0.0021
  232loPI   C1B 3709  14.538  13.683   9.900 -0.2498 -0.1220 -0.2885
  232loPI   C2B 3710  14.561  13.691   9.446 -0.2560 -0.1240 -0.1091
  232loPI   C3B 3711  14.464  13.502   9.029 -0.0154  0.0344 -0.0652
  232loPI   C4B 3712  14.413  13.129   8.803 -0.0256 -0.0846  0.6957
  233loPI    C1 3713   1.943  12.187  10.166 -0.1724  0.0537  0.1348
  233loPI    C2 3714   2.186  12.062  10.458 -0.0807 -0.1253 -0.0161
  233loPI    C3 3715   1.919  12.351  10.530  0.2566  0.1594  0.1207
  233loPI   PO4 3716   2.026  12.019   9.999 -0.3563  0.1314 -0.0124
  233loPI   GL1 3717   2.264  11.923   9.650 -0.0734  0.3179  0.2325
  233loPI   GL2 3718   2.270  11.574   9.704  0.0004 -0.0184  0.0305
  233loPI   C1A 3719   2.387  11.863   9.236 -0.1507 -0.3922 -0.1148
  233loPI   C2A 3720   2.355  11.950   8.790  0.1847  0.0609  0.1423
  233loPI   C3A 3721   2.383  11.906   8.397  0.3174  0.0324  0.0453
  233loPI   C4A 3722   2.317  11.966   8.002  0.1470  0.1019 -0.1376
  233loPI   C5A 3723   1.999  11.976   7.643  0.2734  0.0254  0.1073
  233loPI   C6A 3724   1.679  11.671   7.407  0.0409  0.1606 -0.1885
  233loPI   C1B 3725   2.252  11.362   9.233 -0.2097  0.0983  0.1973
  233loPI   C2B 3726   2.246  11.322   8.784  0.0282  0.0226 -0.1819
  233loPI   C3B 3727   2.200  11.397   8.394  0.2509 -0.3224  0.3394
  233loPI   C4B 3728   2.446  11.374   8.109  0.0970  0.3195  0.0060
  234loPI    C1 3729   8.920  11.103  10.798 -0.1139  0.1509  0.2101
  234loPI    C2 3730   9.084  10.945  11.127  0.1684  0.0709  0.0346
  234loPI    C3 3731   9.190  11.312  11.007  0.1422  0.0595 -0.0240
  234loPI   PO4 3732   8.925  10.835  10.599  0.1623  0.0430 -0.2042
  234loPI   GL1 3733   8.944  10.700  10.271 -0.2529 -0.0990 -0.1679
  234loPI   GL2 3734   9.261  10.888  10.136  0.0983 -0.0555  0.3164
  234loPI   C1A 3735   8.644  10.579  10.095 -0.1083  0.2315 -0.0152
  234loPI   C2A 3736   8.629  10.433   9.668  0.0963 -0.0861  0.2809
  234loPI   C3A 3737   8.651  10.476   9.251 -0.0870 -0.1969 -0.1451
  234loPI   C4A 3738   8.724  10.529   8.897  0.3219  0.0788 -0.0646
  234loPI   C5A 3739   8.827  10.522   8.489 -0.2287  0.1678 -0.3483
  234loPI   C6A 3740   8.667  10.703   8.179  0.2473  0.0020  0.3164
  234loPI   C1B 3741   9.332  10.990   9.681  0.2278 -0.0493  0.1281
  234loPI   C2B 3742   9.370  10.898   9.217  0.2551 -0.0074  0.0583
  234loPI   C3B 3743   9.161  10.895   8.783  0.1256  0.1520 -0.2085
  234loPI   C4B 3744   9.133  10.916   8.301  0.0080  0.1576  0.0248
  235loPI    C1 3745   5.154  14.223  10.640 -0.0182  0.1155 -0.1159
  235loPI    C2 3746   4.771  14.280  10.742 -0.0319 -0.0809 -0.0539
  235loPI    C3 3747   4.964  13.952  10.864  0.1508  0.0069 -0.1028
  235loPI   PO4 3748   5.144  14.330  10.391  0.0400  0.7657  0.1320
  235loPI   GL1 3749   5.023  14.259   9.906  0.2445 -0.3142 -0.0736
  235loPI   GL2 3750   4.713  14.355   9.761  0.1238 -0.3200 -0.2911
  235loPI   C1A 3751   5.019  14.310   9.344  0.2659  0.1372  0.2171
  235loPI   C2A 3752   4.992  14.440   8.980  0.0070  0.0268  0.3149
  235loPI   C3A 3753   5.071  14.362   8.560  0.0418 -0.0370  0.1842
  235loPI   C4A 3754   5.044  14.414   8.132  0.1903 -0.1795  0.2889
  235loPI   C5A 3755   4.842  14.675   7.829 -0.2241 -0.2772  0.0221
  235loPI   C6A 3756   4.903  15.090   7.551  0.2292  0.0041 -0.2672
  235loPI   C1B 3757   4.569  14.623   9.407 -0.1103  0.0622 -0.2440
  235loPI   C2B 3758   4.507  14.772   9.038  0.2241 -0.1162 -0.1585
  235loPI   C3B 3759   4.602  14.742   8.679 -0.0513 -0.2327 -0.1247
  235loPI   C4B 3760   4.525  14.664   8.325 -0.3177  0.2102  0.0937
  236loPI    C1 3761  11.157  10.443  11.089  0.3125 -0.1375 -0.0855
  236loPI    C2 3762  10.923  10.134  10.991  0.2615 -0.0924 -0.1066
  236loPI    C3 3763  10.905  10.289  11.359  0.0357  0.1070 -0.1988
  236loPI   PO4 3764  11.151  10.633  10.824 -0.0780  0.2123  0.0603
  236loPI   GL1 3765  11.439  10.734  10.467 -0.1955  0.2937  0.0108
  236loPI   GL2 3766  11.599  10.963  10.426  0.0821 -0.0587 -0.0618
  236loPI   C1A 3767  11.228  10.596  10.110  0.0205  0.1947 -0.0311
  236loPI   C2A 3768  11.240  10.560   9.654 -0.3945 -0.0257  0.1365
  236loPI   C3A 3769  11.260  10.478   9.261 -0.0647  0.2144  0.0843
  236loPI   C4A 3770  11.317  10.379   8.738 -0.0897  0.0378  0.1252
  236loPI   C5A 3771  11.087  10.101   8.503  0.2068  0.0186 -0.1812
  236loPI   C6A 3772  10.931   9.888   8.153  0.3373 -0.0589  0.2623
  236loPI   C1B 3773  11.606  10.908   9.949  0.0879 -0.2559  0.3640
  236loPI   C2B 3774  11.600  10.906   9.498  0.1347 -0.1656 -0.0797
  236loPI   C3B 3775  11.324  10.983   9.181  0.0572 -0.0083 -0.1319
  236loPI   C4B 3776  11.344  10.911   8.719 -0.0541  0.3505  0.0943
  237loPI    C1 3777   2.762   7.780  10.872  0.0913 -0.0311  0.0780
  237loPI    C2 3778   3.043   7.531  11.011  0.3141  0.1178 -0.0962
  237loPI    C3 3779   3.042   7.915  11.124  0.1112  0.0936 -0.0097
  237loPI   PO4 3780   2.703   7.694  10.619 -0.0668 -0.0829  0.0579
  237loPI   GL1 3781   2.453   7.737  10.228 -0.0810 -0.1789 -0.3560
  237loPI   GL2 3782   2.575   7.461  10.231  0.0191 -0.0012 -0.0468
  237loPI   C1A 3783   2.272   7.756   9.775 -0.0497  0.0003  0.0875
  237loPI   C2A 3784   2.212   7.725   9.282  0.2786  0.1030  0.0223
  237loPI   C3A 3785   2.276   7.638   8.803 -0.1016  0.0320 -0.0388
  237loPI   C4A 3786   2.255   7.621   8.535  0.0419 -0.2441  0.0426
  237loPI   C5A 3787   2.458   7.514   8.203  0.0003  0.0595  0.0490
  237loPI   C6A 3788   2.712   7.268   7.764 -0.2942 -0.1914  0.1092
  237loPI   C1B 3789   2.695   7.511   9.801 -0.0336  0.0402  0.1287
  237loPI   C2B 3790   2.726   7.395   9.447  0.0798 -0.0164  0.1055
  237loPI   C3B 3791   2.646   7.316   9.014 -0.2384  0.2066  0.0609
  237loPI   C4B 3792   2.654   7.313   8.632  0.0990  0.1143  0.1524
  238loPI    C1 3793   1.819  10.296  10.563 -0.1604  0.2314  0.0282
  238loPI    C2 3794   1.939  10.674  10.618  0.2110  0.1010  0.1429
  238loPI    C3 3795   1.917  10.424  10.930  0.1254 -0.0175  0.0427
  238loPI   PO4 3796   2.005  10.210  10.336  0.0268  0.1355 -0.2010
  238loPI   GL1 3797   1.969   9.773  10.129  0.2979  0.0213 -0.0510
  238loPI   GL2 3798   1.843   9.975   9.847  0.2040 -0.0431  0.0896
  238loPI   C1A 3799   2.333   9.789   9.768  0.0318 -0.2762  0.0165
  238loPI   C2A 3800   2.437   9.755   9.385  0.1691  0.1033  0.0397
  238loPI   C3A 3801   2.286   9.744   8.959 -0.1064 -0.1421  0.2488
  238loPI   C4A 3802   2.376   9.619   8.519  0.0852  0.1559  0.0077
  238loPI   C5A 3803   2.464   9.524   8.111  0.1056 -0.0113  0.1942
  238loPI   C6A 3804   2.453   9.138   7.883  0.3534  0.0442 -0.1329
  238loPI   C1B 3805   1.849  10.085   9.426 -0.2480 -0.0560 -0.0367
  238loPI   C2B 3806   1.809   9.997   9.035  0.0046 -0.2201 -0.1688
  238loPI   C3B 3807   1.910   9.919   8.620 -0.1769  0.0129 -0.2357
  238loPI   C4B 3808   2.015   9.930   8.132 -0.0063 -0.2724  0.0368
  239loPI    C1 3809   8.524   1.177  10.172  0.1866  0.2513  0.1169
  239loPI    C2 3810   8.551   0.958  10.505  0.0094 -0.0925 -0.0887
  239loPI    C3 3811   8.819   0.910  10.212  0.0218  0.0325 -0.0983
  239loPI   PO4 3812   8.336   1.205  10.068  0.0328 -0.3169 -0.0342
  239loPI   GL1 3813   8.134   1.290   9.749 -0.0018  0.1505  0.1906
  239loPI   GL2 3814   7.985   1.588   9.791  0.0907  0.2213 -0.1262
  239loPI   C1A 3815   8.392   1.189   9.421  0.1033 -0.2448 -0.0896
  239loPI   C2A 3816   8.388   1.233   8.939 -0.1237 -0.1459  0.1530
  239loPI   C3A 3817   8.379   1.249   8.509 -0.0124  0.0825  0.0174
  239loPI   C4A 3818   8.464   1.420   8.115 -0.0447  0.0216 -0.2145
  239loPI   C5A 3819   8.811   1.575   7.885  0.4504  0.2093  0.1204
  239loPI   C6A 3820   8.729   1.604   7.409  0.1180 -0.0246 -0.3178
  239loPI   C1B 3821   7.833   1.492   9.446  0.1464 -0.0309  0.1968
  239loPI   C2B 3822   7.857   1.529   8.979 -0.0648  0.0931  0.0994
  239loPI   C3B 3823   7.945   1.531   8.488 -0.2020 -0.3557 -0.0407
  239loPI   C4B 3824   8.006   1.587   8.053 -0.1414 -0.2359  0.0443
  240loPI    C1 3825   0.022  15.031  10.971 -0.0971 -0.0953 -0.0420
  240loPI    C2 3826  -0.295  14.798  11.046 -0.2454  0.1109 -0.0197
  240loPI    C3 3827  -0.088  14.957  11.349 -0.0515 -0.1122 -0.0320
  240loPI   PO4 3828  -0.067  15.184  10.784 -0.0492 -0.3907 -0.2948
  240loPI   GL1 3829  -0.074  15.141  10.341  0.1385 -0.1724  0.3052
  240loPI   GL2 3830   0.319  15.293  10.160 -0.0612 -0.2423  0.1849
  240loPI   C1A 3831  -0.366  15.276  10.068 -0.2135 -0.2289 -0.1047
  240loPI   C2A 3832  -0.318  15.239   9.591  0.0578  0.5121  0.0279
  240loPI   C3A 3833  -0.339  15.184   9.159 -0.0155  0.1899 -0.3362
  240loPI   C4A 3834  -0.388  15.157   8.781 -0.1313  0.4475  0.0871
  240loPI   C5A 3835  -0.430  15.120   8.371  0.0427  0.1717 -0.1459
  240loPI   C6A 3836  -0.361  15.384   8.182 -0.1005  0.0608  0.0582
  240loPI   C1B 3837   0.103  15.368   9.844  0.2735  0.4278  0.0614
  240loPI   C2B 3838   0.080  15.399   9.435  0.1266 -0.2595 -0.0870
  240loPI   C3B 3839   0.082  15.321   8.931 -0.2470  0.0353 -0.2912
  240loPI   C4B 3840   0.001  15.417   8.538  0.0074 -0.1343 -0.1233
  241loPI    C1 3841   0.529   8.161  11.018  0.0951 -0.1032 -0.2740
  241loPI    C2 3842   0.629   7.880  11.284 -0.3278  0.0965  0.1092
  241loPI    C3 3843   0.812   8.236  11.290  0.0324 -0.0758 -0.2161
  241loPI   PO4 3844   0.492   8.091  10.782 -0.1460  0.0448  0.1105
  241loPI   GL1 3845   0.832   7.900  10.391  0.1712 -0.3612  0.3259
  241loPI   GL2 3846   0.615   7.740  10.453 -0.0599  0.3929 -0.1540
  241loPI   C1A 3847   0.873   7.990   9.986 -0.2373  0.0424  0.1921
  241loPI   C2A 3848   0.950   7.870   9.483  0.1652 -0.0447  0.1673
  241loPI   C3A 3849   0.872   7.959   9.017  0.1942  0.0896 -0.0278
  241loPI   C4A 3850   0.897   7.968   8.513 -0.1861 -0.2862  0.0321
  241loPI   C5A 3851   0.608   7.961   8.109  0.2127 -0.2685 -0.0026
  241loPI   C6A 3852   0.271   8.313   8.093  0.0360 -0.4753 -0.0819
  241loPI   C1B 3853   0.501   7.683  10.095  0.0505  0.0830 -0.1514
  241loPI   C2B 3854   0.427   7.697   9.666 -0.2028  0.2336 -0.1989
  241loPI   C3B 3855   0.498   7.720   9.302 -0.1332  0.1952  0.2329
  241loPI   C4B 3856   0.421   7.672   8.809 -0.1084 -0.0623  0.0119
  242loPI    C1 3857   8.635   3.034  11.032 -0.0095 -0.1014 -0.1746
  242loPI    C2 3858   8.283   3.221  11.064  0.0005 -0.0946 -0.1029
  242loPI    C3 3859   8.309   2.829  11.139  0.0004 -0.1034 -0.1482
  242loPI   PO4 3860   8.672   3.125  10.745  0.0661 -0.2563 -0.1938
  242loPI   GL1 3861   8.932   3.059  10.388 -0.2066  0.5632 -0.1286
  242loPI   GL2 3862   9.096   2.875  10.352 -0.1018 -0.3259 -0.0460
  242loPI   C1A 3863   8.919   3.359  10.134 -0.0389  0.0625  0.2233
  242loPI   C2A 3864   8.952   3.478   9.797  0.3095  0.0859  0.3603
  242loPI   C3A 3865   8.999   3.555   9.365  0.0384 -0.3402  0.3546
  242loPI   C4A 3866   8.931   3.595   8.911  0.0419 -0.0591 -0.0070
  242loPI   C5A 3867   8.866   3.533   8.512  0.0279 -0.1330  0.1588
  242loPI   C6A 3868   8.975   3.214   8.206 -0.0466 -0.1358  0.0281
  242loPI   C1B 3869   8.965   2.894   9.875  0.2032  0.3185 -0.1544
  242loPI   C2B 3870   8.925   3.020   9.413  0.1307  0.2356 -0.2204
  242loPI   C3B 3871   9.027   3.112   9.109  0.1153 -0.2587  0.0015
  242loPI   C4B 3872   8.908   3.017   8.772 -0.0061  0.5003 -0.1304
  243loPI    C1 3873  16.982  12.186  10.680 -0.1567  0.1210  0.1422
  243loPI    C2 3874  17.376  12.152  10.621 -0.1972 -0.1486  0.0082
  243loPI    C3 3875  17.238  12.346  10.943  0.0415  0.1063 -0.0386
  243loPI   PO4 3876  16.844  12.208  10.439  0.0601 -0.0001  0.0011
  243loPI   GL1 3877  16.828  11.960  10.063 -0.1763 -0.0077  0.1374
  243loPI   GL2 3878  16.782  12.337   9.936  0.1064 -0.0679  0.0558
  243loPI   C1A 3879  16.517  11.884   9.752  0.0396  0.1348  0.1027
  243loPI   C2A 3880  16.193  11.857   9.489  0.0295  0.0930  0.2894
  243loPI   C3A 3881  16.001  11.862   9.059  0.0520  0.0712  0.0010
  243loPI   C4A 3882  15.864  11.842   8.576  0.2854  0.0588  0.0222
  243loPI   C5A 3883  15.487  12.066   8.410 -0.0881 -0.3048  0.0815
  243loPI   C6A 3884  15.249  12.300   8.266 -0.2210  0.1045  0.3478
  243loPI   C1B 3885  16.447  12.346   9.531  0.3473 -0.1365  0.0182
  243loPI   C2B 3886  16.200  12.308   9.180 -0.2220  0.2176 -0.0225
  243loPI   C3B 3887  16.010  12.309   8.815  0.0263 -0.0437 -0.1410
  243loPI   C4B 3888  15.932  12.301   8.438  0.2620 -0.1951 -0.3673
  244loPI    C1 3889   2.613  12.713  10.057 -0.1128 -0.1187 -0.0140
  244loPI    C2 3890   2.476  12.960  10.340 -0.1200 -0.1773  0.0340
  244loPI    C3 3891   2.604  12.595  10.439  0.0114 -0.1460 -0.0190
  244loPI   PO4 3892   2.775  12.872   9.919 -0.1242 -0.1316 -0.1367
  244loPI   GL1 3893   2.719  12.970   9.543 -0.1775 -0.1479  0.1233
  244loPI   GL2 3894   2.432  12.889   9.546  0.4149  0.1768  0.0512
  244loPI   C1A 3895   2.942  13.138   9.146 -0.2273  0.3915  0.0348
  244loPI   C2A 3896   2.912  13.105   8.679 -0.0538  0.1251  0.0761
  244loPI   C3A 3897   2.913  13.126   8.259  0.3333  0.0107 -0.3245
  244loPI   C4A 3898   2.861  13.148   7.831  0.0853 -0.1920 -0.1142
  244loPI   C5A 3899   3.309  13.207   7.677  0.0696 -0.1180  0.0320
  244loPI   C6A 3900   3.696  13.210   7.902 -0.1498  0.2089 -0.0468
  244loPI   C1B 3901   2.398  12.890   9.124  0.1324  0.1898  0.2007
  244loPI   C2B 3902   2.398  12.936   8.786  0.1109 -0.0193  0.0421
  244loPI   C3B 3903   2.481  12.931   8.432 -0.0597 -0.1042 -0.0096
  244loPI   C4B 3904   2.450  13.068   8.052 -0.0885 -0.1728  0.0226
  245loPI    C1 3905  14.972  16.534  11.046 -0.0816 -0.0762 -0.0112
  245loPI    C2 3906  15.014  16.188  11.243 -0.0486  0.0049  0.1252
  245loPI    C3 3907  15.230  16.507  11.350 -0.0415  0.0542 -0.0332
  245loPI   PO4 3908  14.965  16.496  10.825  0.1495  0.3168  0.1372
  245loPI   GL1 3909  14.985  16.416  10.356 -0.0021  0.0885  0.1309
  245loPI   GL2 3910  15.356  16.558  10.384  0.4242  0.0521 -0.0463
  245loPI   C1A 3911  15.073  16.112   9.967 -0.1217 -0.1482  0.3120
  245loPI   C2A 3912  14.984  16.134   9.471  0.1359  0.1106 -0.2941
  245loPI   C3A 3913  15.051  16.111   9.113 -0.0143 -0.1996  0.1935
  245loPI   C4A 3914  15.032  16.090   8.685  0.6252 -0.1509 -0.0020
  245loPI   C5A 3915  15.160  16.300   8.302 -0.0715  0.1189 -0.1550
  245loPI   C6A 3916  15.190  16.524   7.939 -0.3005 -0.0705 -0.2486
  245loPI   C1B 3917  15.215  16.638   9.973 -0.0523  0.0436  0.0830
  245loPI   C2B 3918  15.131  16.621   9.570 -0.2058 -0.0633 -0.2002
  245loPI   C3B 3919  15.149  16.633   9.102  0.3290 -0.2098  0.3430
  245loPI   C4B 3920  15.038  16.669   8.657 -0.1289  0.1454 -0.0749
  246loPI    C1 3921  14.355  10.726  10.813  0.0417 -0.0651 -0.0294
  246loPI    C2 3922  14.740  10.828  10.774  0.0436  0.0009  0.1536
  246loPI    C3 3923  14.597  10.720  11.132 -0.0469 -0.2776  0.0358
  246loPI   PO4 3924  14.267  10.735  10.578  0.1588 -0.1128  0.0229
  246loPI   GL1 3925  14.191  10.710  10.149 -0.0566 -0.3003 -0.2839
  246loPI   GL2 3926  14.162  11.098  10.207 -0.0872 -0.0803 -0.2510
  246loPI   C1A 3927  14.056  10.934   9.716  0.0216 -0.2970 -0.0095
  246loPI   C2A 3928  14.009  11.015   9.268 -0.3077 -0.1415  0.0290
  246loPI   C3A 3929  14.011  11.001   8.808 -0.1834  0.3036  0.2718
  246loPI   C4A 3930  14.065  11.114   8.339 -0.0211  0.2699 -0.1076
  246loPI   C5A 3931  13.903  11.053   7.998 -0.0925 -0.0824  0.2218
  246loPI   C6A 3932  13.722  11.058   7.584  0.0417 -0.1928  0.2760
  246loPI   C1B 3933  14.431  11.215   9.885  0.0839 -0.0810 -0.2187
  246loPI   C2B 3934  14.498  11.174   9.455  0.0176  0.1632  0.0191
  246loPI   C3B 3935  14.547  11.257   9.003 -0.1363 -0.0662 -0.0675
  246loPI   C4B 3936  14.516  11.170   8.504  0.3824 -0.1710 -0.1486
  247loPI    C1 3937   5.775   9.606  10.973  0.1158 -0.2429 -0.0461
  247loPI    C2 3938   5.978   9.371  11.225  0.1464 -0.2536 -0.0805
  247loPI    C3 3939   5.579   9.350  11.210  0.1458 -0.2670 -0.0472
  247loPI   PO4 3940   5.906   9.602  10.702  0.2598 -0.1245  0.1587
  247loPI   GL1 3941   5.975   9.570  10.295  0.3835  0.2516 -0.1515
  247loPI   GL2 3942   5.942   9.262  10.355  0.0181 -0.1696  0.1424
  247loPI   C1A 3943   5.920   9.670   9.915  0.2029  0.3778 -0.0216
  247loPI   C2A 3944   6.060   9.553   9.594  0.2352  0.0366  0.1200
  247loPI   C3A 3945   5.987   9.570   9.164  0.2257  0.1666 -0.1361
  247loPI   C4A 3946   5.942   9.625   8.777  0.2748  0.0186  0.2120
  247loPI   C5A 3947   6.014   9.522   8.341 -0.0729 -0.2464  0.0882
  247loPI   C6A 3948   6.208   9.547   7.930 -0.2511  0.0508  0.0328
  247loPI   C1B 3949   5.952   9.156   9.930 -0.1915 -0.0815 -0.0661
  247loPI   C2B 3950   6.008   9.050   9.497  0.1105 -0.0110  0.0836
  247loPI   C3B 3951   5.974   9.106   9.048  0.1671  0.3643  0.0287
  247loPI   C4B 3952   5.967   9.059   8.594  0.1362  0.0471  0.3357
  248loPI    C1 3953   0.019   9.336  10.859 -0.1405 -0.1916 -0.0007
  248loPI    C2 3954  -0.128   9.634  11.082  0.0849  0.0092 -0.1151
  248loPI    C3 3955   0.069   9.332  11.256  0.1120  0.0780 -0.0264
  248loPI   PO4 3956   0.149   9.446  10.700 -0.1362  0.0567  0.0494
  248loPI   GL1 3957   0.359   9.458  10.233 -0.0591 -0.0947 -0.2453
  248loPI   GL2 3958   0.053   9.609  10.145 -0.1265  0.1167 -0.5089
  248loPI   C1A 3959   0.434   9.290   9.901  0.0413 -0.0159  0.0571
  248loPI   C2A 3960   0.459   9.264   9.482 -0.2629  0.0569 -0.0315
  248loPI   C3A 3961   0.533   9.227   9.045  0.1278 -0.1672  0.0212
  248loPI   C4A 3962   0.478   9.138   8.651 -0.0566  0.3013  0.2106
  248loPI   C5A 3963   0.492   9.246   8.186  0.0851 -0.1667 -0.0134
  248loPI   C6A 3964   0.237   9.535   8.067 -0.1999 -0.1546  0.0509
  248loPI   C1B 3965   0.022   9.510   9.704  0.0634 -0.0608 -0.0217
  248loPI   C2B 3966   0.031   9.514   9.281 -0.1701  0.2398 -0.0590
  248loPI   C3B 3967   0.026   9.461   8.892  0.0733  0.1184 -0.0035
  248loPI   C4B 3968   0.131   9.560   8.512  0.0350  0.0963  0.0739
  249loPI    C1 3969  11.124  13.468  11.183  0.2790  0.3009 -0.1198
  249loPI    C2 3970  10.949  13.204  11.428  0.0026  0.3494 -0.2612
  249loPI    C3 3971  11.302  13.364  11.526 -0.1094  0.3779  0.1111
  249loPI   PO4 3972  11.150  13.248  10.912 -0.0380 -0.2521  0.0653
  249loPI   GL1 3973  11.311  13.336  10.486  0.2412 -0.1080  0.0381
  249loPI   GL2 3974  11.627  13.348  10.650  0.0605 -0.2004  0.2818
  249loPI   C1A 3975  11.397  13.449  10.149  0.0140 -0.4076 -0.1303
  249loPI   C2A 3976  11.376  13.380   9.773 -0.0228  0.2475 -0.3112
  249loPI   C3A 3977  11.351  13.398   9.276  0.2201 -0.2133  0.0533
  249loPI   C4A 3978  11.312  13.400   8.914 -0.0129  0.1462 -0.1063
  249loPI   C5A 3979  11.376  13.246   8.496  0.0179 -0.1570  0.0539
  249loPI   C6A 3980  11.710  13.312   8.327  0.1044 -0.0109  0.2182
  249loPI   C1B 3981  11.829  13.401  10.333  0.0254 -0.1380  0.0556
  249loPI   C2B 3982  11.880  13.440   9.894  0.0046 -0.2592 -0.0448
  249loPI   C3B 3983  11.807  13.489   9.468 -0.1000  0.3072 -0.1644
  249loPI   C4B 3984  11.792  13.477   8.989  0.3173  0.1369  0.0043
  250loPI    C1 3985  11.767   4.813  11.328  0.0206 -0.1208 -0.2412
  250loPI    C2 3986  11.596   5.034  11.042 -0.2292  0.0833  0.0583
  250loPI    C3 3987  11.604   5.167  11.419  0.1865 -0.1358  0.1325
  250loPI   PO4 3988  12.011   4.714  11.209  0.0684  0.1042 -0.2566
  250loPI   GL1 3989  12.053   4.704  10.759  0.0550  0.2087 -0.1082
  250loPI   GL2 3990  12.067   4.992  10.790 -0.0740 -0.3623  0.2637
  250loPI   C1A 3991  12.114   4.615  10.288  0.2005 -0.0458  0.1325
  250loPI   C2A 3992  12.131   4.639   9.851 -0.1231  0.1280  0.1514
  250loPI   C3A 3993  12.087   4.734   9.472  0.0525 -0.3521 -0.0483
  250loPI   C4A 3994  12.061   4.803   8.983  0.1931  0.1235  0.1107
  250loPI   C5A 3995  12.124   4.720   8.450 -0.1562 -0.0713  0.2240
  250loPI   C6A 3996  12.330   4.459   8.189 -0.0549 -0.0524  0.2126
  250loPI   C1B 3997  12.061   5.143  10.362 -0.0223  0.2213  0.1235
  250loPI   C2B 3998  12.211   5.283   9.903 -0.1144 -0.4001  0.0226
  250loPI   C3B 3999  12.093   5.239   9.488 -0.0330  0.4806  0.1024
  250loPI   C4B 4000  12.100   5.333   9.002  0.0051 -0.0404 -0.1639
  251loPI    C1 4001   3.885  17.805  11.239  0.0985 -0.0849 -0.0982
  251loPI    C2 4002   3.747  18.083  11.491 -0.0752 -0.1492 -0.1212
  251loPI    C3 4003   4.020  17.818  11.615  0.0932  0.0320 -0.1001
  251loPI   PO4 4004   3.923  17.975  11.032 -0.2779 -0.2828 -0.4594
  251loPI   GL1 4005   3.944  17.935  10.517  0.1467 -0.0202  0.0017
  251loPI   GL2 4006   3.621  17.794  10.343 -0.1035  0.1593 -0.2071
  251loPI   C1A 4007   4.185  17.878  10.140  0.0793 -0.1341  0.0881
  251loPI   C2A 4008   4.102  17.938   9.728 -0.1587 -0.0320  0.1498
  251loPI   C3A 4009   4.150  18.045   9.232 -0.1636 -0.0906 -0.3127
  251loPI   C4A 4010   4.289  18.084   8.752 -0.0114  0.0568 -0.1296
  251loPI   C5A 4011   4.700  17.923   8.528  0.3466 -0.2816 -0.0539
  251loPI   C6A 4012   4.664  17.539   8.182  0.2110 -0.0168 -0.1247
  251loPI   C1B 4013   3.689  17.824   9.951 -0.1219 -0.0987 -0.1199
  251loPI   C2B 4014   3.670  17.784   9.540 -0.3588 -0.0298 -0.3145
  251loPI   C3B 4015   3.702  17.893   9.132  0.3280  0.2735 -0.0895
  251loPI   C4B 4016   3.874  17.744   8.701 -0.1588  0.0672  0.0484
  252loPI    C1 4017  17.251  16.779  11.181 -0.3744  0.1588  0.3020
  252loPI    C2 4018  17.107  16.640  11.527 -0.1972 -0.0848  0.2801
  252loPI    C3 4019  17.493  16.741  11.498 -0.3074  0.3529  0.2759
  252loPI   PO4 4020  16.945  16.882  11.081 -0.3058  0.1305  0.1500
  252loPI   GL1 4021  16.869  16.952  10.648 -0.0229  0.0034 -0.2405
  252loPI   GL2 4022  16.739  17.169  10.478 -0.0736  0.2572 -0.0628
  252loPI   C1A 4023  17.049  16.840  10.204 -0.3811  0.0767 -0.0168
  252loPI   C2A 4024  17.087  16.910   9.753 -0.0119 -0.0182  0.2063
  252loPI   C3A 4025  17.038  16.874   9.251  0.2061  0.1616 -0.0233
  252loPI   C4A 4026  16.908  16.765   8.788  0.0134 -0.0750  0.0615
  252loPI   C5A 4027  16.799  16.722   8.425  0.0414 -0.0496 -0.2122
  252loPI   C6A 4028  16.455  16.596   8.111 -0.3607 -0.0941  0.1079
  252loPI   C1B 4029  16.665  17.212   9.941  0.4919  0.0933 -0.2459
  252loPI   C2B 4030  16.658  17.135   9.483 -0.1071  0.0918 -0.1035
  252loPI   C3B 4031  16.592  17.155   9.001  0.3214 -0.1217 -0.0350
  252loPI   C4B 4032  16.525  17.121   8.531  0.1556 -0.1631 -0.0515
  253loPI    C1 4033  10.605   6.092  11.304  0.0837 -0.1442  0.0057
  253loPI    C2 4034  10.958   6.082  11.492  0.0704 -0.0008  0.0398
  253loPI    C3 4035  10.797   6.433  11.387 -0.0194 -0.0701 -0.0569
  253loPI   PO4 4036  10.629   6.033  11.141  0.0613  0.0717 -0.1134
  253loPI   GL1 4037  10.758   5.930  10.725 -0.0616 -0.0517 -0.1753
  253loPI   GL2 4038  10.406   5.997  10.645  0.0428 -0.1288  0.1639
  253loPI   C1A 4039  10.851   6.074  10.298 -0.2199 -0.2319  0.0896
  253loPI   C2A 4040  10.820   5.972   9.806 -0.0632 -0.0185 -0.0228
  253loPI   C3A 4041  10.859   6.029   9.311  0.1611  0.2007 -0.0422
  253loPI   C4A 4042  10.867   6.053   8.835 -0.3269  0.1045  0.4235
  253loPI   C5A 4043  10.753   6.217   8.466  0.0379  0.1389 -0.1157
  253loPI   C6A 4044  10.679   6.276   8.057 -0.0466 -0.0575 -0.0872
  253loPI   C1B 4045  10.401   6.248  10.169 -0.2672  0.0098 -0.3877
  253loPI   C2B 4046  10.375   6.360   9.733  0.0955 -0.1849  0.2006
  253loPI   C3B 4047  10.272   6.349   9.291  0.1260  0.1680  0.0874
  253loPI   C4B 4048  10.265   6.369   8.904  0.0716  0.1191  0.0014
  254loPI    C1 4049  15.383   8.239  10.664  0.0372  0.1027  0.0370
  254loPI    C2 4050  15.206   8.352  11.004 -0.2452 -0.1535 -0.0202
  254loPI    C3 4051  15.569   8.185  11.013  0.0338  0.4343  0.0932
  254loPI   PO4 4052  15.353   8.416  10.535  0.0650 -0.0476  0.1639
  254loPI   GL1 4053  15.222   8.428  10.110  0.0283 -0.0573  0.0531
  254loPI   GL2 4054  14.915   8.355  10.132  0.1966 -0.1602  0.1599
  254loPI   C1A 4055  15.328   8.535   9.695 -0.1166  0.1807 -0.0290
  254loPI   C2A 4056  15.345   8.587   9.302 -0.1644 -0.0982 -0.3874
  254loPI   C3A 4057  15.414   8.655   8.916  0.2171  0.0407  0.2121
  254loPI   C4A 4058  15.258   8.629   8.551  0.0349  0.0212  0.0380
  254loPI   C5A 4059  14.983   8.829   8.282 -0.0090 -0.2407  0.3014
  254loPI   C6A 4060  14.536   8.798   8.433 -0.3346  0.3412  0.0014
  254loPI   C1B 4061  14.869   8.261   9.775  0.0951 -0.1111  0.1570
  254loPI   C2B 4062  14.859   8.262   9.359  0.2576 -0.4267 -0.2597
  254loPI   C3B 4063  14.998   8.353   8.974  0.4694  0.1905 -0.1538
  254loPI   C4B 4064  14.873   8.284   8.556  0.0471  0.1311 -0.0988
  255loPI    C1 4065  10.977  14.810  10.881 -0.0164  0.1771 -0.0518
  255loPI    C2 4066  11.194  14.927  11.196 -0.1835  0.1759  0.0648
  255loPI    C3 4067  11.374  14.766  10.877 -0.0464 -0.1728  0.3123
  255loPI   PO4 4068  10.785  14.983  10.778  0.1487 -0.1283 -0.0700
  255loPI   GL1 4069  10.805  15.177  10.417  0.1612 -0.0177 -0.0508
  255loPI   GL2 4070  10.752  15.554  10.295 -0.1819  0.0193  0.2547
  255loPI   C1A 4071  10.675  15.015  10.028  0.0388 -0.1230  0.0183
  255loPI   C2A 4072  10.733  14.960   9.575  0.1116 -0.0156 -0.2210
  255loPI   C3A 4073  10.628  15.108   9.287 -0.2592 -0.0667  0.2554
  255loPI   C4A 4074  10.683  15.047   8.897  0.2386 -0.1332  0.0506
  255loPI   C5A 4075  10.619  15.073   8.469  0.1198  0.0886  0.1272
  255loPI   C6A 4076  10.688  14.849   8.040 -0.2744  0.1374 -0.0431
  255loPI   C1B 4077  10.815  15.474   9.869 -0.1902 -0.1992  0.0678
  255loPI   C2B 4078  10.782  15.587   9.443  0.0454 -0.0959  0.2601
  255loPI   C3B 4079  10.833  15.579   9.047 -0.0557  0.0952  0.0591
  255loPI   C4B 4080  10.802  15.530   8.619 -0.4470  0.1150  0.3155
  256loPI    C1 4081   6.767   6.027  11.366  0.2054 -0.3162  0.0455
  256loPI    C2 4082   6.519   5.900  11.652  0.0070  0.2302  0.1274
  256loPI    C3 4083   6.824   6.142  11.745  0.0095  0.3189 -0.1059
  256loPI   PO4 4084   6.603   5.935  11.159  0.0614  0.1116  0.3439
  256loPI   GL1 4085   6.778   5.905  10.797  0.0765 -0.3163 -0.0522
  256loPI   GL2 4086   6.896   6.227  10.803  0.1037  0.0827  0.0929
  256loPI   C1A 4087   6.574   5.993  10.451 -0.1856  0.1212  0.0896
  256loPI   C2A 4088   6.662   5.938   9.934  0.0485 -0.1633  0.1540
  256loPI   C3A 4089   6.813   5.951   9.551 -0.0935 -0.2461  0.0848
  256loPI   C4A 4090   6.823   5.945   9.087  0.1396 -0.1346  0.0543
  256loPI   C5A 4091   6.773   6.023   8.699  0.1828 -0.2598 -0.0536
  256loPI   C6A 4092   6.645   6.147   8.320  0.1497 -0.2595 -0.0536
  256loPI   C1B 4093   7.103   6.180  10.379  0.0668 -0.0340 -0.1203
  256loPI   C2B 4094   7.144   6.194   9.907 -0.0253 -0.2254 -0.2452
  256loPI   C3B 4095   7.227   6.187   9.546 -0.0352 -0.1860 -0.0288
  256loPI   C4B 4096   7.240   6.243   9.086 -0.2302  0.3104 -0.0940
  257loPI    C1 4097   5.142  12.250  10.516 -0.2265 -0.1651  0.3582
  257loPI    C2 4098   5.320  11.893  10.549  0.0334 -0.0369  0.3603
  257loPI    C3 4099   5.344  12.157  10.848  0.1422  0.1160  0.2187
  257loPI   PO4 4100   5.147  12.299  10.288  0.2082 -0.1691  0.0089
  257loPI   GL1 4101   5.023  12.403   9.935 -0.0179  0.0300 -0.3677
  257loPI   GL2 4102   4.789  12.630   9.881  0.1409 -0.1092  0.2000
  257loPI   C1A 4103   5.165  12.440   9.541 -0.0286  0.0344 -0.1694
  257loPI   C2A 4104   5.266  12.397   9.086  0.1504  0.0558 -0.2963
  257loPI   C3A 4105   5.137  12.346   8.747  0.4803 -0.1638  0.0563
  257loPI   C4A 4106   5.219  12.574   8.292  0.1469  0.0094  0.1186
  257loPI   C5A 4107   5.569  12.734   8.218  0.2452  0.3427  0.1714
  257loPI   C6A 4108   5.935  12.624   7.963 -0.0398 -0.1639  0.0172
  257loPI   C1B 4109   4.816  12.738   9.412  0.2235  0.1740 -0.1490
  257loPI   C2B 4110   4.794  12.738   8.966 -0.0292 -0.1136 -0.0337
  257loPI   C3B 4111   4.808  12.831   8.527 -0.0362 -0.0660  0.1682
  257loPI   C4B 4112   4.791  12.714   8.055  0.1070 -0.1724  0.0741
  258loPI    C1 4113   3.060   9.934  10.800 -0.0007 -0.1497  0.0147
  258loPI    C2 4114   2.735  10.138  10.914  0.0349 -0.0605 -0.0417
  258loPI    C3 4115   2.874   9.839  11.141 -0.0400 -0.0471  0.0223
  258loPI   PO4 4116   3.014   9.931  10.555 -0.0323 -0.2103  0.1553
  258loPI   GL1 4117   3.065  10.117  10.169  0.1755 -0.0979 -0.0471
  258loPI   GL2 4118   3.131  10.412  10.134  0.2895  0.2799  0.2277
  258loPI   C1A 4119   3.208   9.868   9.833  0.0596 -0.1149  0.1262
  258loPI   C2A 4120   3.249   9.693   9.458 -0.0493 -0.0096 -0.0878
  258loPI   C3A 4121   3.247   9.671   9.048 -0.0152 -0.1575  0.0264
  258loPI   C4A 4122   3.333   9.662   8.638 -0.1692 -0.2503  0.0647
  258loPI   C5A 4123   3.291   9.581   8.234  0.0571  0.0187  0.1504
  258loPI   C6A 4124   2.988   9.430   7.977 -0.0797  0.1075 -0.0962
  258loPI   C1B 4125   3.251  10.343   9.770  0.0855  0.3656 -0.1744
  258loPI   C2B 4126   3.300  10.246   9.453  0.0919  0.2629  0.2329
  258loPI   C3B 4127   3.225  10.217   9.024  0.3612  0.1049  0.1571
  258loPI   C4B 4128   3.349  10.295   8.623 -0.0436 -0.1109 -0.0151
  259loPI    C1 4129  16.963  17.940  11.296  0.0382  0.0207  0.1290
  259loPI    C2 4130  16.577  17.940  11.190  0.0377 -0.3700  0.1161
  259loPI    C3 4131  16.683  18.039  11.563 -0.0440  0.0466  0.0339
  259loPI   PO4 4132  17.039  17.860  11.016  0.0220  0.0631  0.0694
  259loPI   GL1 4133  17.277  18.063  10.632 -0.1317  0.3093  0.1822
  259loPI   GL2 4134  16.891  18.073  10.567 -0.1112 -0.1570 -0.2157
  259loPI   C1A 4135  17.272  17.914  10.204 -0.0798 -0.1069 -0.0195
  259loPI   C2A 4136  17.172  17.900   9.834 -0.1755  0.2264  0.0387
  259loPI   C3A 4137  17.113  17.848   9.384  0.1439 -0.1437 -0.0923
  259loPI   C4A 4138  17.231  17.895   8.928  0.0914  0.0698  0.0346
  259loPI   C5A 4139  17.564  18.016   8.714 -0.2690 -0.1994 -0.0585
  259loPI   C6A 4140  17.691  17.970   8.288 -0.0794 -0.0006 -0.0251
  259loPI   C1B 4141  16.854  18.185  10.153 -0.0115 -0.2542 -0.1886
  259loPI   C2B 4142  16.831  18.193   9.606  0.0469 -0.1146 -0.0567
  259loPI   C3B 4143  16.729  18.131   9.188  0.1415 -0.2168  0.0415
  259loPI   C4B 4144  16.765  18.057   8.729 -0.0370 -0.2145  0.3048
  260loPI    C1 4145  15.050   0.788  11.291 -0.0752  0.0903 -0.0265
  260loPI    C2 4146  14.703   0.610  11.382  0.1190 -0.2243  0.1150
  260loPI    C3 4147  15.003   0.611  11.647  0.2340  0.0313 -0.0127
  260loPI   PO4 4148  14.971   0.868  11.078  0.0951  0.0324 -0.0380
  260loPI   GL1 4149  14.937   0.994  10.681 -0.1933 -0.0399  0.2107
  260loPI   GL2 4150  15.285   1.034  10.543 -0.0730  0.1843  0.1711
  260loPI   C1A 4151  14.680   0.869  10.398  0.0837  0.0261 -0.3808
  260loPI   C2A 4152  14.603   0.755   9.948 -0.1249 -0.0966  0.0499
  260loPI   C3A 4153  14.554   0.876   9.492 -0.0726 -0.0173  0.1320
  260loPI   C4A 4154  14.510   1.058   9.016 -0.4843  0.3669 -0.1328
  260loPI   C5A 4155  14.572   0.935   8.534 -0.0577 -0.0179 -0.0727
  260loPI   C6A 4156  14.869   0.500   8.537  0.0711  0.0903 -0.0719
  260loPI   C1B 4157  15.075   1.068  10.137  0.2061  0.1103 -0.2014
  260loPI   C2B 4158  15.118   1.006   9.731  0.2422 -0.2337 -0.1744
  260loPI   C3B 4159  15.088   0.918   9.322 -0.0243 -0.1051 -0.4767
  260loPI   C4B 4160  14.954   0.852   8.883  0.0975 -0.2188 -0.1301
  261loPI    C1 4161   9.232   3.581  11.201  0.0541 -0.0556 -0.0163
  261loPI    C2 4162   8.847   3.476  11.167  0.0390 -0.0720  0.1919
  261loPI    C3 4163   8.976   3.658  11.499  0.2197 -0.1030  0.1398
  261loPI   PO4 4164   9.320   3.685  11.002 -0.0123  0.1589 -0.0626
  261loPI   GL1 4165   9.489   3.574  10.574  0.1130 -0.2724 -0.1040
  261loPI   GL2 4166   9.427   3.323  10.449  0.0404  0.0523 -0.2178
  261loPI   C1A 4167   9.346   3.648  10.133  0.0491 -0.1871 -0.1186
  261loPI   C2A 4168   9.463   3.704   9.727 -0.0624 -0.1420  0.0105
  261loPI   C3A 4169   9.478   3.856   9.407  0.2678 -0.0788  0.0984
  261loPI   C4A 4170   9.457   3.912   9.027 -0.0807  0.0301  0.3937
  261loPI   C5A 4171   9.278   3.869   8.612 -0.0033  0.0815 -0.0457
  261loPI   C6A 4172   9.452   3.761   8.165 -0.0204  0.0763  0.0437
  261loPI   C1B 4173   9.378   3.129   9.993 -0.2800 -0.0377  0.0973
  261loPI   C2B 4174   9.418   3.210   9.569 -0.1358  0.2339 -0.1559
  261loPI   C3B 4175   9.462   3.392   9.155  0.4828  0.0770 -0.1361
  261loPI   C4B 4176   9.375   3.259   8.754  0.0694  0.3941 -0.0252
  262loPI    C1 4177   6.024   2.728  10.925  0.0896 -0.2114 -0.1271
  262loPI    C2 4178   5.917   2.399  10.725 -0.2402 -0.0567 -0.2129
  262loPI    C3 4179   5.793   2.453  11.101  0.0705 -0.1720 -0.0905
  262loPI   PO4 4180   6.068   2.950  10.757  0.0902 -0.0633 -0.0539
  262loPI   GL1 4181   6.219   2.689  10.440 -0.3106 -0.1295 -0.0166
  262loPI   GL2 4182   6.385   2.446  10.343  0.0258 -0.0280  0.1374
  262loPI   C1A 4183   6.039   2.546  10.005  0.3408  0.2351 -0.5212
  262loPI   C2A 4184   6.185   2.672   9.585 -0.0078 -0.0706  0.1777
  262loPI   C3A 4185   6.216   2.582   9.150  0.2485  0.1353  0.0498
  262loPI   C4A 4186   6.208   2.699   8.748  0.0155 -0.0049  0.2247
  262loPI   C5A 4187   6.072   2.781   8.346 -0.0038 -0.1662  0.0084
  262loPI   C6A 4188   6.173   2.725   7.873  0.3670  0.1790  0.3246
  262loPI   C1B 4189   6.564   2.405   9.909 -0.1330 -0.1106 -0.0107
  262loPI   C2B 4190   6.603   2.402   9.545  0.1508 -0.0373 -0.2012
  262loPI   C3B 4191   6.633   2.379   9.025  0.1181 -0.2151 -0.0214
  262loPI   C4B 4192   6.644   2.368   8.677 -0.0272  0.3148  0.0073
  263loPI    C1 4193   0.496  16.105  10.937 -0.0849 -0.0767 -0.0459
  263loPI    C2 4194   0.567  16.166  11.326  0.0503  0.0199 -0.0848
  263loPI    C3 4195   0.197  16.079  11.201  0.0582 -0.2899  0.0981
  263loPI   PO4 4196   0.595  16.285  10.850 -0.1038 -0.0294 -0.2665
  263loPI   GL1 4197   0.733  16.360  10.554 -0.0689 -0.1111 -0.1187
  263loPI   GL2 4198   0.910  16.542  10.448  0.2147 -0.1451 -0.1969
  263loPI   C1A 4199   0.753  16.089  10.140 -0.2795 -0.0532 -0.1059
  263loPI   C2A 4200   0.765  16.162   9.734 -0.0207  0.0308 -0.2533
  263loPI   C3A 4201   0.678  16.139   9.323  0.1016  0.0405  0.2970
  263loPI   C4A 4202   0.719  16.029   8.848 -0.2619 -0.1954  0.1743
  263loPI   C5A 4203   0.627  16.172   8.439  0.1261 -0.0930 -0.0709
  263loPI   C6A 4204   0.335  16.350   8.165  0.0954 -0.0369 -0.1430
  263loPI   C1B 4205   0.834  16.616  10.112 -0.0171 -0.0877  0.0973
  263loPI   C2B 4206   0.838  16.667   9.654  0.0550 -0.1909 -0.0414
  263loPI   C3B 4207   0.707  16.644   9.203  0.2389 -0.1240  0.0355
  263loPI   C4B 4208   0.775  16.568   8.779 -0.6000 -0.2055  0.1878
  264loPI    C1 4209   4.714   8.197  11.269 -0.0006  0.0048  0.0229
  264loPI    C2 4210   4.995   8.482  11.262 -0.0841  0.0857 -0.0884
  264loPI    C3 4211   4.928   8.274  11.598  0.1365  0.0372 -0.0729
  264loPI   PO4 4212   4.750   8.103  10.984  0.0953  0.0051  0.0078
  264loPI   GL1 4213   4.647   8.231  10.519  0.2887  0.2447  0.0122
  264loPI   GL2 4214   4.458   8.453  10.227 -0.0878 -0.0614 -0.0274
  264loPI   C1A 4215   4.913   8.176  10.206  0.3818 -0.3317 -0.0350
  264loPI   C2A 4216   4.938   8.159   9.768 -0.4320  0.0989 -0.0343
  264loPI   C3A 4217   4.981   8.055   9.305 -0.1738  0.0335  0.0112
  264loPI   C4A 4218   5.082   8.020   8.817  0.1045 -0.2351  0.2819
  264loPI   C5A 4219   4.958   8.009   8.473 -0.0221  0.1166  0.1103
  264loPI   C6A 4220   5.105   7.920   8.159  0.1037  0.0131 -0.2846
  264loPI   C1B 4221   4.499   8.473   9.803 -0.1059 -0.1703  0.2526
  264loPI   C2B 4222   4.542   8.340   9.442 -0.2295 -0.1526  0.1872
  264loPI   C3B 4223   4.510   8.377   9.058  0.0709 -0.0831 -0.1478
  264loPI   C4B 4224   4.563   8.351   8.654  0.0496 -0.1023  0.1112
  265loPI    C1 4225   2.443   2.901  10.991  0.0709  0.2107  0.1528
  265loPI    C2 4226   2.677   2.585  11.066 -0.0354  0.0703 -0.0939
  265loPI    C3 4227   2.447   2.738  11.357 -0.1135 -0.1882 -0.0167
  265loPI   PO4 4228   2.379   2.962  10.691 -0.2508 -0.1881  0.1425
  265loPI   GL1 4229   2.445   3.158  10.333  0.0346 -0.2290  0.4124
  265loPI   GL2 4230   2.627   2.890  10.172 -0.2442  0.0862  0.0017
  265loPI   C1A 4231   2.564   3.288   9.921 -0.0855  0.0547  0.1775
  265loPI   C2A 4232   2.581   3.288   9.469  0.0715  0.0198  0.0835
  265loPI   C3A 4233   2.614   3.247   9.005  0.2707 -0.2738  0.0707
  265loPI   C4A 4234   2.621   3.324   8.558  0.1451  0.1988 -0.1804
  265loPI   C5A 4235   2.647   3.360   8.148 -0.0554  0.0086 -0.0753
  265loPI   C6A 4236   2.965   3.409   7.930  0.1283  0.1374  0.1480
  265loPI   C1B 4237   2.638   2.771   9.730 -0.2113 -0.1408 -0.2528
  265loPI   C2B 4238   2.548   2.826   9.291 -0.0050  0.0246  0.0948
  265loPI   C3B 4239   2.623   2.747   8.850  0.1658 -0.1817 -0.2308
  265loPI   C4B 4240   2.638   2.850   8.359 -0.4369 -0.2285 -0.0848
  266loPI    C1 4241  17.330   9.448  10.953 -0.0700  0.0291 -0.0477
  266loPI    C2 4242  17.492   9.228  11.245 -0.0486  0.2072  0.0764
  266loPI    C3 4243  17.111   9.170  11.139  0.0595 -0.1371 -0.1406
  266loPI   PO4 4244  17.481   9.508  10.805  0.2464 -0.0710 -0.0346
  266loPI   GL1 4245  17.627   9.410  10.386  0.1955  0.0294  0.0525
  266loPI   GL2 4246  17.607   9.758  10.318  0.3040  0.3281 -0.2895
  266loPI   C1A 4247  17.473   9.355  10.025  0.2322 -0.0277  0.2219
  266loPI   C2A 4248  17.571   9.252   9.643  0.1414  0.0464  0.1810
  266loPI   C3A 4249  17.583   9.243   9.206  0.0846  0.0545 -0.1859
  266loPI   C4A 4250  17.582   9.204   8.904 -0.0857 -0.0476  0.2215
  266loPI   C5A 4251  17.569   9.151   8.473  0.0992 -0.0783  0.1454
  266loPI   C6A 4252  17.870   9.259   8.178 -0.2085 -0.2317 -0.2013
  266loPI   C1B 4253  17.594   9.826   9.855  0.0749 -0.2705  0.0187
  266loPI   C2B 4254  17.547   9.769   9.463 -0.2370 -0.2874  0.2649
  266loPI   C3B 4255  17.602   9.687   9.045  0.0669 -0.1714  0.0405
  266loPI   C4B 4256  17.707   9.805   8.713  0.0658 -0.3267 -0.2333
  267loPI    C1 4257  15.902  16.528  11.333 -0.0341  0.1960  0.0757
  267loPI    C2 4258  15.662  16.208  11.323  0.0139  0.1645 -0.1024
  267loPI    C3 4259  15.916  16.257  11.628  0.1039 -0.0394 -0.1429
  267loPI   PO4 4260  15.987  16.562  11.180  0.2007  0.0262 -0.0493
  267loPI   GL1 4261  16.069  16.678  10.806 -0.0668 -0.2031  0.1340
  267loPI   GL2 4262  15.889  16.771  10.639  0.1760 -0.1496 -0.0687
  267loPI   C1A 4263  16.211  17.026  10.388  0.2686  0.0013  0.4185
  267loPI   C2A 4264  16.151  17.031   9.953  0.1321 -0.0520  0.1560
  267loPI   C3A 4265  16.091  16.959   9.532 -0.3171 -0.2764 -0.1869
  267loPI   C4A 4266  16.137  16.962   9.164 -0.1474  0.2104 -0.3344
  267loPI   C5A 4267  16.066  16.996   8.623  0.1100  0.3302 -0.0958
  267loPI   C6A 4268  16.123  17.035   8.209  0.4234 -0.1794 -0.3410
  267loPI   C1B 4269  15.642  16.849  10.177 -0.2298 -0.0821 -0.0646
  267loPI   C2B 4270  15.665  16.805   9.747 -0.1669 -0.0653 -0.0631
  267loPI   C3B 4271  15.629  16.725   9.301 -0.2039  0.3603 -0.2345
  267loPI   C4B 4272  15.601  16.871   8.910 -0.0490 -0.3358 -0.0771
  268loPI    C1 4273  17.901  13.300  10.502 -0.0281  0.0254  0.0653
  268loPI    C2 4274  17.845  12.996  10.247 -0.1078  0.0873  0.0087
  268loPI    C3 4275  18.174  13.010  10.474 -0.0121  0.0581 -0.1280
  268loPI   PO4 4276  17.708  13.459  10.476 -0.3982  0.1914  0.0677
  268loPI   GL1 4277  17.575  13.606  10.155 -0.0029  0.2391 -0.0326
  268loPI   GL2 4278  17.873  13.418   9.948  0.0292  0.0111 -0.1078
  268loPI   C1A 4279  17.310  13.645   9.777 -0.2850 -0.0980  0.0236
  268loPI   C2A 4280  17.276  13.623   9.273 -0.2885 -0.1460  0.0118
  268loPI   C3A 4281  17.304  13.726   8.893  0.0268 -0.1225  0.1980
  268loPI   C4A 4282  17.256  13.699   8.422  0.1418 -0.1903  0.0477
  268loPI   C5A 4283  16.924  13.405   8.189 -0.1510 -0.1098  0.1784
  268loPI   C6A 4284  16.514  13.358   8.171  0.2982  0.1135  0.0061
  268loPI   C1B 4285  17.799  13.645   9.536  0.1571 -0.1161 -0.3103
  268loPI   C2B 4286  17.722  13.800   9.171  0.1901  0.2832  0.0208
  268loPI   C3B 4287  17.939  13.846   8.809 -0.1041 -0.0145  0.1700
  268loPI   C4B 4288  17.821  14.016   8.322 -0.3326 -0.0622 -0.3087
  269loPI    C1 4289  16.168   3.144  11.064  0.0114  0.0933  0.1305
  269loPI    C2 4290  15.856   2.910  11.150  0.0416  0.0188  0.0382
  269loPI    C3 4291  16.118   3.006  11.436  0.1029 -0.1701  0.0470
  269loPI   PO4 4292  16.245   3.069  10.827 -0.1439  0.0994 -0.4768
  269loPI   GL1 4293  16.108   3.056  10.451  0.0819  0.1828  0.2565
  269loPI   GL2 4294  16.450   3.107  10.424  0.2248 -0.2000 -0.1074
  269loPI   C1A 4295  16.080   2.821  10.140 -0.0256  0.0044 -0.1797
  269loPI   C2A 4296  16.091   2.761   9.809 -0.0585  0.0314  0.0269
  269loPI   C3A 4297  16.129   2.753   9.402 -0.1795  0.0017  0.2844
  269loPI   C4A 4298  16.032   2.796   8.993 -0.4250  0.1084  0.2123
  269loPI   C5A 4299  16.023   2.801   8.559  0.3709 -0.0448  0.1063
  269loPI   C6A 4300  16.087   2.953   8.100 -0.0530  0.1032  0.1844
  269loPI   C1B 4301  16.501   3.031   9.983 -0.2051 -0.0700  0.0275
  269loPI   C2B 4302  16.458   3.092   9.541 -0.1521  0.0444 -0.1529
  269loPI   C3B 4303  16.546   3.044   9.145 -0.1783  0.1614  0.0611
  269loPI   C4B 4304  16.640   3.065   8.697  0.1404  0.2188 -0.0122
  270loPI    C1 4305  12.147   9.948  11.051 -0.1457  0.1406 -0.0139
  270loPI    C2 4306  11.993  10.027  11.412 -0.0936  0.0169  0.0361
  270loPI    C3 4307  12.234   9.711  11.362  0.2784  0.3005 -0.0038
  270loPI   PO4 4308  11.929   9.975  10.897  0.0105 -0.2503 -0.1627
  270loPI   GL1 4309  11.849   9.899  10.360 -0.0420  0.3118 -0.0149
  270loPI   GL2 4310  12.112   9.997  10.071  0.1503 -0.2364  0.1763
  270loPI   C1A 4311  11.669   9.707   9.972 -0.1432 -0.0274  0.3978
  270loPI   C2A 4312  11.728   9.665   9.563  0.2349  0.1740 -0.0254
  270loPI   C3A 4313  11.852   9.590   9.063 -0.1255  0.3411  0.0178
  270loPI   C4A 4314  11.811   9.584   8.647 -0.2486 -0.1213 -0.1300
  270loPI   C5A 4315  11.851   9.664   8.209  0.0332 -0.2020 -0.2614
  270loPI   C6A 4316  12.201   9.706   7.960 -0.1389  0.0654 -0.0761
  270loPI   C1B 4317  12.145   9.865   9.603  0.2587 -0.1512 -0.0332
  270loPI   C2B 4318  12.284   9.923   9.212  0.0367 -0.0109 -0.1721
  270loPI   C3B 4319  12.187   9.917   8.698 -0.1531 -0.1023 -0.1424
  270loPI   C4B 4320  12.094  10.100   8.275  0.2235  0.2082  0.3707
  271loPI    C1 4321   0.637   3.973  11.089 -0.0668 -0.2132 -0.0086
  271loPI    C2 4322   0.318   3.742  11.159 -0.1595 -0.0130  0.2411
  271loPI    C3 4323   0.318   4.125  11.275  0.0031  0.1093 -0.1453
  271loPI   PO4 4324   0.646   3.877  10.819  0.1831 -0.1543 -0.2141
  271loPI   GL1 4325   0.554   3.997  10.459 -0.1676  0.0895 -0.1000
  271loPI   GL2 4326   0.306   4.134  10.341  0.0749 -0.3602  0.1003
  271loPI   C1A 4327   0.786   3.874  10.083  0.2837  0.0651  0.2520
  271loPI   C2A 4328   0.772   3.813   9.692  0.0743 -0.0322  0.3177
  271loPI   C3A 4329   0.746   3.728   9.171  0.0961  0.2345 -0.1803
  271loPI   C4A 4330   0.801   3.671   8.728 -0.0489 -0.0971  0.0243
  271loPI   C5A 4331   0.753   3.942   8.388 -0.2298 -0.1022 -0.1721
  271loPI   C6A 4332   0.717   4.393   8.490 -0.1222 -0.2304  0.0096
  271loPI   C1B 4333   0.383   4.149   9.916  0.1125  0.2133 -0.1397
  271loPI   C2B 4334   0.286   3.986   9.507  0.1440 -0.1753  0.0102
  271loPI   C3B 4335   0.346   3.962   9.053  0.0412 -0.3850 -0.1448
  271loPI   C4B 4336   0.339   3.838   8.631  0.0257  0.1482  0.0107
  272loPI    C1 4337  10.964  12.058  10.598  0.0285 -0.0148  0.1630
  272loPI    C2 4338  11.022  11.982  10.986  0.2749  0.0396  0.1388
  272loPI    C3 4339  11.225  11.776  10.710  0.0218 -0.0727  0.0340
  272loPI   PO4 4340  11.001  12.404  10.500 -0.0913  0.4260 -0.2685
  272loPI   GL1 4341  11.265  12.513  10.193  0.0125 -0.1630 -0.3032
  272loPI   GL2 4342  11.320  12.246  10.190  0.2013  0.4242 -0.0139
  272loPI   C1A 4343  11.270  12.892  10.004  0.0580 -0.0574 -0.1906
  272loPI   C2A 4344  11.187  13.008   9.570  0.1542  0.0061 -0.2482
  272loPI   C3A 4345  11.214  12.939   9.113  0.3631 -0.0222  0.0017
  272loPI   C4A 4346  11.224  12.815   8.775 -0.0738 -0.0823  0.2321
  272loPI   C5A 4347  11.121  12.661   8.305 -0.3077  0.0275 -0.0301
  272loPI   C6A 4348  11.237  12.535   7.876  0.0286 -0.0611  0.0758
  272loPI   C1B 4349  11.245  12.191   9.697 -0.1055  0.1267 -0.2304
  272loPI   C2B 4350  11.179  12.283   9.225 -0.0387  0.1709 -0.0422
  272loPI   C3B 4351  11.141  12.248   8.713  0.2312 -0.1242 -0.0990
  272loPI   C4B 4352  11.143  12.127   8.297 -0.0385 -0.0142  0.0493
  273loPI    C1 4353  17.215   8.210  10.877  0.1795 -0.0312 -0.0437
  273loPI    C2 4354  16.951   8.177  11.175  0.0885  0.0149 -0.1184
  273loPI    C3 4355  17.317   8.320  11.248  0.0303  0.1308 -0.0491
  273loPI   PO4 4356  17.145   8.360  10.644 -0.1748 -0.1122  0.0613
  273loPI   GL1 4357  16.962   8.561  10.414 -0.1836  0.1989 -0.2212
  273loPI   GL2 4358  16.678   8.422  10.303 -0.3442  0.1308 -0.3381
  273loPI   C1A 4359  17.094   8.556   9.996 -0.1433  0.0987 -0.1244
  273loPI   C2A 4360  17.143   8.546   9.533 -0.0317 -0.1097 -0.0111
  273loPI   C3A 4361  17.079   8.493   9.119  0.0493 -0.0363  0.1570
  273loPI   C4A 4362  17.123   8.347   8.664  0.2020 -0.2480 -0.3102
  273loPI   C5A 4363  17.196   8.276   8.233 -0.1709 -0.1751 -0.2889
  273loPI   C6A 4364  16.964   8.266   7.751  0.2518  0.1930  0.1609
  273loPI   C1B 4365  16.636   8.336   9.860 -0.2531  0.0776 -0.1705
  273loPI   C2B 4366  16.683   8.253   9.460  0.0198 -0.0835  0.0194
  273loPI   C3B 4367  16.727   8.174   9.006  0.1709  0.0006  0.0165
  273loPI   C4B 4368  16.677   8.175   8.556  0.1234  0.1344 -0.1128
  274loPI    C1 4369   7.692   5.238  11.293  0.0721 -0.0980 -0.1525
  274loPI    C2 4370   7.787   4.902  11.488 -0.2978 -0.1714 -0.0917
  274loPI    C3 4371   7.695   5.233  11.693 -0.3126 -0.1415 -0.1465
  274loPI   PO4 4372   7.706   5.107  11.025 -0.0353  0.0472 -0.1582
  274loPI   GL1 4373   7.556   5.202  10.617  0.0000 -0.2367 -0.2546
  274loPI   GL2 4374   7.287   5.040  10.679 -0.2131 -0.1665  0.0142
  274loPI   C1A 4375   7.521   5.404  10.164  0.0199  0.0172  0.0279
  274loPI   C2A 4376   7.632   5.418   9.795  0.2919 -0.3430 -0.0805
  274loPI   C3A 4377   7.610   5.439   9.226  0.2493 -0.1145 -0.1243
  274loPI   C4A 4378   7.637   5.540   8.754  0.0046  0.2830 -0.1265
  274loPI   C5A 4379   7.311   5.450   8.516  0.1115 -0.2639 -0.1654
  274loPI   C6A 4380   7.380   5.075   8.218  0.0133 -0.0305 -0.2717
  274loPI   C1B 4381   7.386   4.817  10.312 -0.3639  0.0331  0.1434
  274loPI   C2B 4382   7.584   4.840   9.917  0.2032  0.1268 -0.0598
  274loPI   C3B 4383   7.599   4.984   9.552 -0.0714 -0.1315  0.4160
  274loPI   C4B 4384   7.575   4.920   9.104  0.0068 -0.0281 -0.1302
  275loPI    C1 4385   2.635  16.911  11.487  0.0281 -0.0659  0.2092
  275loPI    C2 4386   3.025  16.965  11.415 -0.0001 -0.0018  0.1031
  275loPI    C3 4387   2.896  16.919  11.791  0.0865  0.1668  0.1546
  275loPI   PO4 4388   2.598  16.804  11.151  0.3225  0.1298 -0.0780
  275loPI   GL1 4389   2.704  16.851  10.694  0.1206 -0.1878  0.2472
  275loPI   GL2 4390   2.429  16.824  10.533  0.2787  0.0130  0.0948
  275loPI   C1A 4391   2.806  16.868  10.207 -0.0332  0.0740  0.2447
  275loPI   C2A 4392   2.808  16.820   9.766 -0.0993 -0.1670 -0.0553
  275loPI   C3A 4393   2.686  16.878   9.258  0.0709 -0.0217  0.0193
  275loPI   C4A 4394   2.609  16.962   8.802 -0.1797 -0.0149  0.1731
  275loPI   C5A 4395   2.425  16.972   8.423 -0.1003  0.1485 -0.0181
  275loPI   C6A 4396   2.268  17.281   8.250  0.0237  0.0174 -0.0062
  275loPI   C1B 4397   2.299  16.626  10.103  0.2009  0.1625 -0.0543
  275loPI   C2B 4398   2.179  16.638   9.678 -0.0668  0.0076 -0.1621
  275loPI   C3B 4399   2.113  16.697   9.308  0.0790 -0.2568 -0.0174
  275loPI   C4B 4400   2.172  16.782   8.872  0.0383 -0.1484  0.0336
  276loPI    C1 4401   6.834  15.751  10.742 -0.3352  0.0386 -0.1335
  276loPI    C2 4402   6.631  15.875  11.064 -0.0742  0.0402  0.0338
  276loPI    C3 4403   7.030  15.897  11.059 -0.0435 -0.4329 -0.0881
  276loPI   PO4 4404   6.747  15.854  10.449 -0.0135  0.1152  0.2286
  276loPI   GL1 4405   6.978  15.971  10.092  0.1394  0.1664  0.3754
  276loPI   GL2 4406   6.943  15.623  10.027  0.0094 -0.1336 -0.0305
  276loPI   C1A 4407   7.151  16.108   9.665 -0.1514 -0.1265  0.1252
  276loPI   C2A 4408   7.095  16.063   9.289  0.2023  0.1500 -0.0611
  276loPI   C3A 4409   7.177  16.135   8.913 -0.2989 -0.1113 -0.1861
  276loPI   C4A 4410   7.273  16.131   8.488 -0.1116 -0.1323 -0.3160
  276loPI   C5A 4411   7.244  16.035   8.031  0.0811  0.3837 -0.1295
  276loPI   C6A 4412   7.027  15.936   7.573 -0.2232  0.0628  0.3087
  276loPI   C1B 4413   6.920  15.500   9.603  0.0206  0.1390 -0.1905
  276loPI   C2B 4414   6.945  15.602   9.249  0.0874 -0.1461  0.0052
  276loPI   C3B 4415   7.047  15.577   8.912 -0.3653  0.2016  0.0687
  276loPI   C4B 4416   7.082  15.588   8.479  0.0530 -0.1373 -0.0629
  277loPI    C1 4417  11.575  15.224  11.128  0.1970  0.1075  0.0716
  277loPI    C2 4418  11.788  14.998  11.380  0.2140  0.1373  0.0842
  277loPI    C3 4419  11.542  15.279  11.523 -0.1518 -0.1753  0.0875
  277loPI   PO4 4420  11.683  15.140  10.904  0.0057 -0.0354  0.1995
  277loPI   GL1 4421  11.697  14.832  10.518  0.3270 -0.1556 -0.2882
  277loPI   GL2 4422  11.500  14.963  10.394  0.2382  0.1973  0.0724
  277loPI   C1A 4423  11.946  14.561  10.190 -0.0834  0.4278  0.0157
  277loPI   C2A 4424  12.013  14.533   9.765  0.0067 -0.1983  0.1286
  277loPI   C3A 4425  11.900  14.501   9.322 -0.1272  0.0133 -0.0320
  277loPI   C4A 4426  11.860  14.575   8.815 -0.3405 -0.2490 -0.1799
  277loPI   C5A 4427  11.784  14.670   8.380  0.2030  0.0746  0.3492
  277loPI   C6A 4428  11.436  14.878   8.074  0.3122 -0.1276 -0.0502
  277loPI   C1B 4429  11.554  14.862  10.023  0.2583  0.1010 -0.0001
  277loPI   C2B 4430  11.552  14.801   9.556  0.0255 -0.1358 -0.0487
  277loPI   C3B 4431  11.631  14.933   9.178 -0.2899  0.1760 -0.0348
  277loPI   C4B 4432  11.434  14.844   8.748 -0.0591 -0.1589  0.0120
  278loPI    C1 4433   2.565   3.438  10.958 -0.1366  0.2149 -0.2417
  278loPI    C2 4434   2.326   3.705  11.135  0.0049  0.0910  0.1459
  278loPI    C3 4435   2.718   3.705  11.212  0.0789  0.0650 -0.2117
  278loPI   PO4 4436   2.472   3.516  10.660 -0.0822  0.0335 -0.1126
  278loPI   GL1 4437   2.415   3.723  10.292  0.0519 -0.0325 -0.0461
  278loPI   GL2 4438   2.172   3.620  10.161  0.1388 -0.1192  0.2807
  278loPI   C1A 4439   2.576   3.835   9.976  0.1493 -0.0494  0.1464
  278loPI   C2A 4440   2.553   3.819   9.544 -0.1198  0.2643  0.0851
  278loPI   C3A 4441   2.521   3.785   9.109  0.2275 -0.1900 -0.2677
  278loPI   C4A 4442   2.681   3.788   8.728 -0.1513  0.0620 -0.1131
  278loPI   C5A 4443   2.598   4.003   8.412 -0.0122 -0.0009 -0.1665
  278loPI   C6A 4444   2.325   4.098   8.041 -0.0786 -0.2776  0.2821
  278loPI   C1B 4445   2.187   3.522   9.720 -0.1624  0.1533 -0.3036
  278loPI   C2B 4446   2.097   3.489   9.265 -0.0518  0.0242 -0.1244
  278loPI   C3B 4447   2.073   3.563   8.858 -0.1124 -0.2060 -0.1119
  278loPI   C4B 4448   2.261   3.635   8.348  0.0517  0.1671 -0.0611
  279loPI    C1 4449   0.880  10.387  10.847  0.0168 -0.1509  0.2071
  279loPI    C2 4450   0.506  10.250  10.883 -0.1789  0.2794 -0.1048
  279loPI    C3 4451   0.632  10.550  11.115  0.0954 -0.0979  0.2478
  279loPI   PO4 4452   0.923  10.341  10.592 -0.1119 -0.0368 -0.1560
  279loPI   GL1 4453   0.872  10.559  10.128 -0.0296  0.0042 -0.1966
  279loPI   GL2 4454   0.576  10.756  10.117 -0.3313 -0.1099 -0.3043
  279loPI   C1A 4455   1.056  10.562   9.668 -0.1248 -0.0352 -0.0791
  279loPI   C2A 4456   0.927  10.532   9.361  0.4199  0.4004 -0.0689
  279loPI   C3A 4457   0.962  10.533   8.876  0.0721  0.2417 -0.3743
  279loPI   C4A 4458   0.980  10.522   8.504  0.2091  0.1706  0.1826
  279loPI   C5A 4459   1.112  10.522   8.055  0.2097  0.0676  0.1615
  279loPI   C6A 4460   0.935  10.315   7.745 -0.0451 -0.1134  0.2283
  279loPI   C1B 4461   0.482  10.789   9.673  0.1569  0.0393  0.3752
  279loPI   C2B 4462   0.574  10.810   9.176  0.0166  0.0694 -0.2288
  279loPI   C3B 4463   0.557  10.754   8.704 -0.2285 -0.1200 -0.1423
  279loPI   C4B 4464   0.510  10.875   8.328 -0.0056 -0.0332 -0.0569
  280loPI    C1 4465   8.202  16.096  10.973  0.1585 -0.0789  0.2029
  280loPI    C2 4466   8.300  16.448  11.135  0.2378 -0.0108  0.0091
  280loPI    C3 4467   8.566  16.250  10.911  0.2551 -0.2798  0.2624
  280loPI   PO4 4468   8.041  16.145  10.828 -0.1322  0.0135  0.1648
  280loPI   GL1 4469   7.943  16.023  10.378 -0.1664  0.1311 -0.3508
  280loPI   GL2 4470   8.120  16.044  10.066  0.2990  0.0483 -0.0677
  280loPI   C1A 4471   7.897  15.607   9.983 -0.5058  0.0813 -0.2233
  280loPI   C2A 4472   7.825  15.443   9.640 -0.0702 -0.0297 -0.1136
  280loPI   C3A 4473   7.887  15.474   9.247  0.0867  0.1526  0.0216
  280loPI   C4A 4474   7.977  15.443   8.848 -0.1008  0.2293  0.0457
  280loPI   C5A 4475   7.880  15.386   8.321 -0.4024 -0.0983 -0.0269
  280loPI   C6A 4476   7.528  15.384   8.108  0.0574  0.1930  0.2128
  280loPI   C1B 4477   8.029  15.894   9.559 -0.0607 -0.1432 -0.0352
  280loPI   C2B 4478   8.001  15.929   9.073 -0.1313 -0.2522 -0.0453
  280loPI   C3B 4479   8.038  15.940   8.558 -0.1003 -0.0731  0.0007
  280loPI   C4B 4480   7.803  15.870   8.136 -0.0161 -0.0100 -0.1346
  281loPI    C1 4481  10.531   8.723  11.416  0.0204  0.1083 -0.2458
  281loPI    C2 4482  10.835   8.615  11.653  0.0547 -0.1212 -0.3915
  281loPI    C3 4483  10.726   8.999  11.631  0.0100 -0.1039  0.0419
  281loPI   PO4 4484  10.550   8.574  11.263  0.0249  0.2634  0.2488
  281loPI   GL1 4485  10.667   8.575  10.821 -0.0414 -0.2184 -0.2184
  281loPI   GL2 4486  11.024   8.369  10.761 -0.2626 -0.2624  0.1456
  281loPI   C1A 4487  10.846   8.688  10.414 -0.0926  0.0947  0.2874
  281loPI   C2A 4488  10.808   8.687   9.881 -0.0134 -0.1793  0.0079
  281loPI   C3A 4489  10.841   8.745   9.407 -0.0947 -0.1738 -0.2139
  281loPI   C4A 4490  10.802   8.670   8.947  0.0999 -0.1923  0.4475
  281loPI   C5A 4491  10.790   8.645   8.546 -0.2464 -0.0365 -0.1820
  281loPI   C6A 4492  10.921   8.669   8.150  0.1451 -0.3241 -0.0337
  281loPI   C1B 4493  11.241   8.365  10.432  0.1185  0.0307 -0.1371
  281loPI   C2B 4494  11.204   8.363   9.952  0.0400 -0.0671 -0.2650
  281loPI   C3B 4495  11.284   8.419   9.482 -0.0319 -0.2706  0.0339
  281loPI   C4B 4496  11.236   8.375   9.041  0.0117  0.0066  0.0035
  282loPI    C1 4497  15.353   5.441  10.878 -0.1999 -0.0447 -0.0805
  282loPI    C2 4498  15.072   5.716  10.953 -0.0644  0.0748 -0.0081
  282loPI    C3 4499  15.340   5.620  11.235 -0.0917 -0.1096 -0.0435
  282loPI   PO4 4500  15.290   5.217  10.837 -0.3642 -0.0769 -0.0839
  282loPI   GL1 4501  15.341   5.035  10.429  0.1387  0.1076  0.0265
  282loPI   GL2 4502  14.985   5.127  10.465 -0.1636  0.1047 -0.1181
  282loPI   C1A 4503  15.224   5.018  10.049  0.1566 -0.0310 -0.0701
  282loPI   C2A 4504  15.271   4.951   9.539  0.0252 -0.1978  0.3440
  282loPI   C3A 4505  15.231   4.981   9.129  0.0186  0.0794  0.2199
  282loPI   C4A 4506  15.225   4.880   8.692 -0.0462  0.0993  0.0382
  282loPI   C5A 4507  15.363   5.188   8.316  0.0688 -0.1215  0.1136
  282loPI   C6A 4508  15.590   5.481   8.117 -0.1111  0.0430 -0.2769
  282loPI   C1B 4509  14.809   5.225  10.098 -0.1049  0.0684 -0.2237
  282loPI   C2B 4510  14.809   5.237   9.710  0.1526 -0.2331 -0.1501
  282loPI   C3B 4511  14.715   5.242   9.233 -0.0729 -0.0621 -0.0631
  282loPI   C4B 4512  14.754   5.164   8.806 -0.2321 -0.1755  0.2669
  283loPI    C1 4513   4.331  11.919  10.436 -0.3404  0.1984 -0.0083
  283loPI    C2 4514   4.523  11.667  10.680 -0.1240  0.2218 -0.1516
  283loPI    C3 4515   4.277  11.943  10.832 -0.2726  0.0020  0.0143
  283loPI   PO4 4516   4.236  11.746  10.279 -0.0437  0.2060  0.2203
  283loPI   GL1 4517   4.061  11.694   9.971  0.3123  0.1563  0.2365
  283loPI   GL2 4518   3.729  11.854   9.769  0.0178  0.2902 -0.0892
  283loPI   C1A 4519   4.141  11.637   9.574 -0.1198  0.1763 -0.0008
  283loPI   C2A 4520   3.925  11.621   9.259 -0.2463  0.0293  0.1023
  283loPI   C3A 4521   3.820  11.647   8.842 -0.1280  0.3077 -0.0984
  283loPI   C4A 4522   3.829  11.911   8.509  0.0847 -0.3330  0.0416
  283loPI   C5A 4523   3.820  11.914   8.156 -0.0030 -0.1349  0.0737
  283loPI   C6A 4524   3.786  11.811   7.756 -0.0852 -0.3037 -0.0921
  283loPI   C1B 4525   3.744  12.039   9.398  0.0162 -0.0227 -0.0989
  283loPI   C2B 4526   3.795  12.152   8.938 -0.0250  0.0241  0.0379
  283loPI   C3B 4527   3.878  12.472   8.615 -0.2468  0.2137 -0.0360
  283loPI   C4B 4528   3.696  12.485   8.121  0.0240  0.0372  0.0565
  284loPI    C1 4529  15.954  16.982  11.526 -0.2906  0.3781  0.0861
  284loPI    C2 4530  15.792  17.123  11.864 -0.0856  0.3117  0.2138
  284loPI    C3 4531  16.186  17.158  11.801 -0.0473 -0.1004  0.1978
  284loPI   PO4 4532  15.970  17.044  11.292  0.0982  0.0535 -0.1950
  284loPI   GL1 4533  15.939  17.339  10.885  0.0621  0.0934  0.3281
  284loPI   GL2 4534  15.809  17.670  10.919  0.2752  0.1216 -0.1042
  284loPI   C1A 4535  15.802  17.292  10.407  0.0399  0.1256  0.1206
  284loPI   C2A 4536  15.713  17.304   9.879 -0.1042 -0.2371  0.2154
  284loPI   C3A 4537  15.701  17.291   9.470  0.1399 -0.0675 -0.1913
  284loPI   C4A 4538  15.709  17.413   8.996  0.0715 -0.0121  0.0820
  284loPI   C5A 4539  15.413  17.635   8.649 -0.2609  0.1024 -0.3493
  284loPI   C6A 4540  15.172  17.620   8.310 -0.1652  0.1089 -0.1730
  284loPI   C1B 4541  15.840  17.760  10.457  0.2830 -0.1914 -0.0590
  284loPI   C2B 4542  15.824  17.844  10.038  0.0632 -0.0410  0.0865
  284loPI   C3B 4543  15.876  17.740   9.595  0.0016 -0.1263 -0.2090
  284loPI   C4B 4544  15.794  17.868   9.237 -0.1932 -0.3571  0.0637
  285loPI    C1 4545   8.799   8.585  11.408 -0.0727 -0.0307 -0.0121
  285loPI    C2 4546   8.504   8.402  11.607  0.0057 -0.0458  0.0913
  285loPI    C3 4547   8.768   8.629  11.805 -0.0390  0.1088 -0.0243
  285loPI   PO4 4548   8.665   8.686  11.162  0.2509  0.1317 -0.0544
  285loPI   GL1 4549   8.463   8.739  10.835 -0.0821  0.0926  0.2068
  285loPI   GL2 4550   8.427   8.483  10.753 -0.1001  0.1010  0.0494
  285loPI   C1A 4551   8.564   8.963  10.504 -0.1964 -0.1522 -0.0721
  285loPI   C2A 4552   8.613   9.017  10.107  0.0785 -0.0199 -0.0869
  285loPI   C3A 4553   8.614   8.988   9.722  0.1750 -0.4609 -0.0033
  285loPI   C4A 4554   8.678   8.979   9.249  0.0649 -0.1710  0.0388
  285loPI   C5A 4555   8.659   8.968   8.855  0.1947 -0.0631 -0.2471
  285loPI   C6A 4556   8.700   8.933   8.485 -0.0925  0.0161 -0.1542
  285loPI   C1B 4557   8.576   8.411  10.332 -0.2488 -0.1069 -0.0669
  285loPI   C2B 4558   8.600   8.388   9.910  0.0517 -0.2939  0.0454
  285loPI   C3B 4559   8.704   8.453   9.466 -0.1813  0.0981 -0.1976
  285loPI   C4B 4560   8.665   8.445   9.051  0.0188  0.1365 -0.3285
  286loPI    C1 4561  12.314  17.100  11.146 -0.0948  0.1963 -0.0369
  286loPI    C2 4562  12.153  17.299  11.453 -0.0739 -0.0526  0.1389
  286loPI    C3 4563  12.512  17.127  11.493  0.0535  0.1460 -0.1164
  286loPI   PO4 4564  12.106  16.994  10.872 -0.1389 -0.3661  0.0236
  286loPI   GL1 4565  12.084  16.858  10.486 -0.0366 -0.0065 -0.2189
  286loPI   GL2 4566  11.920  16.940  10.258 -0.0928  0.1132  0.1409
  286loPI   C1A 4567  12.337  16.567  10.179 -0.1363 -0.0034  0.1384
  286loPI   C2A 4568  12.399  16.585   9.755 -0.1848  0.0368 -0.0172
  286loPI   C3A 4569  12.439  16.629   9.320 -0.0904  0.0966 -0.0528
  286loPI   C4A 4570  12.410  16.630   8.969 -0.0298  0.1064  0.2193
  286loPI   C5A 4571  12.398  16.529   8.596  0.0833  0.0081 -0.0404
  286loPI   C6A 4572  12.165  16.576   8.198 -0.1406 -0.0095  0.3166
  286loPI   C1B 4573  11.999  16.820   9.845  0.1099  0.0641 -0.0796
  286loPI   C2B 4574  12.063  17.010   9.433 -0.0141  0.0124 -0.0745
  286loPI   C3B 4575  12.050  17.027   8.997  0.4269 -0.0938 -0.1403
  286loPI   C4B 4576  12.075  16.927   8.567  0.0005  0.1011  0.1174
  287loPI    C1 4577  14.487  12.024  10.799  0.1984  0.4455  0.0782
  287loPI    C2 4578  14.871  12.060  10.696  0.2481 -0.1141  0.0356
  287loPI    C3 4579  14.774  11.957  11.070  0.1325  0.1275  0.0738
  287loPI   PO4 4580  14.360  11.775  10.685  0.1349  0.1359 -0.0281
  287loPI   GL1 4581  14.248  11.779  10.346 -0.2060 -0.2660 -0.1022
  287loPI   GL2 4582  14.539  11.992  10.260 -0.0001  0.0755  0.1688
  287loPI   C1A 4583  14.080  11.575  10.047  0.0052  0.2201 -0.0399
  287loPI   C2A 4584  14.156  11.601   9.636 -0.1679  0.0983  0.0437
  287loPI   C3A 4585  14.163  11.581   9.239  0.0334  0.2610 -0.1364
  287loPI   C4A 4586  14.163  11.474   8.830 -0.0365 -0.0742  0.1256
  287loPI   C5A 4587  14.110  11.607   8.355  0.2082  0.0705 -0.0605
  287loPI   C6A 4588  14.359  11.443   7.993 -0.0143  0.0806  0.0566
  287loPI   C1B 4589  14.763  12.187   9.925 -0.1396 -0.3287  0.1811
  287loPI   C2B 4590  14.788  12.189   9.446  0.2571  0.1521 -0.0237
  287loPI   C3B 4591  14.757  12.331   9.055  0.2961 -0.2940 -0.0492
  287loPI   C4B 4592  14.591  12.226   8.657 -0.1723  0.3002  0.0655
  288loPI    C1 4593   6.309  12.866  10.488  0.0436  0.0867  0.0265
  288loPI    C2 4594   6.049  12.998  10.762 -0.0358  0.1579 -0.0821
  288loPI    C3 4595   5.960  12.677  10.542 -0.0049  0.1458 -0.0768
  288loPI   PO4 4596   6.335  13.003  10.242  0.1281  0.0328  0.1191
  288loPI   GL1 4597   6.304  13.352   9.917 -0.0506 -0.0488  0.2637
  288loPI   GL2 4598   6.013  13.394   9.915  0.0479  0.0398 -0.0175
  288loPI   C1A 4599   6.260  13.395   9.461  0.2319 -0.0689 -0.1741
  288loPI   C2A 4600   6.144  13.358   9.032  0.0400 -0.0694 -0.0144
  288loPI   C3A 4601   6.198  13.357   8.643  0.2308  0.1877 -0.0511
  288loPI   C4A 4602   6.272  13.428   8.194 -0.1121  0.3292  0.2797
  288loPI   C5A 4603   6.576  13.310   7.760 -0.1496  0.2389  0.2954
  288loPI   C6A 4604   6.754  12.913   7.557  0.3150 -0.2155 -0.1663
  288loPI   C1B 4605   5.859  13.671   9.626 -0.1600  0.1646 -0.2911
  288loPI   C2B 4606   5.877  13.687   9.251  0.1531 -0.1228 -0.1937
  288loPI   C3B 4607   5.803  13.668   8.802  0.1108 -0.0632 -0.0045
  288loPI   C4B 4608   5.903  13.713   8.396  0.1573  0.2528 -0.1405
  289loPI    C1 4609  17.689   8.406  10.930 -0.1220 -0.2856  0.0717
  289loPI    C2 4610  18.077   8.423  11.023 -0.0688 -0.1247 -0.1676
  289loPI    C3 4611  17.803   8.386  11.312  0.1105 -0.0045  0.0205
  289loPI   PO4 4612  17.718   8.584  10.693 -0.0883 -0.1850 -0.1789
  289loPI   GL1 4613  17.541   8.480  10.378  0.1137 -0.2331  0.3903
  289loPI   GL2 4614  17.563   8.803  10.258  0.0629 -0.2688  0.0067
  289loPI   C1A 4615  17.480   8.267   9.974 -0.2303  0.3393 -0.0383
  289loPI   C2A 4616  17.581   8.296   9.558  0.0082 -0.0742  0.1605
  289loPI   C3A 4617  17.536   8.192   9.088  0.0713  0.0836 -0.2423
  289loPI   C4A 4618  17.584   8.112   8.609 -0.1510 -0.1224 -0.0605
  289loPI   C5A 4619  17.816   8.220   8.247  0.0003  0.2525  0.0179
  289loPI   C6A 4620  17.986   7.845   7.992  0.1829  0.0089  0.1460
  289loPI   C1B 4621  17.571   8.778   9.790 -0.0560 -0.4531  0.2587
  289loPI   C2B 4622  17.584   8.773   9.353  0.1716  0.1456 -0.0164
  289loPI   C3B 4623  17.630   8.704   8.926  0.1731 -0.3976 -0.1051
  289loPI   C4B 4624  17.561   8.644   8.562 -0.0181 -0.2457  0.1045
  290loPI    C1 4625  13.477   5.345  11.287  0.2397 -0.1408 -0.0615
  290loPI    C2 4626  13.257   5.654  11.414  0.1741 -0.0883 -0.2974
  290loPI    C3 4627  13.591   5.552  11.609  0.1302  0.0539 -0.1461
  290loPI   PO4 4628  13.565   5.379  11.080 -0.0502  0.1326 -0.2330
  290loPI   GL1 4629  13.554   5.302  10.712  0.0682 -0.3380 -0.2776
  290loPI   GL2 4630  13.857   5.117  10.722  0.0270 -0.0106 -0.0934
  290loPI   C1A 4631  13.488   5.011  10.322  0.1144  0.1706  0.2912
  290loPI   C2A 4632  13.480   4.998   9.884 -0.1486 -0.0024  0.0998
  290loPI   C3A 4633  13.393   4.904   9.466 -0.1801 -0.1723  0.2395
  290loPI   C4A 4634  13.457   5.008   9.148 -0.2136 -0.0944 -0.1334
  290loPI   C5A 4635  13.420   5.066   8.728 -0.1114 -0.2194  0.1306
  290loPI   C6A 4636  13.065   5.185   8.367  0.2875 -0.4701  0.0074
  290loPI   C1B 4637  13.926   5.346  10.291  0.2830  0.2757 -0.2691
  290loPI   C2B 4638  13.937   5.272   9.838 -0.1499  0.4165 -0.2114
  290loPI   C3B 4639  13.865   5.237   9.377 -0.3725 -0.0292  0.0709
  290loPI   C4B 4640  13.894   5.359   8.902 -0.3199  0.3092 -0.2065
  291loPI    C1 4641   2.596  15.032  11.230 -0.1182 -0.1619  0.0185
  291loPI    C2 4642   2.296  15.287  11.162 -0.0039 -0.0207  0.0393
  291loPI    C3 4643   2.373  15.165  11.535  0.0309  0.0259  0.0475
  291loPI   PO4 4644   2.790  15.138  10.979  0.0668  0.4741  0.2168
  291loPI   GL1 4645   2.751  15.023  10.499  0.0294 -0.0252 -0.1726
  291loPI   GL2 4646   2.859  14.720  10.484 -0.2751  0.0815  0.0765
  291loPI   C1A 4647   2.895  15.349  10.108  0.1171 -0.0287 -0.0795
  291loPI   C2A 4648   2.857  15.530   9.754  0.0070 -0.0736  0.1261
  291loPI   C3A 4649   2.871  15.465   9.371 -0.0900 -0.0512 -0.0012
  291loPI   C4A 4650   2.879  15.658   8.966 -0.0620  0.0245  0.0687
  291loPI   C5A 4651   2.867  15.607   8.547 -0.2646 -0.1193 -0.2775
  291loPI   C6A 4652   2.734  15.842   8.205 -0.1287 -0.1367 -0.2257
  291loPI   C1B 4653   2.808  14.808   9.997 -0.0354 -0.0691  0.0929
  291loPI   C2B 4654   2.803  14.937   9.502 -0.1586  0.1116  0.1491
  291loPI   C3B 4655   2.827  14.963   9.082 -0.0091 -0.0652  0.1157
  291loPI   C4B 4656   2.846  14.967   8.641 -0.5865  0.0027  0.1879
  292loPI    C1 4657   3.320   7.103  10.866 -0.1544 -0.1635  0.0842
  292loPI    C2 4658   3.588   6.884  11.065  0.0212 -0.1519 -0.1356
  292loPI    C3 4659   3.610   7.283  11.074 -0.1176 -0.1468  0.0187
  292loPI   PO4 4660   3.341   6.976  10.644 -0.0210  0.0760  0.0156
  292loPI   GL1 4661   3.583   7.067  10.275 -0.1537  0.1482  0.0670
  292loPI   GL2 4662   3.484   6.900  10.060  0.1243 -0.0099 -0.1735
  292loPI   C1A 4663   3.680   7.345   9.859  0.3049 -0.1350  0.2603
  292loPI   C2A 4664   3.581   7.293   9.365  0.0038 -0.0417 -0.2420
  292loPI   C3A 4665   3.599   7.288   8.937 -0.2935  0.1834 -0.1760
  292loPI   C4A 4666   3.611   7.197   8.534 -0.0740 -0.3891 -0.1108
  292loPI   C5A 4667   3.871   7.084   8.164  0.2483 -0.3053  0.1431
  292loPI   C6A 4668   4.158   7.018   7.927 -0.0818  0.1309  0.0050
  292loPI   C1B 4669   3.622   6.803   9.739 -0.5381  0.1257  0.0548
  292loPI   C2B 4670   3.647   6.804   9.258  0.4098 -0.2558 -0.0663
  292loPI   C3B 4671   3.500   6.776   8.865 -0.0144  0.0636 -0.1853
  292loPI   C4B 4672   3.555   6.682   8.463 -0.0230  0.0742 -0.0517
  293loPI    C1 4673   0.348   7.216  11.192 -0.0002  0.0185 -0.0055
  293loPI    C2 4674   0.359   6.871  11.395 -0.0410  0.0946  0.1279
  293loPI    C3 4675   0.563   7.188  11.528 -0.0236  0.1297  0.0192
  293loPI   PO4 4676   0.323   7.084  10.939 -0.3438 -0.1789 -0.0724
  293loPI   GL1 4677   0.366   7.262  10.498  0.0671 -0.0082  0.1487
  293loPI   GL2 4678   0.201   7.318  10.289  0.1050  0.2967  0.2061
  293loPI   C1A 4679   0.620   6.996  10.194 -0.3227 -0.0614 -0.2330
  293loPI   C2A 4680   0.703   6.899   9.745 -0.1439  0.1856  0.1148
  293loPI   C3A 4681   0.772   6.956   9.326 -0.2055  0.0777  0.1800
  293loPI   C4A 4682   0.833   6.961   8.899 -0.2912  0.0967  0.0832
  293loPI   C5A 4683   0.984   6.885   8.504  0.0901 -0.0473  0.1183
  293loPI   C6A 4684   0.882   7.063   8.119  0.2881 -0.3354  0.0281
  293loPI   C1B 4685   0.384   7.260   9.924  0.3634  0.2163  0.1366
  293loPI   C2B 4686   0.353   7.170   9.469  0.3246  0.2035  0.4845
  293loPI   C3B 4687   0.379   7.095   9.035 -0.0889 -0.0395  0.0206
  293loPI   C4B 4688   0.491   7.146   8.597 -0.0996 -0.0488 -0.0164
  294loPI    C1 4689   0.612   1.702  11.043 -0.1800 -0.0776  0.0722
  294loPI    C2 4690   0.643   2.011  11.295 -0.1103 -0.1089  0.1022
  294loPI    C3 4691   0.764   1.647  11.409  0.1903 -0.0686 -0.0758
  294loPI   PO4 4692   0.494   1.801  10.822  0.1992  0.0980  0.0490
  294loPI   GL1 4693   0.311   1.660  10.442  0.3659  0.2681 -0.2291
  294loPI   GL2 4694   0.232   1.443  10.298  0.3423 -0.2085  0.0839
  294loPI   C1A 4695   0.223   1.921  10.124 -0.1920  0.0086  0.0881
  294loPI   C2A 4696   0.233   1.917   9.747 -0.2028  0.3645 -0.3456
  294loPI   C3A 4697   0.243   1.847   9.346  0.0842 -0.1977  0.2595
  294loPI   C4A 4698   0.150   1.800   8.940  0.3402 -0.1116  0.3544
  294loPI   C5A 4699   0.216   1.768   8.500 -0.1297 -0.1089  0.2093
  294loPI   C6A 4700   0.482   1.826   8.167 -0.3637  0.1098 -0.4207
  294loPI   C1B 4701   0.221   1.374   9.867  0.0748  0.0827 -0.0567
  294loPI   C2B 4702   0.182   1.342   9.438  0.0180  0.0629  0.1533
  294loPI   C3B 4703   0.175   1.316   9.019  0.0552  0.0613  0.0958
  294loPI   C4B 4704   0.137   1.124   8.645  0.3104 -0.1307 -0.1349
  295loPI    C1 4705  13.023   4.007  11.310 -0.1941  0.0398 -0.0870
  295loPI    C2 4706  13.080   4.308  11.567  0.0756  0.0481 -0.1535
  295loPI    C3 4707  12.743   4.093  11.582 -0.0077  0.1904  0.0601
  295loPI   PO4 4708  13.037   3.985  11.063 -0.1444  0.4032  0.1682
  295loPI   GL1 4709  12.954   4.214  10.658  0.2669  0.1877  0.1521
  295loPI   GL2 4710  13.192   4.299  10.633  0.1115 -0.2794 -0.0050
  295loPI   C1A 4711  12.666   4.311  10.332 -0.0575  0.1813  0.1205
  295loPI   C2A 4712  12.608   4.376   9.904 -0.1375 -0.1147 -0.3805
  295loPI   C3A 4713  12.572   4.459   9.510  0.0266 -0.0478 -0.0240
  295loPI   C4A 4714  12.443   4.533   9.149 -0.0621 -0.0975 -0.1452
  295loPI   C5A 4715  12.521   4.533   8.737 -0.1492  0.0716 -0.0621
  295loPI   C6A 4716  12.697   4.245   8.499 -0.1362  0.2126 -0.2177
  295loPI   C1B 4717  13.101   4.177  10.167  0.1074  0.4354 -0.1326
  295loPI   C2B 4718  13.023   4.140   9.808 -0.2034 -0.1109 -0.0674
  295loPI   C3B 4719  13.007   4.166   9.394  0.0487 -0.0056  0.0133
  295loPI   C4B 4720  12.932   4.269   8.966  0.0028 -0.1830  0.1057
  296loPI    C1 4721  15.674  14.057  10.890  0.1422 -0.1108 -0.1488
  296loPI    C2 4722  15.998  14.072  11.125  0.0411  0.0965 -0.0207
  296loPI    C3 4723  15.761  13.750  11.132  0.1493  0.0172  0.0130
  296loPI   PO4 4724  15.740  14.252  10.723  0.2642 -0.4881 -0.1780
  296loPI   GL1 4725  15.855  14.321  10.284 -0.0722 -0.0936 -0.3247
  296loPI   GL2 4726  16.045  14.105  10.136 -0.0874 -0.0590  0.1892
  296loPI   C1A 4727  15.532  14.426   9.910 -0.0698 -0.0042 -0.3169
  296loPI   C2A 4728  15.630  14.505   9.427  0.0513 -0.0989  0.3410
  296loPI   C3A 4729  15.629  14.436   9.035 -0.2336 -0.0716 -0.0252
  296loPI   C4A 4730  15.590  14.520   8.517  0.0262 -0.0431 -0.2060
  296loPI   C5A 4731  15.412  14.346   8.145 -0.1405 -0.0902  0.1673
  296loPI   C6A 4732  15.224  14.051   7.917  0.3070  0.2199 -0.3321
  296loPI   C1B 4733  16.059  14.106   9.692 -0.0470 -0.3018 -0.0980
  296loPI   C2B 4734  15.999  14.119   9.300  0.2522 -0.0227  0.0134
  296loPI   C3B 4735  16.003  14.164   8.872 -0.1275 -0.0542  0.0083
  296loPI   C4B 4736  15.936  14.193   8.375 -0.0084  0.1234  0.0885
  297loPI    C1 4737   1.248  13.425  10.196  0.2491  0.0033  0.1386
  297loPI    C2 4738   1.583  13.372  10.408  0.1537  0.1081  0.3179
  297loPI    C3 4739   1.233  13.418  10.595 -0.0167 -0.3490  0.1275
  297loPI   PO4 4740   1.344  13.589   9.980 -0.0661  0.1033  0.0325
  297loPI   GL1 4741   1.508  13.839   9.717 -0.1240 -0.0002 -0.0404
  297loPI   GL2 4742   1.763  14.025   9.666 -0.0521  0.0324 -0.0011
  297loPI   C1A 4743   1.271  13.932   9.343  0.0301 -0.4225  0.0079
  297loPI   C2A 4744   1.210  13.990   8.992 -0.1068 -0.2360 -0.0149
  297loPI   C3A 4745   1.148  13.973   8.521  0.2881 -0.1772 -0.2186
  297loPI   C4A 4746   1.267  14.020   8.090 -0.2866 -0.2303 -0.2935
  297loPI   C5A 4747   1.003  13.817   7.732 -0.2060  0.0249 -0.0469
  297loPI   C6A 4748   0.601  13.964   7.595 -0.2164 -0.0110  0.1289
  297loPI   C1B 4749   1.754  14.169   9.177 -0.1533 -0.0347  0.1620
  297loPI   C2B 4750   1.776  14.117   8.746  0.0944  0.1203 -0.3390
  297loPI   C3B 4751   1.742  14.244   8.322 -0.0111  0.0128 -0.0551
  297loPI   C4B 4752   1.972  14.352   7.929  0.0188  0.0535 -0.3139
  298loPI    C1 4753   9.108  16.512  10.826 -0.3062 -0.0665  0.0178
  298loPI    C2 4754   8.996  16.847  11.013 -0.1050 -0.0075  0.0350
  298loPI    C3 4755   9.258  16.599  11.186 -0.3229 -0.2221  0.0630
  298loPI   PO4 4756   8.977  16.498  10.582  0.4275  0.0139 -0.3642
  298loPI   GL1 4757   9.028  16.352  10.198 -0.1966  0.3395 -0.1845
  298loPI   GL2 4758   9.101  16.645  10.080 -0.3203 -0.0631 -0.0957
  298loPI   C1A 4759   9.025  16.253   9.790 -0.4326 -0.0267  0.0452
  298loPI   C2A 4760   9.010  16.361   9.360  0.1549  0.4041 -0.0592
  298loPI   C3A 4761   9.066  16.346   9.002  0.0856  0.0186 -0.1525
  298loPI   C4A 4762   9.217  16.353   8.660 -0.0814 -0.1458 -0.1991
  298loPI   C5A 4763   9.219  16.555   8.271  0.0952  0.0959 -0.1151
  298loPI   C6A 4764   9.072  16.736   7.909 -0.0562 -0.1283  0.0410
  298loPI   C1B 4765   9.038  16.813   9.652  0.3979 -0.0102  0.2928
  298loPI   C2B 4766   9.003  16.854   9.180 -0.3218  0.0885 -0.2553
  298loPI   C3B 4767   9.247  16.821   8.923  0.0008 -0.0824  0.1210
  298loPI   C4B 4768   9.534  16.877   8.576 -0.1009  0.0568 -0.1653
  299loPI    C1 4769   4.409  10.365  10.567 -0.2112 -0.0857  0.2012
  299loPI    C2 4770   4.460  10.224  10.938 -0.1638  0.0711  0.2548
  299loPI    C3 4771   4.379  10.612  10.880 -0.1282  0.0558  0.0989
  299loPI   PO4 4772   4.595  10.374  10.287 -0.2476  0.0145 -0.0883
  299loPI   GL1 4773   4.742  10.555   9.896  0.0263  0.1217  0.0534
  299loPI   GL2 4774   4.683  10.843   9.854 -0.3893  0.1402  0.1425
  299loPI   C1A 4775   4.675  10.444   9.438 -0.1399  0.1396 -0.1438
  299loPI   C2A 4776   4.755  10.362   9.058  0.0408 -0.2016 -0.0497
  299loPI   C3A 4777   4.658  10.471   8.614 -0.2797  0.2330  0.0223
  299loPI   C4A 4778   4.718  10.550   8.165  0.0205 -0.2586 -0.0566
  299loPI   C5A 4779   4.550  10.342   7.799  0.0310  0.1629  0.3146
  299loPI   C6A 4780   4.549  10.277   7.395 -0.4711 -0.2247 -0.1622
  299loPI   C1B 4781   4.724  10.970   9.419  0.0154 -0.2533 -0.1325
  299loPI   C2B 4782   4.685  11.012   8.996  0.1255  0.1326 -0.1909
  299loPI   C3B 4783   4.691  10.948   8.661 -0.0553 -0.1725  0.3054
  299loPI   C4B 4784   4.563  11.086   8.298 -0.0791  0.2873 -0.2256
  300loPI    C1 4785   1.806   5.363  10.879  0.0203  0.2277 -0.0073
  300loPI    C2 4786   1.788   5.752  10.787 -0.2505  0.1902 -0.1250
  300loPI    C3 4787   1.675   5.626  11.150 -0.0405  0.2340 -0.0426
  300loPI   PO4 4788   1.703   5.234  10.728  0.1417  0.0850 -0.1563
  300loPI   GL1 4789   1.352   5.054  10.424  0.0567  0.1106 -0.2291
  300loPI   GL2 4790   1.542   5.288  10.268 -0.2717 -0.0695 -0.1284
  300loPI   C1A 4791   1.164   5.084  10.033  0.0864 -0.2485 -0.0968
  300loPI   C2A 4792   1.308   5.062   9.572  0.0357  0.1551 -0.2142
  300loPI   C3A 4793   1.227   5.113   9.163  0.0188  0.3759 -0.0111
  300loPI   C4A 4794   1.176   5.057   8.692  0.0362  0.1143  0.2959
  300loPI   C5A 4795   0.898   4.896   8.299 -0.2948 -0.1268  0.0661
  300loPI   C6A 4796   0.578   4.610   8.066 -0.0829 -0.1928  0.0586
  300loPI   C1B 4797   1.661   5.510   9.906  0.1185  0.1342 -0.0176
  300loPI   C2B 4798   1.743   5.320   9.499 -0.5011  0.1028 -0.0467
  300loPI   C3B 4799   1.675   5.284   8.947  0.2292 -0.2121  0.2888
  300loPI   C4B 4800   1.555   5.234   8.461  0.0219 -0.3100  0.1337
  301loPI    C1 4801   7.367  12.782  10.974  0.0019  0.2988  0.2598
  301loPI    C2 4802   7.472  12.477  11.210 -0.3781  0.1075  0.1886
  301loPI    C3 4803   7.725  12.781  11.154 -0.0497 -0.1244  0.3720
  301loPI   PO4 4804   7.197  12.656  10.709 -0.2170 -0.4343  0.0105
  301loPI   GL1 4805   7.353  12.503  10.315 -0.1001  0.1782  0.1847
  301loPI   GL2 4806   7.198  12.806  10.185 -0.2124 -0.2058  0.1143
  301loPI   C1A 4807   7.419  12.402   9.914 -0.3072  0.1213 -0.1141
  301loPI   C2A 4808   7.357  12.439   9.528 -0.2704 -0.1658  0.1496
  301loPI   C3A 4809   7.449  12.400   9.094  0.0843  0.1869 -0.0392
  301loPI   C4A 4810   7.378  12.480   8.568 -0.3491 -0.0215  0.3285
  301loPI   C5A 4811   7.425  12.655   8.221  0.3010 -0.2128  0.4035
  301loPI   C6A 4812   7.480  13.047   7.967 -0.2540  0.2512  0.3262
  301loPI   C1B 4813   7.033  12.736   9.789  0.0827  0.0402  0.4287
  301loPI   C2B 4814   6.989  12.743   9.370 -0.0834  0.2428 -0.0611
  301loPI   C3B 4815   7.025  12.743   8.881  0.1769 -0.2724 -0.0739
  301loPI   C4B 4816   7.038  12.862   8.491  0.2903  0.0274 -0.0842
  302loPI    C1 4817  16.044   7.021  11.099 -0.0371  0.0915  0.0556
  302loPI    C2 4818  15.694   6.862  11.208  0.0157 -0.0440  0.0288
  302loPI    C3 4819  15.983   6.915  11.480  0.0055 -0.0128  0.0335
  302loPI   PO4 4820  16.065   6.901  10.895 -0.1649  0.0064 -0.0221
  302loPI   GL1 4821  16.067   6.998  10.449 -0.0635  0.2367 -0.1670
  302loPI   GL2 4822  16.255   6.769  10.406  0.2361 -0.0543  0.0761
  302loPI   C1A 4823  16.161   7.106  10.032 -0.1160  0.0313 -0.0272
  302loPI   C2A 4824  16.075   6.970   9.633  0.0176  0.0350  0.1546
  302loPI   C3A 4825  16.167   6.885   9.279  0.2378 -0.2678 -0.0608
  302loPI   C4A 4826  16.265   6.885   8.816  0.2377 -0.1208  0.2648
  302loPI   C5A 4827  16.382   7.090   8.349 -0.3672 -0.0313  0.0109
  302loPI   C6A 4828  16.615   7.333   8.083  0.0285 -0.2222  0.0968
  302loPI   C1B 4829  16.167   6.564   9.977 -0.1458 -0.2221 -0.0848
  302loPI   C2B 4830  16.012   6.439   9.559  0.1844 -0.1398 -0.2534
  302loPI   C3B 4831  16.189   6.411   9.168  0.0222 -0.0649  0.2023
  302loPI   C4B 4832  16.224   6.384   8.674  0.2293  0.0396  0.1867
  303loPI    C1 4833   0.810  15.365  10.994 -0.1491  0.2132 -0.1324
  303loPI    C2 4834   1.112  15.304  11.250 -0.1111 -0.0873 -0.2460
  303loPI    C3 4835   0.739  15.348  11.388 -0.0296  0.2054 -0.1107
  303loPI   PO4 4836   0.844  15.565  10.799 -0.2151  0.2360  0.1632
  303loPI   GL1 4837   0.841  15.515  10.392  0.2531  0.2428  0.1096
  303loPI   GL2 4838   1.193  15.245  10.250  0.1440 -0.2882  0.1010
  303loPI   C1A 4839   0.660  15.629   9.978  0.0641  0.0560  0.2276
  303loPI   C2A 4840   0.661  15.660   9.626  0.0355 -0.2690  0.3055
  303loPI   C3A 4841   0.571  15.509   9.251  0.3210 -0.2247  0.0745
  303loPI   C4A 4842   0.453  15.595   8.836 -0.0190  0.1729 -0.0307
  303loPI   C5A 4843   0.683  15.689   8.484  0.0594  0.2524 -0.1572
  303loPI   C6A 4844   0.929  15.606   8.172  0.3399 -0.4052 -0.0216
  303loPI   C1B 4845   1.060  15.286   9.708 -0.0257  0.2183 -0.1289
  303loPI   C2B 4846   1.067  15.278   9.245  0.2037  0.3495 -0.3742
  303loPI   C3B 4847   0.866  15.301   8.853  0.1419 -0.0075  0.0667
  303loPI   C4B 4848   0.998  15.197   8.422  0.3342  0.2491  0.0243
  304loPI    C1 4849   6.317   5.116  11.301  0.0126 -0.0975  0.0455
  304loPI    C2 4850   6.387   5.489  11.428  0.0895 -0.0589 -0.1071
  304loPI    C3 4851   6.575   5.180  11.600 -0.1019 -0.0445  0.1336
  304loPI   PO4 4852   6.406   5.065  11.047  0.1008 -0.0201 -0.2308
  304loPI   GL1 4853   6.485   5.227  10.606 -0.0790  0.2102 -0.1473
  304loPI   GL2 4854   6.149   5.200  10.433  0.3145 -0.2852  0.0069
  304loPI   C1A 4855   6.641   5.482  10.353 -0.0330  0.2773 -0.1651
  304loPI   C2A 4856   6.625   5.468   9.930  0.2918  0.0221  0.1766
  304loPI   C3A 4857   6.688   5.414   9.537 -0.0682  0.0087  0.1304
  304loPI   C4A 4858   6.825   5.463   9.150 -0.3036 -0.3531 -0.0456
  304loPI   C5A 4859   6.818   5.503   8.742 -0.2571  0.1070 -0.0749
  304loPI   C6A 4860   6.879   5.650   8.263 -0.1167  0.0690  0.0515
  304loPI   C1B 4861   6.222   5.176   9.967  0.0772 -0.2207 -0.0556
  304loPI   C2B 4862   6.237   5.225   9.506  0.0782  0.1783  0.0543
  304loPI   C3B 4863   6.378   5.231   9.088  0.0027 -0.0857 -0.2025
  304loPI   C4B 4864   6.388   5.277   8.652  0.1784  0.1699  0.1525
  305loPI    C1 4865   6.670  11.511  10.637  0.3608  0.2756 -0.0099
  305loPI    C2 4866   7.008  11.352  10.781  0.0333 -0.2898  0.1657
  305loPI    C3 4867   6.699  11.422  11.025 -0.0225  0.1174 -0.0129
  305loPI   PO4 4868   6.599  11.370  10.436 -0.2642 -0.0412 -0.0963
  305loPI   GL1 4869   6.784  11.176   9.996 -0.1541 -0.1126  0.0917
  305loPI   GL2 4870   6.522  11.400   9.927 -0.0087 -0.1628 -0.3007
  305loPI   C1A 4871   6.911  11.105   9.560 -0.0135  0.1302 -0.1530
  305loPI   C2A 4872   6.868  11.132   9.174  0.1946 -0.0225  0.0371
  305loPI   C3A 4873   6.873  11.177   8.810 -0.0272 -0.0116  0.0029
  305loPI   C4A 4874   6.897  11.236   8.374  0.2538  0.0090  0.0771
  305loPI   C5A 4875   6.850  11.465   8.111 -0.0526 -0.1080  0.0550
  305loPI   C6A 4876   7.066  11.459   7.797 -0.1251 -0.1426  0.0375
  305loPI   C1B 4877   6.473  11.380   9.540  0.0611 -0.0951 -0.2159
  305loPI   C2B 4878   6.495  11.467   9.083  0.1839  0.1547  0.0792
  305loPI   C3B 4879   6.428  11.459   8.663  0.2020  0.1915 -0.2751
  305loPI   C4B 4880   6.359  11.370   8.267 -0.0165 -0.1179  0.0302
  306loPI    C1 4881   1.457   6.026  10.979 -0.1930 -0.0389  0.1669
  306loPI    C2 4882   1.545   6.344  11.205  0.1572 -0.0233  0.0147
  306loPI    C3 4883   1.490   5.987  11.375  0.0119  0.0679  0.1617
  306loPI   PO4 4884   1.260   6.130  10.765 -0.1416 -0.0161 -0.0847
  306loPI   GL1 4885   1.142   6.003  10.406 -0.0184  0.3263  0.1385
  306loPI   GL2 4886   1.508   5.789  10.331  0.0470 -0.0912 -0.3078
  306loPI   C1A 4887   1.186   6.110   9.987  0.0307  0.3158  0.1339
  306loPI   C2A 4888   1.293   6.131   9.595  0.0443  0.0118  0.2777
  306loPI   C3A 4889   1.247   6.111   9.169  0.0547  0.0428  0.0624
  306loPI   C4A 4890   1.285   6.096   8.827  0.0637 -0.0380  0.2264
  306loPI   C5A 4891   1.440   6.155   8.322  0.2601 -0.0250  0.0204
  306loPI   C6A 4892   1.612   6.428   8.053  0.0796  0.1542 -0.1665
  306loPI   C1B 4893   1.630   5.961   9.925 -0.1549  0.1177  0.0177
  306loPI   C2B 4894   1.735   5.783   9.554 -0.0630 -0.1062  0.1798
  306loPI   C3B 4895   1.744   5.755   9.095  0.0497  0.2684  0.0366
  306loPI   C4B 4896   1.710   5.858   8.643  0.4776  0.0271  0.2795
  307loPI    C1 4897   8.253  12.902  10.567 -0.0801  0.1312  0.0689
  307loPI    C2 4898   8.143  12.751  10.920 -0.1322  0.0737  0.0283
  307loPI    C3 4899   8.296  13.120  10.899  0.0237  0.0160  0.1320
  307loPI   PO4 4900   8.101  12.767  10.330 -0.1019 -0.0335 -0.1990
  307loPI   GL1 4901   7.857  12.528  10.181  0.1053  0.1474 -0.0986
  307loPI   GL2 4902   7.770  12.196  10.331 -0.1458  0.0954  0.2829
  307loPI   C1A 4903   7.919  12.549   9.781 -0.1456  0.2208  0.3983
  307loPI   C2A 4904   7.926  12.622   9.395 -0.0183 -0.1429  0.0349
  307loPI   C3A 4905   7.900  12.619   8.998 -0.4873  0.0085 -0.1200
  307loPI   C4A 4906   7.904  12.646   8.587 -0.2806  0.0263 -0.0375
  307loPI   C5A 4907   7.914  12.792   8.159  0.0997  0.2282 -0.0875
  307loPI   C6A 4908   8.196  12.867   7.791  0.0827 -0.0712  0.1013
  307loPI   C1B 4909   7.819  12.067   9.886 -0.1539 -0.1301  0.3129
  307loPI   C2B 4910   7.872  12.168   9.369  0.0368 -0.0816  0.1317
  307loPI   C3B 4911   7.862  12.096   8.906  0.0110 -0.0800  0.2541
  307loPI   C4B 4912   7.839  12.144   8.573 -0.0358 -0.2257  0.2423
  308loPI    C1 4913  15.758   9.345  10.974  0.1112 -0.1057  0.1287
  308loPI    C2 4914  15.526   9.566  11.213  0.0268  0.0211 -0.0671
  308loPI    C3 4915  15.614   9.188  11.312 -0.3310 -0.0563 -0.0294
  308loPI   PO4 4916  15.672   9.417  10.673  0.1418  0.2520  0.3463
  308loPI   GL1 4917  15.962   9.402  10.346  0.2036 -0.2161 -0.0562
  308loPI   GL2 4918  16.126   9.230  10.347 -0.0462 -0.1533 -0.2348
  308loPI   C1A 4919  15.834   9.554   9.902 -0.0214  0.0161  0.2020
  308loPI   C2A 4920  15.783   9.417   9.459  0.1631  0.3564 -0.1268
  308loPI   C3A 4921  15.767   9.194   8.987 -0.0277  0.0450  0.1859
  308loPI   C4A 4922  15.763   9.393   8.593 -0.0506 -0.1091  0.0732
  308loPI   C5A 4923  15.756   9.773   8.333  0.1652 -0.2546  0.1257
  308loPI   C6A 4924  15.910  10.125   8.085 -0.3059 -0.3494 -0.1940
  308loPI   C1B 4925  16.258   9.173   9.886  0.0810  0.0362 -0.3046
  308loPI   C2B 4926  16.197   9.124   9.442 -0.0126  0.4757 -0.1163
  308loPI   C3B 4927  16.308   9.012   9.055  0.2702  0.1274  0.0001
  308loPI   C4B 4928  16.233   9.102   8.581  0.4238 -0.0473 -0.5283
  309loPI    C1 4929  17.619   6.115  11.307 -0.0087 -0.0787 -0.0125
  309loPI    C2 4930  17.659   6.409  11.576 -0.1720 -0.0364 -0.0335
  309loPI    C3 4931  17.637   6.028  11.697 -0.0172 -0.0363 -0.0026
  309loPI   PO4 4932  17.794   6.281  11.092 -0.0125 -0.0040  0.0358
  309loPI   GL1 4933  17.919   6.274  10.652 -0.0420  0.1024 -0.1456
  309loPI   GL2 4934  17.650   6.214  10.520  0.0266 -0.3115  0.3190
  309loPI   C1A 4935  17.894   6.464  10.175 -0.0877  0.3338  0.0450
  309loPI   C2A 4936  17.927   6.374   9.742 -0.0506  0.0053 -0.1313
  309loPI   C3A 4937  17.908   6.351   9.364  0.7004  0.1460  0.1887
  309loPI   C4A 4938  18.008   6.397   8.893  0.1664 -0.1993 -0.4102
  309loPI   C5A 4939  18.144   6.404   8.438  0.1763 -0.0976 -0.0661
  309loPI   C6A 4940  18.163   6.330   8.000 -0.1108  0.0076  0.1295
  309loPI   C1B 4941  17.499   6.207  10.051  0.0379 -0.1223  0.0807
  309loPI   C2B 4942  17.463   6.190   9.599  0.2292  0.2626 -0.1237
  309loPI   C3B 4943  17.497   6.036   9.112  0.2098  0.2547  0.0380
  309loPI   C4B 4944  17.564   6.175   8.599 -0.0634 -0.3229 -0.0271
  310loPI    C1 4945   4.503   3.115  10.934 -0.1630  0.0902 -0.0076
  310loPI    C2 4946   4.619   3.487  10.844  0.0104  0.1036  0.2595
  310loPI    C3 4947   4.283   3.338  10.686  0.0735  0.2811 -0.0496
  310loPI   PO4 4948   4.670   3.017  10.927 -0.1283 -0.0394 -0.0598
  310loPI   GL1 4949   4.755   2.926  10.476 -0.1206  0.0600  0.0117
  310loPI   GL2 4950   4.484   2.932  10.461  0.2261  0.2030  0.1412
  310loPI   C1A 4951   4.880   2.848  10.170 -0.0752 -0.0158 -0.1039
  310loPI   C2A 4952   4.785   2.809   9.790 -0.0184 -0.2895  0.0560
  310loPI   C3A 4953   4.931   2.860   9.320 -0.3328 -0.0562  0.1034
  310loPI   C4A 4954   4.811   2.826   8.890 -0.3794  0.1048 -0.0163
  310loPI   C5A 4955   4.929   3.026   8.488 -0.2836 -0.0134 -0.0290
  310loPI   C6A 4956   4.646   3.166   8.209 -0.1494 -0.1958  0.1715
  310loPI   C1B 4957   4.286   3.153  10.031 -0.2334 -0.1029 -0.0593
  310loPI   C2B 4958   4.370   3.157   9.588  0.1014 -0.4043 -0.0387
  310loPI   C3B 4959   4.405   3.109   9.135  0.1559 -0.0246  0.1668
  310loPI   C4B 4960   4.462   3.251   8.652 -0.0090 -0.1104 -0.0150
  311loPI    C1 4961  11.910   9.096  10.898 -0.2083  0.1758  0.1527
  311loPI    C2 4962  12.079   9.204  11.244 -0.2559 -0.1604  0.2852
  311loPI    C3 4963  11.774   8.945  11.243 -0.2742 -0.1405 -0.0080
  311loPI   PO4 4964  11.957   9.348  10.727  0.5159 -0.0605 -0.0786
  311loPI   GL1 4965  11.905   9.414  10.373 -0.3305  0.0397  0.2175
  311loPI   GL2 4966  12.070   9.510  10.059  0.0240 -0.0384 -0.2943
  311loPI   C1A 4967  11.721   9.127  10.104 -0.0701 -0.1546 -0.0715
  311loPI   C2A 4968  11.722   9.104   9.633 -0.1370  0.0917  0.1209
  311loPI   C3A 4969  11.707   9.147   9.183 -0.3850 -0.0788  0.0044
  311loPI   C4A 4970  11.795   9.122   8.804 -0.1720  0.0006 -0.2775
  311loPI   C5A 4971  11.620   9.068   8.406 -0.1605  0.4662  0.2452
  311loPI   C6A 4972  11.426   8.843   8.194  0.1439  0.0267  0.2238
  311loPI   C1B 4973  12.150   9.381   9.731  0.0737 -0.0611  0.1655
  311loPI   C2B 4974  12.216   9.348   9.328  0.1611  0.2901 -0.1473
  311loPI   C3B 4975  12.271   9.396   8.885 -0.0057  0.0664 -0.3089
  311loPI   C4B 4976  12.276   9.477   8.452  0.0551  0.0758 -0.0695
  312loPI    C1 4977   4.678   1.126  10.876 -0.1277  0.1646 -0.0402
  312loPI    C2 4978   4.453   1.262  11.177 -0.1927  0.1378 -0.0764
  312loPI    C3 4979   4.557   0.876  11.164 -0.0659  0.1688 -0.0102
  312loPI   PO4 4980   4.609   1.337  10.706 -0.2564  0.0375  0.2729
  312loPI   GL1 4981   4.553   1.273  10.342 -0.0237  0.0148  0.2835
  312loPI   GL2 4982   4.443   0.987  10.211  0.0861 -0.0509 -0.0644
  312loPI   C1A 4983   4.373   1.527  10.019 -0.0561  0.3545 -0.0419
  312loPI   C2A 4984   4.295   1.642   9.557  0.0320  0.1794 -0.0747
  312loPI   C3A 4985   4.401   1.634   9.194  0.2504 -0.1083 -0.1257
  312loPI   C4A 4986   4.195   1.624   8.868  0.0733  0.1367  0.0522
  312loPI   C5A 4987   4.163   1.740   8.492 -0.2202 -0.1797 -0.0775
  312loPI   C6A 4988   4.270   1.832   8.145  0.0889  0.0222 -0.0905
  312loPI   C1B 4989   4.339   1.031   9.816 -0.1093 -0.1416  0.1241
  312loPI   C2B 4990   4.222   1.111   9.346  0.1884  0.0126  0.0124
  312loPI   C3B 4991   4.201   1.092   8.961  0.1645 -0.0516 -0.2704
  312loPI   C4B 4992   4.301   1.266   8.573 -0.2871 -0.1727  0.0334
  313loPI    C1 4993  15.142   8.805  10.796 -0.0312  0.1310 -0.2531
  313loPI    C2 4994  15.109   8.914  11.179  0.3545 -0.2360 -0.1086
  313loPI    C3 4995  14.806   8.727  10.998  0.1350  0.0226 -0.0145
  313loPI   PO4 4996  15.472   8.901  10.829 -0.0917 -0.0118  0.2400
  313loPI   GL1 4997  15.671   8.949  10.465  0.0529  0.0022  0.0357
  313loPI   GL2 4998  15.647   8.698  10.228  0.1399 -0.1779 -0.3626
  313loPI   C1A 4999  15.560   9.175  10.071 -0.2848  0.0804 -0.0775
  313loPI   C2A 5000  15.415   9.200   9.711 -0.3560 -0.1454 -0.0144
  313loPI   C3A 5001  15.358   9.099   9.259 -0.1003 -0.2377  0.2067
  313loPI   C4A 5002  15.312   9.122   8.781 -0.2103  0.0461 -0.2255
  313loPI   C5A 5003  15.401   9.147   8.346  0.0881 -0.1292 -0.1270
  313loPI   C6A 5004  15.461   8.886   8.033 -0.1194  0.0380 -0.0607
  313loPI   C1B 5005  15.766   8.841   9.730 -0.1322 -0.1859 -0.1089
  313loPI   C2B 5006  15.809   8.795   9.318 -0.1090  0.1461  0.0574
  313loPI   C3B 5007  15.913   8.727   8.888  0.0724 -0.0426  0.1279
  313loPI   C4B 5008  15.772   8.841   8.497  0.3577  0.1538 -0.2231
  314loPI    C1 5009   1.716  14.005  10.321 -0.1279 -0.1010 -0.1417
  314loPI    C2 5010   1.333  13.901  10.371 -0.1166  0.0327  0.2518
  314loPI    C3 5011   1.609  13.782  10.635  0.1204 -0.0813 -0.0410
  314loPI   PO4 5012   1.640  14.241  10.190 -0.1910  0.0281  0.0545
  314loPI   GL1 5013   1.870  14.557  10.011  0.1852 -0.1764  0.1494
  314loPI   GL2 5014   1.565  14.688  10.036  0.0989 -0.0023 -0.3618
  314loPI   C1A 5015   1.866  14.689   9.576 -0.0980 -0.2923  0.1296
  314loPI   C2A 5016   1.872  14.638   9.125  0.1783 -0.0485  0.2210
  314loPI   C3A 5017   1.844  14.584   8.685 -0.1568 -0.0788 -0.0720
  314loPI   C4A 5018   1.956  14.698   8.299  0.0398  0.1194 -0.3111
  314loPI   C5A 5019   1.848  14.842   7.889  0.0849  0.0446  0.1877
  314loPI   C6A 5020   1.689  15.133   7.540  0.3443  0.0969 -0.1649
  314loPI   C1B 5021   1.437  14.885   9.675 -0.2228 -0.1326 -0.0262
  314loPI   C2B 5022   1.461  14.952   9.264  0.1638 -0.0793  0.0011
  314loPI   C3B 5023   1.354  15.080   8.899  0.1183 -0.0402 -0.0700
  314loPI   C4B 5024   1.411  14.927   8.414 -0.5159 -0.2083 -0.5845
  315loPI    C1 5025  11.406   5.753  11.348  0.1482  0.1319 -0.0783
  315loPI    C2 5026  11.676   5.641  11.622  0.0293 -0.0434 -0.0314
  315loPI    C3 5027  11.347   5.839  11.734 -0.1247 -0.3030 -0.0171
  315loPI   PO4 5028  11.369   5.495  11.126  0.0100 -0.2400 -0.1979
  315loPI   GL1 5029  11.361   5.474  10.670 -0.1773  0.2948  0.0503
  315loPI   GL2 5030  11.274   5.775  10.594 -0.0855  0.0731  0.0779
  315loPI   C1A 5031  11.584   5.138  10.541 -0.2611  0.1035  0.0708
  315loPI   C2A 5032  11.685   4.890  10.124 -0.1580 -0.0075 -0.0037
  315loPI   C3A 5033  11.702   4.950   9.679 -0.0992 -0.2332  0.1036
  315loPI   C4A 5034  11.724   5.074   9.212  0.4259  0.2269 -0.2877
  315loPI   C5A 5035  11.780   5.091   8.658 -0.2654 -0.2153  0.2853
  315loPI   C6A 5036  11.652   5.265   8.334 -0.0899 -0.0721  0.1553
  315loPI   C1B 5037  11.283   5.771  10.219  0.3658  0.1599  0.4568
  315loPI   C2B 5038  11.287   5.759   9.699 -0.1811  0.0222 -0.1141
  315loPI   C3B 5039  11.287   5.808   9.315 -0.1392 -0.0947  0.0572
  315loPI   C4B 5040  11.269   5.832   8.843  0.0523  0.0314 -0.0742
  316loPI    C1 5041  12.717   7.823  11.219  0.1230  0.0137  0.1003
  316loPI    C2 5042  12.968   7.977  10.948  0.0588  0.0382  0.0547
  316loPI    C3 5043  12.991   8.092  11.330 -0.0122  0.1890  0.0144
  316loPI   PO4 5044  12.448   7.860  11.052  0.1806  0.1432 -0.0900
  316loPI   GL1 5045  12.247   7.656  10.719 -0.1868 -0.1766 -0.0377
  316loPI   GL2 5046  12.196   7.410  10.722  0.2446  0.1243  0.0500
  316loPI   C1A 5047  12.175   7.979  10.298  0.3735  0.0772 -0.2789
  316loPI   C2A 5048  12.129   7.906   9.933  0.2596 -0.0066  0.3415
  316loPI   C3A 5049  12.103   7.816   9.405  0.3237 -0.0676 -0.0159
  316loPI   C4A 5050  12.132   7.873   9.017  0.3490  0.0509 -0.1689
  316loPI   C5A 5051  12.144   7.848   8.583  0.1352  0.0011 -0.0519
  316loPI   C6A 5052  11.987   7.650   8.235  0.1572  0.0152  0.0740
  316loPI   C1B 5053  12.153   7.425  10.289  0.0522  0.0540  0.1122
  316loPI   C2B 5054  12.117   7.281   9.855  0.0577  0.0114  0.1394
  316loPI   C3B 5055  12.137   7.292   9.472 -0.1126  0.0653  0.0063
  316loPI   C4B 5056  12.124   7.382   9.094  0.1084 -0.1040 -0.0046
  317loPI    C1 5057  13.943  13.729  10.942 -0.2361 -0.0802  0.0377
  317loPI    C2 5058  13.916  13.668  11.337  0.1656 -0.2885  0.0374
  317loPI    C3 5059  14.275  13.687  11.161 -0.0038  0.0198 -0.2883
  317loPI   PO4 5060  13.738  13.797  10.859  0.0662  0.0935 -0.0780
  317loPI   GL1 5061  13.600  14.030  10.580 -0.0141 -0.0618  0.1396
  317loPI   GL2 5062  13.296  14.077  10.564  0.4175  0.0302  0.1527
  317loPI   C1A 5063  13.591  13.812  10.147 -0.1543  0.3506  0.1398
  317loPI   C2A 5064  13.565  13.777   9.595  0.5863 -0.1149  0.1359
  317loPI   C3A 5065  13.571  13.836   9.184  0.1318 -0.1338 -0.3325
  317loPI   C4A 5066  13.563  13.720   8.780  0.0345 -0.0499 -0.0784
  317loPI   C5A 5067  13.502  13.607   8.440 -0.1599 -0.1820 -0.1586
  317loPI   C6A 5068  13.183  13.631   8.172  0.0682 -0.1715 -0.0578
  317loPI   C1B 5069  13.197  14.129  10.231  0.1373 -0.3502 -0.2569
  317loPI   C2B 5070  13.269  14.087   9.874  0.4141 -0.1067  0.0240
  317loPI   C3B 5071  13.201  14.115   9.386 -0.6033  0.0691 -0.2134
  317loPI   C4B 5072  13.194  14.119   8.892  0.1083 -0.1702 -0.0640
  318loPI    C1 5073  15.853   9.895  10.943 -0.0152 -0.1461 -0.0009
  318loPI    C2 5074  15.982  10.193  11.177 -0.1125 -0.0011 -0.1296
  318loPI    C3 5075  15.931   9.826  11.329  0.1841  0.0036 -0.0131
  318loPI   PO4 5076  15.899   9.935  10.633  0.2204  0.2140 -0.0595
  318loPI   GL1 5077  15.551   9.841  10.339 -0.0956  0.0229  0.0910
  318loPI   GL2 5078  15.309  10.131  10.278  0.1216  0.0481 -0.2440
  318loPI   C1A 5079  15.266   9.745   9.952 -0.3560 -0.2665  0.0205
  318loPI   C2A 5080  15.246   9.627   9.531 -0.1875 -0.1044  0.0217
  318loPI   C3A 5081  15.302   9.614   9.145 -0.0794 -0.1125 -0.1967
  318loPI   C4A 5082  15.238   9.669   8.741  0.3139  0.3025 -0.0609
  318loPI   C5A 5083  15.231   9.617   8.315  0.0078  0.1346  0.0535
  318loPI   C6A 5084  15.107   9.278   7.945 -0.0939 -0.0982 -0.2249
  318loPI   C1B 5085  15.278  10.265   9.816  0.2084 -0.2769  0.1811
  318loPI   C2B 5086  15.245  10.186   9.392 -0.0946  0.5250  0.1067
  318loPI   C3B 5087  15.313  10.128   8.995 -0.0197  0.1788 -0.2228
  318loPI   C4B 5088  15.426  10.110   8.533 -0.3144  0.2282 -0.2153
  319loPI    C1 5089  13.227   0.717  10.974  0.1226 -0.2039 -0.2084
  319loPI    C2 5090  13.024   0.572  11.287 -0.2617  0.3738 -0.1740
  319loPI    C3 5091  13.422   0.609  11.306 -0.2191 -0.1146  0.0272
  319loPI   PO4 5092  13.100   0.667  10.800 -0.0396 -0.1604 -0.1989
  319loPI   GL1 5093  13.142   0.743  10.409  0.5022  0.1064  0.1859
  319loPI   GL2 5094  12.865   1.002  10.500 -0.0340  0.3458 -0.3550
  319loPI   C1A 5095  13.279   0.759   9.932  0.0571  0.0814  0.0196
  319loPI   C2A 5096  13.325   0.777   9.468  0.2250  0.0038 -0.0195
  319loPI   C3A 5097  13.269   0.871   9.038  0.0131  0.2065  0.1457
  319loPI   C4A 5098  13.083   0.880   8.483  0.1122  0.0010 -0.0424
  319loPI   C5A 5099  12.758   0.737   8.156  0.0521  0.1833  0.0002
  319loPI   C6A 5100  12.483   0.424   8.087  0.1594  0.0427  0.3921
  319loPI   C1B 5101  12.870   1.088  10.131 -0.1641  0.0424 -0.1133
  319loPI   C2B 5102  12.908   1.157   9.646  0.0884  0.2405  0.0526
  319loPI   C3B 5103  12.890   1.245   9.252  0.2806  0.0441  0.0122
  319loPI   C4B 5104  12.864   1.188   8.876 -0.1084  0.0724  0.0117
  320loPI    C1 5105   1.470   6.874  10.507  0.2963 -0.2059 -0.0681
  320loPI    C2 5106   1.633   6.983  10.856  0.1982 -0.2990  0.0076
  320loPI    C3 5107   1.529   6.602  10.794 -0.2487 -0.1924  0.0688
  320loPI   PO4 5108   1.273   7.002  10.477  0.1042 -0.2945 -0.0474
  320loPI   GL1 5109   1.090   7.204  10.172 -0.1747 -0.3397  0.1984
  320loPI   GL2 5110   1.016   7.512  10.055  0.2052 -0.0895  0.0948
  320loPI   C1A 5111   1.302   7.234   9.800  0.0504 -0.3252  0.0697
  320loPI   C2A 5112   1.329   7.318   9.347  0.0408  0.0097 -0.0988
  320loPI   C3A 5113   1.309   7.256   8.787 -0.0258  0.1441 -0.2106
  320loPI   C4A 5114   1.248   7.285   8.389 -0.2497 -0.2133 -0.1056
  320loPI   C5A 5115   1.029   7.566   8.005 -0.1372 -0.1674  0.0836
  320loPI   C6A 5116   1.303   7.736   7.709 -0.1245  0.0087 -0.2409
  320loPI   C1B 5117   0.817   7.392   9.690 -0.1262 -0.3649  0.0773
  320loPI   C2B 5118   0.869   7.438   9.186 -0.3050 -0.3364 -0.0902
  320loPI   C3B 5119   0.886   7.442   8.781  0.1190  0.2508  0.1979
  320loPI   C4B 5120   0.684   7.555   8.366  0.3686  0.0953 -0.3243
  321loPI    C1 5121   1.188   3.433  11.033 -0.1447 -0.1191 -0.2139
  321loPI    C2 5122   1.479   3.681  11.150 -0.3223 -0.1029  0.2101
  321loPI    C3 5123   1.568   3.357  10.933 -0.0318  0.0749  0.0579
  321loPI   PO4 5124   1.016   3.565  10.866 -0.3376 -0.1098 -0.1087
  321loPI   GL1 5125   0.940   3.579  10.492 -0.0982 -0.0952 -0.2410
  321loPI   GL2 5126   0.773   3.408  10.229 -0.1558  0.1058 -0.1226
  321loPI   C1A 5127   1.210   3.609  10.075  0.1553  0.0643  0.2624
  321loPI   C2A 5128   1.300   3.556   9.643 -0.2025 -0.0499 -0.2698
  321loPI   C3A 5129   1.185   3.528   9.249 -0.1607 -0.0166 -0.3106
  321loPI   C4A 5130   1.191   3.422   8.869  0.2227 -0.1870  0.0050
  321loPI   C5A 5131   1.337   3.227   8.545  0.0378  0.1652 -0.1162
  321loPI   C6A 5132   1.646   2.950   8.362  0.0878  0.3179  0.2239
  321loPI   C1B 5133   0.761   3.242   9.856 -0.0457 -0.1947 -0.4283
  321loPI   C2B 5134   0.711   3.302   9.470  0.0904 -0.2049 -0.0742
  321loPI   C3B 5135   0.794   3.191   9.026 -0.1144 -0.0640 -0.0804
  321loPI   C4B 5136   0.841   3.159   8.559 -0.0059 -0.0604 -0.0939
  322loPI    C1 5137   6.571   6.483  11.343  0.0977  0.0158 -0.1333
  322loPI    C2 5138   6.828   6.617  11.618  0.1105 -0.0834 -0.0966
  322loPI    C3 5139   6.435   6.626  11.691  0.1174 -0.1739 -0.0462
  322loPI   PO4 5140   6.736   6.583  11.071  0.1876  0.1605 -0.1560
  322loPI   GL1 5141   6.520   6.872  10.797  0.0783 -0.1792 -0.1128
  322loPI   GL2 5142   6.348   6.718  10.626  0.1514  0.1725 -0.0509
  322loPI   C1A 5143   6.734   7.019  10.471  0.0162  0.0186 -0.0267
  322loPI   C2A 5144   6.743   6.958  10.008  0.2614  0.0492 -0.0692
  322loPI   C3A 5145   6.814   6.970   9.627 -0.1360 -0.0523  0.4075
  322loPI   C4A 5146   6.800   6.990   9.099 -0.1144 -0.1797 -0.1427
  322loPI   C5A 5147   6.787   6.991   8.602  0.0875  0.2382 -0.0068
  322loPI   C6A 5148   6.813   7.099   8.175 -0.0627  0.0711 -0.0729
  322loPI   C1B 5149   6.594   6.516  10.246  0.1121  0.0307  0.0945
  322loPI   C2B 5150   6.727   6.413   9.813 -0.0858 -0.1181 -0.1053
  322loPI   C3B 5151   6.836   6.504   9.383  0.0498  0.2651 -0.0284
  322loPI   C4B 5152   6.860   6.503   8.937  0.0121 -0.1056  0.1082
  323loPI    C1 5153  15.897  14.795  10.874  0.2388  0.1693 -0.0566
  323loPI    C2 5154  16.163  14.542  11.033  0.1051  0.0504 -0.0211
  323loPI    C3 5155  16.152  14.923  11.155  0.2857  0.0663 -0.0520
  323loPI   PO4 5156  15.878  14.725  10.620 -0.0234 -0.2079 -0.0617
  323loPI   GL1 5157  15.636  14.880  10.235  0.0862 -0.4535 -0.0567
  323loPI   GL2 5158  16.097  14.951  10.192 -0.1595 -0.1793  0.0883
  323loPI   C1A 5159  15.724  14.914   9.824  0.0135  0.2177 -0.2754
  323loPI   C2A 5160  15.739  14.986   9.359  0.0288 -0.1720  0.1012
  323loPI   C3A 5161  15.701  14.910   8.934 -0.0912  0.1162 -0.4155
  323loPI   C4A 5162  15.814  15.029   8.605  0.1717  0.1266  0.2382
  323loPI   C5A 5163  15.905  14.810   8.231  0.1601  0.4298 -0.1817
  323loPI   C6A 5164  16.290  14.751   7.968 -0.0894 -0.3726 -0.1079
  323loPI   C1B 5165  16.331  15.096   9.794  0.1260  0.1567 -0.1496
  323loPI   C2B 5166  16.203  15.181   9.305  0.0881 -0.2792 -0.0241
  323loPI   C3B 5167  16.244  15.151   8.844 -0.2969 -0.0863  0.2999
  323loPI   C4B 5168  16.260  15.151   8.362 -0.1535 -0.2309  0.0704
  324loPI    C1 5169   4.645  12.374  10.434  0.2313 -0.0474  0.0955
  324loPI    C2 5170   4.553  12.732  10.585  0.0649 -0.0266 -0.0530
  324loPI    C3 5171   4.527  12.406  10.814  0.1438  0.0465  0.0607
  324loPI   PO4 5172   4.560  12.350  10.240  0.0549 -0.1029  0.1603
  324loPI   GL1 5173   4.466  12.123   9.863 -0.0422 -0.1065 -0.2090
  324loPI   GL2 5174   4.163  12.115   9.661  0.0642 -0.1466  0.1186
  324loPI   C1A 5175   4.728  12.200   9.600 -0.1349  0.0465 -0.0598
  324loPI   C2A 5176   4.775  12.281   9.243 -0.0265  0.0578  0.1535
  324loPI   C3A 5177   4.679  12.149   8.785 -0.0769  0.0379  0.3437
  324loPI   C4A 5178   4.731  12.309   8.404 -0.0347  0.1655 -0.0121
  324loPI   C5A 5179   4.984  12.276   7.948 -0.1188  0.1147 -0.3916
  324loPI   C6A 5180   5.409  12.433   7.845 -0.0019 -0.0623 -0.1829
  324loPI   C1B 5181   4.274  12.045   9.307  0.1535  0.0586 -0.5105
  324loPI   C2B 5182   4.251  11.933   8.960 -0.2306  0.3066  0.2711
  324loPI   C3B 5183   4.283  12.081   8.515  0.3799 -0.1109 -0.3008
  324loPI   C4B 5184   4.235  12.281   8.106 -0.0364 -0.0550  0.1461
  325loPI    C1 5185  16.270   8.710  10.867  0.0122 -0.2526  0.0722
  325loPI    C2 5186  16.008   8.996  10.770  0.3489  0.0216 -0.0522
  325loPI    C3 5187  16.036   8.871  11.148 -0.1575 -0.2199 -0.0855
  325loPI   PO4 5188  16.283   8.546  10.629 -0.0889  0.1790  0.1373
  325loPI   GL1 5189  16.225   8.283  10.316  0.3753 -0.1607 -0.1126
  325loPI   GL2 5190  16.153   8.592  10.148  0.1908 -0.2733  0.1232
  325loPI   C1A 5191  16.233   8.083   9.937  0.2023  0.0033 -0.0459
  325loPI   C2A 5192  16.194   8.033   9.536  0.0310  0.1027 -0.2302
  325loPI   C3A 5193  16.265   7.940   9.150  0.1403  0.0067 -0.2285
  325loPI   C4A 5194  16.207   7.955   8.689  0.0545  0.0829  0.2649
  325loPI   C5A 5195  16.022   8.112   8.349 -0.0530  0.2836  0.1094
  325loPI   C6A 5196  15.680   7.943   8.041  0.1210 -0.1632  0.2006
  325loPI   C1B 5197  16.205   8.634   9.651  0.0276  0.0377 -0.0708
  325loPI   C2B 5198  16.209   8.446   9.281 -0.0486  0.2187 -0.4129
  325loPI   C3B 5199  16.314   8.402   8.823 -0.1055 -0.0108 -0.0381
  325loPI   C4B 5200  16.200   8.579   8.482  0.1232 -0.1645 -0.3420
  326loPI    C1 5201   8.452  15.693  10.797  0.2550  0.0491 -0.0912
  326loPI    C2 5202   8.627  15.814  11.136 -0.1578 -0.0178  0.1527
  326loPI    C3 5203   8.795  15.524  10.917  0.0043 -0.1238  0.4122
  326loPI   PO4 5204   8.386  15.842  10.609  0.0429 -0.0865 -0.1238
  326loPI   GL1 5205   8.561  15.956  10.282 -0.0284 -0.1827  0.6054
  326loPI   GL2 5206   8.579  16.135  10.125 -0.3747  0.1279 -0.2030
  326loPI   C1A 5207   8.875  15.807   9.953  0.1562 -0.1224  0.2142
  326loPI   C2A 5208   8.845  15.813   9.555  0.1939 -0.3369 -0.2020
  326loPI   C3A 5209   8.989  15.876   9.184  0.1728  0.2166 -0.0480
  326loPI   C4A 5210   8.945  15.967   8.671 -0.1265  0.0808  0.0435
  326loPI   C5A 5211   8.806  16.238   8.426 -0.1310 -0.0121 -0.0274
  326loPI   C6A 5212   8.868  16.275   7.999 -0.1424 -0.0715  0.0145
  326loPI   C1B 5213   8.430  16.152   9.668 -0.2807  0.1593  0.2863
  326loPI   C2B 5214   8.488  16.062   9.230 -0.0805  0.0626  0.1783
  326loPI   C3B 5215   8.442  16.140   8.764 -0.0623 -0.1819 -0.0567
  326loPI   C4B 5216   8.356  16.113   8.215  0.1515 -0.1844 -0.0833
  327loPI    C1 5217  17.097  11.728  10.403  0.2486  0.0755  0.0792
  327loPI    C2 5218  17.202  11.748  10.789  0.1833  0.0897  0.0965
  327loPI    C3 5219  16.820  11.681  10.689  0.2123  0.0163  0.0345
  327loPI   PO4 5220  17.308  11.625  10.323  0.2992 -0.3614 -0.0742
  327loPI   GL1 5221  17.425  11.486   9.923 -0.0969 -0.2881 -0.0927
  327loPI   GL2 5222  17.180  11.688   9.818 -0.1204 -0.1274  0.1317
  327loPI   C1A 5223  17.575  11.377   9.522  0.0787 -0.3985  0.0858
  327loPI   C2A 5224  17.533  11.377   9.123  0.5245  0.1294  0.0988
  327loPI   C3A 5225  17.678  11.346   8.745  0.0441 -0.2603  0.3893
  327loPI   C4A 5226  17.507  11.167   8.348  0.1822 -0.1261 -0.1112
  327loPI   C5A 5227  17.717  11.055   8.021 -0.1876  0.0173  0.2432
  327loPI   C6A 5228  18.194  10.840   7.947 -0.0147  0.1650  0.1453
  327loPI   C1B 5229  17.117  11.583   9.393  0.0203  0.0125 -0.0709
  327loPI   C2B 5230  16.877  11.411   9.084 -0.1319 -0.0752 -0.0344
  327loPI   C3B 5231  16.783  11.304   8.699 -0.1991  0.1001  0.1121
  327loPI   C4B 5232  16.543  10.998   8.344 -0.0198  0.0153  0.0310
  328loPI    C1 5233  17.724  16.395  11.105 -0.3027 -0.1808 -0.2100
  328loPI    C2 5234  17.731  15.995  11.101  0.4122 -0.1837  0.0133
  328loPI    C3 5235  17.737  16.192  11.449 -0.3417  0.0332 -0.0802
  328loPI   PO4 5236  17.582  16.432  10.910  0.0856 -0.1297 -0.2925
  328loPI   GL1 5237  17.495  16.292  10.480  0.2079  0.1320 -0.0217
  328loPI   GL2 5238  17.592  16.019  10.563 -0.1667  0.0220  0.2727
  328loPI   C1A 5239  17.481  16.606  10.092 -0.2365  0.0649  0.0850
  328loPI   C2A 5240  17.488  16.608   9.700 -0.3820 -0.6054 -0.2661
  328loPI   C3A 5241  17.457  16.548   9.239 -0.1901 -0.4489  0.0244
  328loPI   C4A 5242  17.315  16.481   8.865  0.1026 -0.1927  0.1713
  328loPI   C5A 5243  17.333  16.625   8.492  0.0934  0.1211 -0.3641
  328loPI   C6A 5244  17.401  16.482   8.053 -0.0834  0.0384  0.0310
  328loPI   C1B 5245  17.831  16.230  10.158  0.1090 -0.2457  0.1109
  328loPI   C2B 5246  17.797  16.231   9.695 -0.4732  0.1079  0.1044
  328loPI   C3B 5247  17.783  16.174   9.140  0.2433 -0.4109 -0.0107
  328loPI   C4B 5248  17.726  16.245   8.700  0.0888  0.1815 -0.1836
  329loPI    C1 5249  15.317  13.495  10.870  0.2476 -0.0618  0.0809
  329loPI    C2 5250  15.197  13.876  10.893  0.0522 -0.1051 -0.1761
  329loPI    C3 5251  15.201  13.648  11.221  0.2153  0.1293 -0.0114
  329loPI   PO4 5252  15.457  13.518  10.778  0.3456  0.0107  0.1933
  329loPI   GL1 5253  15.676  13.814  10.495 -0.2962 -0.0330  0.1264
  329loPI   GL2 5254  15.804  13.603  10.358 -0.0167 -0.0725 -0.2572
  329loPI   C1A 5255  15.512  13.925  10.047 -0.1732 -0.1501 -0.0344
  329loPI   C2A 5256  15.477  13.983   9.605 -0.1393  0.1413 -0.1479
  329loPI   C3A 5257  15.549  13.971   9.149 -0.1457 -0.1937 -0.0058
  329loPI   C4A 5258  15.475  14.076   8.630  0.4423 -0.0031  0.0233
  329loPI   C5A 5259  15.590  13.849   8.227  0.2828 -0.0687  0.3313
  329loPI   C6A 5260  15.946  13.812   7.961  0.1234 -0.5729 -0.2041
  329loPI   C1B 5261  15.891  13.631   9.964  0.0651  0.0011 -0.1146
  329loPI   C2B 5262  15.895  13.638   9.528 -0.1299 -0.1721  0.0535
  329loPI   C3B 5263  15.915  13.672   9.132 -0.1902  0.0661  0.0162
  329loPI   C4B 5264  15.901  13.703   8.608 -0.2661  0.1121 -0.2181
  330loPI    C1 5265  10.444  15.823  11.105 -0.0226 -0.0048  0.0047
  330loPI    C2 5266  10.381  16.164  11.304  0.1795 -0.0589  0.1646
  330loPI    C3 5267  10.305  15.813  11.480  0.0242 -0.0994  0.0196
  330loPI   PO4 5268  10.365  15.866  10.901  0.2291 -0.1342 -0.2146
  330loPI   GL1 5269  10.224  15.815  10.346 -0.0036 -0.1488 -0.2437
  330loPI   GL2 5270  10.279  16.226  10.237 -0.2872  0.1908  0.0801
  330loPI   C1A 5271  10.372  15.751   9.941 -0.2322 -0.1963  0.4521
  330loPI   C2A 5272  10.278  15.967   9.558 -0.1875  0.1893 -0.2059
  330loPI   C3A 5273  10.413  15.897   9.205 -0.0829 -0.1337 -0.1830
  330loPI   C4A 5274  10.486  15.910   8.732  0.0558  0.1534  0.1204
  330loPI   C5A 5275  10.831  16.062   8.432  0.1220  0.2227 -0.0305
  330loPI   C6A 5276  10.791  16.325   8.108  0.2709 -0.1685 -0.1760
  330loPI   C1B 5277  10.345  16.378   9.851 -0.2023 -0.0990 -0.0350
  330loPI   C2B 5278  10.469  16.454   9.476  0.2154  0.1085 -0.0087
  330loPI   C3B 5279  10.441  16.386   9.061  0.0211  0.1227 -0.0454
  330loPI   C4B 5280  10.592  16.461   8.606  0.2821  0.0590  0.0915
  331loPI    C1 5281  17.831  17.424  11.223  0.0642  0.1495 -0.1189
  331loPI    C2 5282  18.011  17.138  11.437 -0.1104  0.0421 -0.1137
  331loPI    C3 5283  18.092  17.523  11.509 -0.0417  0.0014  0.0306
  331loPI   PO4 5284  17.865  17.376  10.994  0.1566  0.0671 -0.3891
  331loPI   GL1 5285  17.651  17.181  10.622 -0.1540  0.0637 -0.0163
  331loPI   GL2 5286  18.060  17.101  10.651 -0.1155  0.0951 -0.1889
  331loPI   C1A 5287  17.569  17.039  10.272 -0.0038 -0.3415  0.1222
  331loPI   C2A 5288  17.548  17.112   9.841  0.1228  0.2037 -0.1044
  331loPI   C3A 5289  17.526  17.014   9.377 -0.1304 -0.1174  0.0670
  331loPI   C4A 5290  17.426  16.944   8.979  0.1076  0.0941  0.0909
  331loPI   C5A 5291  17.540  17.100   8.649  0.0778 -0.2349  0.1020
  331loPI   C6A 5292  17.323  17.535   8.548  0.0814 -0.1411 -0.1083
  331loPI   C1B 5293  18.111  17.317  10.313  0.1430 -0.0211 -0.0365
  331loPI   C2B 5294  18.105  17.289   9.934  0.2156  0.1503  0.0462
  331loPI   C3B 5295  17.957  17.266   9.453 -0.1715 -0.0308 -0.1325
  331loPI   C4B 5296  17.971  17.208   9.006 -0.0022 -0.2880  0.0185
  332loPI    C1 5297  11.270   4.088  10.971  0.0280  0.0736  0.0531
  332loPI    C2 5298  11.195   3.725  11.121 -0.0483  0.0514 -0.0378
  332loPI    C3 5299  11.000   4.044  11.263  0.1973  0.0937  0.2148
  332loPI   PO4 5300  11.205   4.106  10.752 -0.0166 -0.0796 -0.1843
  332loPI   GL1 5301  10.969   4.215  10.528  0.1676 -0.0184  0.0823
  332loPI   GL2 5302  10.776   3.939  10.317  0.0701 -0.0931  0.4138
  332loPI   C1A 5303  11.151   4.272  10.127 -0.2641  0.3453 -0.0223
  332loPI   C2A 5304  11.183   4.171   9.678  0.1128  0.3993  0.1956
  332loPI   C3A 5305  11.185   4.198   9.255 -0.2791 -0.2495 -0.1489
  332loPI   C4A 5306  11.213   4.273   8.805  0.1290 -0.0053  0.2582
  332loPI   C5A 5307  11.261   4.298   8.435 -0.0428 -0.2496 -0.0346
  332loPI   C6A 5308  11.439   3.947   8.242 -0.3716  0.0196 -0.1722
  332loPI   C1B 5309  10.746   3.919   9.935 -0.1375  0.3703 -0.0061
  332loPI   C2B 5310  10.777   3.968   9.444  0.1632  0.1093 -0.1589
  332loPI   C3B 5311  10.780   4.090   9.007  0.0558  0.1246  0.0769
  332loPI   C4B 5312  10.703   4.106   8.587 -0.3755  0.0674 -0.1758
  333loPI    C1 5313  13.648  16.405  10.973  0.1122  0.1273 -0.1611
  333loPI    C2 5314  13.986  16.325  10.776  0.1405  0.0350 -0.0757
  333loPI    C3 5315  13.987  16.340  11.176 -0.0110 -0.2320 -0.0631
  333loPI   PO4 5316  13.483  16.376  10.835 -0.0429  0.0098 -0.2396
  333loPI   GL1 5317  13.252  16.529  10.446 -0.3211  0.1900 -0.1556
  333loPI   GL2 5318  13.014  16.670  10.368 -0.1172  0.0738  0.1735
  333loPI   C1A 5319  13.272  16.502  10.002  0.0338  0.1856  0.2744
  333loPI   C2A 5320  13.158  16.423   9.567 -0.0440 -0.1173 -0.0709
  333loPI   C3A 5321  13.281  16.465   9.142 -0.1996 -0.0370 -0.2069
  333loPI   C4A 5322  13.287  16.540   8.691 -0.2520 -0.0157 -0.2946
  333loPI   C5A 5323  13.236  16.702   8.255  0.1212 -0.1248  0.0529
  333loPI   C6A 5324  13.326  17.028   7.984 -0.0894  0.3664  0.2175
  333loPI   C1B 5325  12.873  16.778   9.951  0.0596  0.2260 -0.1287
  333loPI   C2B 5326  12.852  16.857   9.491  0.1594  0.0824  0.0487
  333loPI   C3B 5327  12.909  16.815   9.036 -0.0800 -0.1136 -0.1100
  333loPI   C4B 5328  12.838  16.807   8.605  0.0489 -0.0260 -0.5212
  334loPI    C1 5329   3.854   5.952  11.310  0.2519 -0.0043  0.0574
  334loPI    C2 5330   3.722   5.586  11.399  0.0444  0.0831  0.1158
  334loPI    C3 5331   3.901   5.807  11.680  0.1056  0.0544  0.0996
  334loPI   PO4 5332   3.870   5.912  10.956 -0.1553  0.1744  0.4238
  334loPI   GL1 5333   3.809   5.820  10.534 -0.1751 -0.3241 -0.1087
  334loPI   GL2 5334   3.694   6.083  10.443 -0.0243 -0.1341 -0.1593
  334loPI   C1A 5335   3.957   5.547  10.108  0.2161 -0.1480 -0.3901
  334loPI   C2A 5336   3.983   5.550   9.685 -0.1616 -0.0884 -0.0103
  334loPI   C3A 5337   3.919   5.445   9.282 -0.0715 -0.3152  0.0394
  334loPI   C4A 5338   3.978   5.488   8.935  0.1742  0.3652  0.1382
  334loPI   C5A 5339   4.099   5.530   8.551 -0.1703 -0.1765 -0.0106
  334loPI   C6A 5340   3.930   5.436   8.033 -0.1638 -0.0382  0.0046
  334loPI   C1B 5341   3.514   5.872  10.004  0.1379 -0.0536  0.3620
  334loPI   C2B 5342   3.527   5.743   9.553  0.0777 -0.1301 -0.0856
  334loPI   C3B 5343   3.491   5.733   9.123 -0.1018  0.0698 -0.1093
  334loPI   C4B 5344   3.677   5.751   8.692 -0.1822 -0.0480  0.1384
  335loPI    C1 5345  15.141   7.854  11.153  0.1504 -0.1874 -0.0567
  335loPI    C2 5346  15.517   7.760  11.253  0.1729 -0.0279  0.0132
  335loPI    C3 5347  15.326   8.051  11.449 -0.0262 -0.1826  0.0519
  335loPI   PO4 5348  15.121   7.894  10.878 -0.1049  0.0835  0.1069
  335loPI   GL1 5349  15.143   7.699  10.379 -0.0603  0.1698  0.0272
  335loPI   GL2 5350  15.080   7.941  10.349 -0.1136  0.0870  0.1082
  335loPI   C1A 5351  15.325   7.514   9.983  0.1793  0.1662  0.1459
  335loPI   C2A 5352  15.280   7.547   9.521  0.0047  0.0730  0.0358
  335loPI   C3A 5353  15.322   7.435   9.102 -0.0118  0.2409 -0.1777
  335loPI   C4A 5354  15.316   7.463   8.720 -0.2294 -0.1050 -0.2507
  335loPI   C5A 5355  15.172   7.707   8.352  0.2517  0.0832  0.0731
  335loPI   C6A 5356  15.267   8.123   8.283  0.1152  0.2512 -0.1456
  335loPI   C1B 5357  15.295   7.979   9.928  0.2630 -0.2218  0.1621
  335loPI   C2B 5358  15.345   8.065   9.566 -0.3310 -0.3228 -0.0587
  335loPI   C3B 5359  15.375   8.076   9.207 -0.2643  0.3210 -0.3214
  335loPI   C4B 5360  15.325   8.002   8.823  0.2878  0.0265  0.3402
  336loPI    C1 5361  17.466  14.580  10.680  0.0283 -0.2171 -0.0721
  336loPI    C2 5362  17.523  14.960  10.569 -0.2596 -0.1821 -0.1085
  336loPI    C3 5363  17.820  14.694  10.532 -0.0262  0.0581  0.0055
  336loPI   PO4 5364  17.288  14.517  10.535 -0.1678  0.0124 -0.1529
  336loPI   GL1 5365  17.232  14.527  10.103  0.2372 -0.2351 -0.1525
  336loPI   GL2 5366  17.356  14.806  10.109 -0.1019  0.3258 -0.1729
  336loPI   C1A 5367  17.069  14.505   9.681  0.2563  0.0692  0.2125
  336loPI   C2A 5368  17.082  14.511   9.288  0.0394 -0.3250  0.0749
  336loPI   C3A 5369  17.103  14.460   8.800  0.0374 -0.0463  0.1042
  336loPI   C4A 5370  16.977  14.404   8.406 -0.0440  0.3025 -0.0087
  336loPI   C5A 5371  17.008  14.514   7.981  0.1049  0.1915 -0.0071
  336loPI   C6A 5372  17.288  14.709   7.716 -0.1210  0.0881  0.1106
  336loPI   C1B 5373  17.271  14.996   9.706  0.1317  0.2250  0.0330
  336loPI   C2B 5374  17.115  15.021   9.328 -0.1553 -0.0145 -0.2575
  336loPI   C3B 5375  17.127  14.947   8.882  0.0061 -0.3501  0.0894
  336loPI   C4B 5376  17.192  14.863   8.494 -0.0031 -0.0154 -0.3952
  337loPI    C1 5377   9.925   5.608  10.871 -0.1723 -0.1589 -0.1685
  337loPI    C2 5378  10.105   5.252  10.901 -0.2644 -0.1919  0.0097
  337loPI    C3 5379  10.033   5.468  11.230 -0.1502  0.0221 -0.1033
  337loPI   PO4 5380  10.021   5.736  10.699  0.0473  0.1000 -0.0763
  337loPI   GL1 5381  10.276   5.522  10.436 -0.0882 -0.0329 -0.1399
  337loPI   GL2 5382  10.144   5.238  10.360 -0.2482 -0.0985  0.2665
  337loPI   C1A 5383  10.417   5.732   9.995  0.2162  0.2457  0.1646
  337loPI   C2A 5384  10.414   5.873   9.513 -0.1046  0.0517  0.1760
  337loPI   C3A 5385  10.432   5.857   9.048  0.0922 -0.0354 -0.1128
  337loPI   C4A 5386  10.259   5.945   8.577  0.1700 -0.2468  0.2236
  337loPI   C5A 5387  10.268   6.354   8.333  0.0714  0.1168  0.0023
  337loPI   C6A 5388  10.333   6.613   7.991  0.1397 -0.2044 -0.2211
  337loPI   C1B 5389  10.267   5.173   9.913 -0.1405 -0.1660  0.1107
  337loPI   C2B 5390  10.421   5.377   9.544 -0.1587 -0.0211 -0.1538
  337loPI   C3B 5391  10.425   5.312   9.111  0.2010 -0.3012  0.0682
  337loPI   C4B 5392  10.458   5.194   8.628 -0.2675  0.2084 -0.0853
  338loPI    C1 5393  15.485   3.231  11.024 -0.1866  0.2018  0.1157
  338loPI    C2 5394  15.264   2.900  10.993  0.0608  0.0271  0.1829
  338loPI    C3 5395  15.384   3.027  11.353  0.2665 -0.0131  0.1298
  338loPI   PO4 5396  15.479   3.323  10.792  0.2847 -0.1532 -0.2239
  338loPI   GL1 5397  15.657   3.278  10.396 -0.1663 -0.1361 -0.0029
  338loPI   GL2 5398  15.621   3.011  10.205 -0.1330  0.0755  0.2456
  338loPI   C1A 5399  16.064   3.288  10.041  0.3512 -0.0178  0.0554
  338loPI   C2A 5400  16.071   3.336   9.618 -0.1552  0.1308 -0.3035
  338loPI   C3A 5401  16.063   3.306   9.248 -0.1771 -0.0549 -0.0934
  338loPI   C4A 5402  16.150   3.277   8.743  0.1184 -0.1537 -0.3465
  338loPI   C5A 5403  15.967   3.375   8.378  0.0848 -0.0514 -0.2041
  338loPI   C6A 5404  15.956   3.753   8.087 -0.2844  0.0917 -0.1714
  338loPI   C1B 5405  15.648   3.126   9.787  0.0116 -0.3348 -0.2251
  338loPI   C2B 5406  15.702   3.034   9.336  0.2548 -0.3622  0.1157
  338loPI   C3B 5407  15.638   3.079   8.893  0.0074  0.2725 -0.0768
  338loPI   C4B 5408  15.594   3.052   8.519 -0.0687  0.1791 -0.0561
  339loPI    C1 5409   9.362   4.741  11.050  0.0839 -0.0488  0.1530
  339loPI    C2 5410   9.225   4.583  11.391 -0.0444 -0.0348  0.1085
  339loPI    C3 5411   9.510   4.864  11.401 -0.1337  0.0528  0.2107
  339loPI   PO4 5412   9.328   4.680  10.774  0.5029  0.1124  0.2463
  339loPI   GL1 5413   9.446   4.609  10.381 -0.1034 -0.1231 -0.0720
  339loPI   GL2 5414   9.682   4.858  10.377  0.1713  0.0923 -0.3921
  339loPI   C1A 5415   9.408   4.746   9.967  0.2328  0.1548 -0.1786
  339loPI   C2A 5416   9.487   4.789   9.615  0.0174 -0.2347 -0.1118
  339loPI   C3A 5417   9.484   4.826   9.118  0.2423 -0.0635  0.0574
  339loPI   C4A 5418   9.474   4.896   8.780 -0.2777  0.0268 -0.0210
  339loPI   C5A 5419   9.345   4.729   8.393  0.2454 -0.0749  0.0020
  339loPI   C6A 5420   9.479   4.325   8.273 -0.4450  0.0021 -0.1020
  339loPI   C1B 5421   9.855   4.955   9.984  0.0915 -0.0631  0.1807
  339loPI   C2B 5422   9.923   5.033   9.585  0.0395 -0.0794  0.0576
  339loPI   C3B 5423   9.910   5.107   9.168 -0.0823  0.2436  0.2204
  339loPI   C4B 5424   9.998   5.044   8.707 -0.1135  0.0009  0.2317
  340loPI    C1 5425   3.940  10.208  10.701  0.0954  0.1202  0.0156
  340loPI    C2 5426   3.581  10.197  10.875  0.0648 -0.1595 -0.0607
  340loPI    C3 5427   3.904  10.073  11.076  0.1135  0.0483 -0.0085
  340loPI   PO4 5428   3.933  10.084  10.525 -0.0129  0.1574  0.2062
  340loPI   GL1 5429   4.286   9.966  10.235 -0.4374 -0.1079  0.0139
  340loPI   GL2 5430   4.437   9.938  10.028 -0.2256  0.0903  0.0205
  340loPI   C1A 5431   4.067   9.699   9.855  0.0921 -0.3874  0.2185
  340loPI   C2A 5432   4.170   9.605   9.413 -0.0933  0.2114  0.0489
  340loPI   C3A 5433   4.296   9.617   8.963 -0.1649 -0.1489 -0.2245
  340loPI   C4A 5434   4.059   9.695   8.558 -0.1660  0.3000 -0.2372
  340loPI   C5A 5435   4.110   9.736   8.119 -0.0652  0.0546 -0.3293
  340loPI   C6A 5436   3.752   9.808   7.847  0.2370 -0.2247  0.2833
  340loPI   C1B 5437   4.666   9.991   9.661 -0.1037 -0.0617 -0.2012
  340loPI   C2B 5438   4.724   9.908   9.273  0.2070  0.1697  0.0921
  340loPI   C3B 5439   4.683   9.908   8.806 -0.2761  0.0323 -0.0061
  340loPI   C4B 5440   4.646  10.036   8.326 -0.1148  0.0727  0.2304
  341loPI    C1 5441  17.210   3.193  11.139  0.0426  0.0027  0.1037
  341loPI    C2 5442  17.361   3.008  11.459 -0.0235  0.1745  0.2356
  341loPI    C3 5443  17.446   3.393  11.393  0.0803  0.1102 -0.0148
  341loPI   PO4 5444  17.261   3.056  10.953 -0.0789  0.0296 -0.0721
  341loPI   GL1 5445  17.159   2.958  10.539 -0.0205 -0.1207 -0.0732
  341loPI   GL2 5446  16.948   2.764  10.452 -0.1253  0.3443 -0.2136
  341loPI   C1A 5447  17.397   3.072  10.139  0.4560 -0.6287  0.1707
  341loPI   C2A 5448  17.414   3.001   9.696  0.1639  0.3875  0.0938
  341loPI   C3A 5449  17.419   2.982   9.275  0.1561 -0.1190  0.0825
  341loPI   C4A 5450  17.362   3.042   8.859  0.0737  0.0394  0.0547
  341loPI   C5A 5451  17.366   3.008   8.398 -0.3386  0.2802  0.0796
  341loPI   C6A 5452  17.497   3.105   8.062 -0.1611 -0.2566  0.1313
  341loPI   C1B 5453  16.909   2.722   9.927 -0.0686  0.1018  0.0191
  341loPI   C2B 5454  16.943   2.829   9.470  0.1784 -0.2071 -0.0182
  341loPI   C3B 5455  17.058   2.722   9.031  0.0577  0.0232 -0.0585
  341loPI   C4B 5456  16.983   2.723   8.568 -0.2155  0.0616 -0.0636
  342loPI    C1 5457  13.158  12.868  11.039 -0.0504 -0.0473  0.1822
  342loPI    C2 5458  12.809  12.874  10.843  0.0042  0.1268  0.0887
  342loPI    C3 5459  12.817  12.795  11.235 -0.1171 -0.1063  0.0461
  342loPI   PO4 5460  13.321  12.713  10.843  0.1463  0.0629 -0.1355
  342loPI   GL1 5461  13.447  12.827  10.337  0.2834 -0.1390 -0.0990
  342loPI   GL2 5462  13.184  12.998  10.444 -0.1141 -0.3124 -0.3785
  342loPI   C1A 5463  13.537  12.782   9.847  0.0696 -0.4085  0.0890
  342loPI   C2A 5464  13.478  12.826   9.421  0.1637  0.2679 -0.1038
  342loPI   C3A 5465  13.420  12.780   8.900 -0.3371  0.0705 -0.1792
  342loPI   C4A 5466  13.289  12.751   8.520 -0.0275 -0.2174 -0.1203
  342loPI   C5A 5467  12.900  12.671   8.322  0.0236  0.1046 -0.2692
  342loPI   C6A 5468  12.600  12.311   8.360 -0.3117 -0.1896 -0.0660
  342loPI   C1B 5469  13.113  13.079  10.009 -0.0787  0.1005  0.4904
  342loPI   C2B 5470  13.044  13.073   9.611 -0.0483  0.1577  0.2378
  342loPI   C3B 5471  13.028  13.043   9.174 -0.1861 -0.0940 -0.1651
  342loPI   C4B 5472  12.977  13.052   8.759  0.1130  0.0840  0.3189
  343loPI    C1 5473   5.501   8.353  11.090 -0.0658 -0.0430  0.0215
  343loPI    C2 5474   5.551   8.015  10.883 -0.1069  0.0762 -0.1864
  343loPI    C3 5475   5.223   8.066  11.107 -0.1701  0.0374 -0.2696
  343loPI   PO4 5476   5.622   8.546  10.851 -0.0467  0.0349  0.1828
  343loPI   GL1 5477   5.668   8.573  10.490 -0.2546  0.0337  0.1563
  343loPI   GL2 5478   5.844   8.745  10.366 -0.0361  0.0843  0.4152
  343loPI   C1A 5479   5.457   8.477  10.169  0.1561 -0.0319  0.2638
  343loPI   C2A 5480   5.416   8.328   9.680 -0.2003 -0.0053 -0.0304
  343loPI   C3A 5481   5.510   8.304   9.208 -0.3086  0.1207 -0.0537
  343loPI   C4A 5482   5.516   8.316   8.800 -0.1475  0.1409 -0.5861
  343loPI   C5A 5483   5.776   8.156   8.460  0.2502  0.2709 -0.0835
  343loPI   C6A 5484   6.047   7.895   8.200 -0.2235  0.1028  0.0125
  343loPI   C1B 5485   5.969   8.609   9.968 -0.5032 -0.2653  0.0612
  343loPI   C2B 5486   5.874   8.543   9.574  0.2100  0.0371 -0.0366
  343loPI   C3B 5487   5.992   8.571   9.088  0.0689  0.1534 -0.0446
  343loPI   C4B 5488   6.075   8.537   8.679 -0.0290  0.0454 -0.0385
  344loPI    C1 5489   0.998  14.883  10.874  0.0456 -0.0573 -0.0032
  344loPI    C2 5490   1.296  14.771  10.631  0.1373  0.2375 -0.0318
  344loPI    C3 5491   1.375  14.879  11.008  0.0160 -0.0555  0.0808
  344loPI   PO4 5492   0.784  15.044  10.593  0.1250  0.1863  0.2309
  344loPI   GL1 5493   0.762  15.053  10.139 -0.2295  0.0899  0.1786
  344loPI   GL2 5494   0.911  14.739   9.963 -0.1592 -0.1849 -0.0324
  344loPI   C1A 5495   0.545  15.019   9.720  0.0121  0.1054 -0.1724
  344loPI   C2A 5496   0.575  15.050   9.344 -0.2278 -0.0169 -0.0391
  344loPI   C3A 5497   0.441  15.015   8.893 -0.5269 -0.0847  0.0816
  344loPI   C4A 5498   0.476  15.225   8.504 -0.1400  0.0035 -0.4528
  344loPI   C5A 5499   0.357  15.514   8.149  0.0103  0.3754 -0.1678
  344loPI   C6A 5500   0.446  15.896   7.956 -0.0919  0.2173 -0.1538
  344loPI   C1B 5501   0.962  14.784   9.510  0.1054 -0.1510  0.1199
  344loPI   C2B 5502   0.934  14.803   9.126  0.1933 -0.0262  0.0926
  344loPI   C3B 5503   0.948  14.789   8.707 -0.0177 -0.1182 -0.1370
  344loPI   C4B 5504   0.813  14.720   8.275 -0.0656 -0.0891  0.1148
  345loPI    C1 5505  11.568  13.901  11.028 -0.1019  0.0420 -0.0747
  345loPI    C2 5506  11.315  13.883  11.337 -0.0649  0.0622 -0.0432
  345loPI    C3 5507  11.705  13.946  11.401 -0.0715  0.1640 -0.1002
  345loPI   PO4 5508  11.501  13.783  10.862  0.1005 -0.2275 -0.0080
  345loPI   GL1 5509  11.449  13.801  10.467  0.0051  0.1171  0.0486
  345loPI   GL2 5510  11.249  14.018  10.411  0.0149  0.2415 -0.0190
  345loPI   C1A 5511  11.716  13.895  10.184 -0.1262  0.1417 -0.0879
  345loPI   C2A 5512  12.007  14.067   9.797  0.0627  0.1089  0.0501
  345loPI   C3A 5513  11.807  14.025   9.314  0.2929  0.2068 -0.0133
  345loPI   C4A 5514  11.835  14.066   8.870  0.1138  0.1197  0.2452
  345loPI   C5A 5515  11.821  14.086   8.412 -0.5717  0.0507 -0.0399
  345loPI   C6A 5516  11.765  13.902   8.050  0.1497  0.1726  0.2230
  345loPI   C1B 5517  11.225  13.907   9.948  0.0681 -0.1718  0.1713
  345loPI   C2B 5518  11.412  13.844   9.511 -0.0518 -0.1085 -0.0178
  345loPI   C3B 5519  11.386  13.854   9.111  0.0604 -0.0301  0.2175
  345loPI   C4B 5520  11.466  13.772   8.639  0.2793 -0.1338  0.1177
  346loPI    C1 5521  15.561   4.228  11.253  0.2812  0.0133  0.2193
  346loPI    C2 5522  15.297   4.519  11.330  0.2488  0.0434 -0.0007
  346loPI    C3 5523  15.569   4.418  11.606  0.2063  0.2240  0.1092
  346loPI   PO4 5524  15.586   4.281  10.949  0.2397 -0.3711  0.0274
  346loPI   GL1 5525  15.391   4.312  10.462  0.1373  0.3797 -0.0902
  346loPI   GL2 5526  15.206   4.095  10.431 -0.0052 -0.0757  0.0896
  346loPI   C1A 5527  15.604   4.129  10.133 -0.0143  0.0810  0.1095
  346loPI   C2A 5528  15.613   4.094   9.723  0.0789 -0.2677  0.1738
  346loPI   C3A 5529  15.701   4.144   9.261 -0.1547 -0.2099 -0.2916
  346loPI   C4A 5530  15.647   4.120   8.883 -0.2531  0.1179  0.1723
  346loPI   C5A 5531  15.725   4.185   8.459  0.0026  0.4295  0.1814
  346loPI   C6A 5532  16.165   4.191   8.213 -0.0548 -0.2816  0.1286
  346loPI   C1B 5533  15.155   3.867  10.080  0.1396 -0.1002 -0.1699
  346loPI   C2B 5534  15.177   3.877   9.612  0.1291 -0.0633 -0.1141
  346loPI   C3B 5535  15.226   3.897   9.193 -0.0873  0.1475 -0.0676
  346loPI   C4B 5536  15.172   3.833   8.677 -0.4008  0.1407 -0.1543
  347loPI    C1 5537  14.463  16.545  11.059 -0.0632  0.0428 -0.0933
  347loPI    C2 5538  14.510  16.179  11.214 -0.0357  0.1046  0.0460
  347loPI    C3 5539  14.618  16.501  11.425  0.0551  0.1880 -0.1251
  347loPI   PO4 5540  14.456  16.461  10.778 -0.0157  0.1587 -0.0006
  347loPI   GL1 5541  14.485  16.281  10.375 -0.1695 -0.3681 -0.0167
  347loPI   GL2 5542  14.249  16.259  10.322 -0.0580 -0.1411  0.0527
  347loPI   C1A 5543  14.687  16.453   9.912 -0.0654  0.1470 -0.2290
  347loPI   C2A 5544  14.593  16.439   9.536 -0.1536  0.1361 -0.0011
  347loPI   C3A 5545  14.631  16.416   9.036 -0.0615 -0.0324 -0.1718
  347loPI   C4A 5546  14.616  16.450   8.534  0.0689  0.0100  0.1010
  347loPI   C5A 5547  14.685  16.566   8.078  0.0720  0.0167  0.0988
  347loPI   C6A 5548  14.738  16.855   7.789 -0.0278  0.4706  0.2270
  347loPI   C1B 5549  14.163  16.330   9.994  0.1672 -0.0187  0.0527
  347loPI   C2B 5550  14.067  16.306   9.577 -0.0986  0.1856 -0.0894
  347loPI   C3B 5551  14.192  16.257   9.247 -0.1991 -0.1229  0.2257
  347loPI   C4B 5552  14.149  16.357   8.778  0.3063  0.1399 -0.0777
  348loPI    C1 5553  17.798   4.137  11.312 -0.2394  0.0898 -0.1454
  348loPI    C2 5554  17.815   3.744  11.384  0.4664  0.1506  0.0916
  348loPI    C3 5555  17.708   3.995  11.676  0.1662  0.1508 -0.0161
  348loPI   PO4 5556  17.655   4.050  11.014  0.0133  0.1670  0.0142
  348loPI   GL1 5557  17.592   3.965  10.608 -0.3491  0.0441  0.0051
  348loPI   GL2 5558  17.682   4.092  10.390 -0.1113 -0.0513 -0.0264
  348loPI   C1A 5559  17.509   3.665  10.234 -0.2395 -0.5426  0.2656
  348loPI   C2A 5560  17.362   3.526   9.784 -0.2652 -0.2060 -0.2165
  348loPI   C3A 5561  17.449   3.483   9.421  0.0076  0.1016  0.2040
  348loPI   C4A 5562  17.425   3.524   9.049  0.0189  0.0009  0.2166
  348loPI   C5A 5563  17.425   3.466   8.643  0.0875  0.0431 -0.0494
  348loPI   C6A 5564  17.302   3.609   8.271 -0.2153 -0.1969 -0.0753
  348loPI   C1B 5565  17.921   3.898  10.052 -0.1281  0.0730  0.2703
  348loPI   C2B 5566  17.897   3.725   9.652 -0.0324  0.0457 -0.0048
  348loPI   C3B 5567  17.906   3.812   9.200 -0.0633  0.0266 -0.0363
  348loPI   C4B 5568  17.859   3.695   8.798 -0.0675 -0.3971  0.1648
  349loPI    C1 5569  15.843   5.664  11.053  0.1421  0.0686 -0.1934
  349loPI    C2 5570  16.199   5.679  11.234  0.0738 -0.0518 -0.0473
  349loPI    C3 5571  15.868   5.617  11.449  0.0216 -0.4925 -0.2438
  349loPI   PO4 5572  15.910   5.521  10.884  0.5127 -0.2391 -0.0759
  349loPI   GL1 5573  15.630   5.525  10.507 -0.0456  0.0590  0.1091
  349loPI   GL2 5574  15.858   5.717  10.362 -0.3330 -0.0627  0.0946
  349loPI   C1A 5575  15.658   5.194  10.108  0.3054 -0.2177 -0.1275
  349loPI   C2A 5576  15.732   5.193   9.632 -0.1569 -0.0948  0.3517
  349loPI   C3A 5577  15.693   5.134   9.244 -0.0434 -0.0697 -0.2236
  349loPI   C4A 5578  15.662   5.107   8.768 -0.2692  0.0110 -0.2339
  349loPI   C5A 5579  15.842   5.138   8.437 -0.0320  0.0686 -0.1318
  349loPI   C6A 5580  16.066   4.771   8.250 -0.0345 -0.0314 -0.2535
  349loPI   C1B 5581  15.644   5.705   9.927  0.2661 -0.1278  0.1242
  349loPI   C2B 5582  15.732   5.682   9.385  0.0212 -0.0951 -0.3032
  349loPI   C3B 5583  15.611   5.637   9.021 -0.0513 -0.1667 -0.1381
  349loPI   C4B 5584  15.558   5.761   8.653  0.0991  0.4032  0.0463
  350loPI    C1 5585   0.224  14.296  10.653  0.0163  0.3035 -0.2241
  350loPI    C2 5586  -0.120  14.288  10.857  0.0971  0.0658 -0.0935
  350loPI    C3 5587   0.146  14.579  10.924  0.0769  0.0487  0.0650
  350loPI   PO4 5588   0.217  14.273  10.401 -0.1271 -0.2155  0.0750
  350loPI   GL1 5589   0.264  14.459  10.014 -0.2923 -0.2171 -0.2261
  350loPI   GL2 5590   0.150  14.781  10.003 -0.0914  0.2027  0.1548
  350loPI   C1A 5591   0.492  14.556   9.614  0.1920 -0.0448 -0.0509
  350loPI   C2A 5592   0.479  14.601   9.118 -0.0663  0.4803 -0.1226
  350loPI   C3A 5593   0.456  14.596   8.620 -0.0720  0.1274  0.0339
  350loPI   C4A 5594   0.337  14.613   8.212  0.1062 -0.2380 -0.1516
  350loPI   C5A 5595  -0.059  14.534   8.040 -0.0962 -0.1242  0.1382
  350loPI   C6A 5596  -0.534  14.579   8.213 -0.0084 -0.0886  0.1662
  350loPI   C1B 5597   0.043  14.817   9.748  0.0905 -0.0287 -0.0911
  350loPI   C2B 5598   0.097  14.918   9.359 -0.1742  0.0583  0.1013
  350loPI   C3B 5599  -0.029  14.847   8.987 -0.0339 -0.1006  0.1035
  350loPI   C4B 5600   0.050  14.888   8.590 -0.0028  0.2030  0.0058
  351loPI    C1 5601   1.828  15.125  10.814  0.0135 -0.2912  0.0272
  351loPI    C2 5602   1.628  15.307  11.108 -0.4378 -0.4345 -0.1810
  351loPI    C3 5603   1.845  14.980  11.186  0.1154 -0.0109  0.1339
  351loPI   PO4 5604   1.748  15.164  10.620 -0.2711  0.1734  0.2812
  351loPI   GL1 5605   1.752  15.089  10.223  0.2580  0.0649 -0.0319
  351loPI   GL2 5606   2.068  14.979  10.212 -0.1072 -0.0099 -0.2770
  351loPI   C1A 5607   1.570  15.325   9.936  0.2378  0.2904 -0.1889
  351loPI   C2A 5608   1.512  15.526   9.467  0.1022 -0.2110 -0.1391
  351loPI   C3A 5609   1.574  15.512   9.044  0.1400 -0.2262  0.2362
  351loPI   C4A 5610   1.594  15.579   8.641  0.4447  0.1028  0.3275
  351loPI   C5A 5611   1.872  15.734   8.253 -0.1316  0.1911  0.1662
  351loPI   C6A 5612   2.206  15.979   8.372  0.0592 -0.2053 -0.2053
  351loPI   C1B 5613   1.978  15.127   9.761  0.2647  0.1728 -0.1610
  351loPI   C2B 5614   1.888  15.250   9.342  0.2694  0.2378 -0.2933
  351loPI   C3B 5615   1.921  15.135   8.880  0.1112  0.1898  0.1481
  351loPI   C4B 5616   1.842  15.135   8.423 -0.3509 -0.3615 -0.0293
  352loPI    C1 5617   4.030   0.921  11.112  0.0942 -0.0694 -0.1129
  352loPI    C2 5618   3.928   1.238  11.334  0.0515 -0.0334 -0.1837
  352loPI    C3 5619   4.168   0.956  11.487 -0.1151 -0.0954 -0.0324
  352loPI   PO4 5620   3.820   0.940  10.929  0.2301 -0.0618 -0.0625
  352loPI   GL1 5621   3.848   1.055  10.438  0.1963 -0.0720 -0.1200
  352loPI   GL2 5622   3.911   1.381  10.372 -0.3386 -0.5936 -0.4159
  352loPI   C1A 5623   3.828   0.817  10.077 -0.0874  0.1654 -0.4199
  352loPI   C2A 5624   3.893   0.819   9.619  0.1198 -0.4623  0.0945
  352loPI   C3A 5625   3.799   0.860   9.201  0.0377  0.0823  0.2700
  352loPI   C4A 5626   3.751   0.868   8.737 -0.1727 -0.1870  0.0043
  352loPI   C5A 5627   3.906   1.050   8.322 -0.1261 -0.1085  0.0691
  352loPI   C6A 5628   4.054   1.375   8.066  0.2183 -0.0627  0.2062
  352loPI   C1B 5629   3.955   1.286   9.939  0.0131  0.0241 -0.0585
  352loPI   C2B 5630   3.882   1.396   9.566  0.3306 -0.3556 -0.2688
  352loPI   C3B 5631   3.785   1.371   8.985  0.0565 -0.1568  0.1110
  352loPI   C4B 5632   3.769   1.454   8.526  0.2819 -0.2103 -0.1081
  353loPI    C1 5633   5.098   3.402  10.886 -0.0704 -0.0161  0.0410
  353loPI    C2 5634   4.909   3.389  11.238  0.1113 -0.1540  0.1351
  353loPI    C3 5635   5.174   3.679  11.164 -0.0513 -0.0263  0.0459
  353loPI   PO4 5636   5.121   3.179  10.791 -0.2359 -0.3989  0.2721
  353loPI   GL1 5637   5.132   3.224  10.370 -0.1951 -0.3980 -0.2898
  353loPI   GL2 5638   5.338   3.034  10.345 -0.0239 -0.0703 -0.1128
  353loPI   C1A 5639   5.310   3.535  10.130 -0.1735  0.0830  0.2386
  353loPI   C2A 5640   5.372   3.716   9.723  0.2246 -0.2497  0.1748
  353loPI   C3A 5641   5.426   3.657   9.333  0.0633  0.0806 -0.3034
  353loPI   C4A 5642   5.385   3.734   8.956 -0.1013 -0.3357  0.0149
  353loPI   C5A 5643   5.394   3.866   8.481 -0.2511 -0.0716  0.0235
  353loPI   C6A 5644   5.669   3.602   8.251 -0.1381  0.1125 -0.0025
  353loPI   C1B 5645   5.218   3.097   9.871 -0.3157 -0.1666  0.1731
  353loPI   C2B 5646   5.325   3.123   9.428 -0.0355  0.0563  0.1568
  353loPI   C3B 5647   5.385   3.249   8.976 -0.1198  0.1058 -0.0729
  353loPI   C4B 5648   5.341   3.385   8.615  0.1382 -0.0934  0.0755
  354loPI    C1 5649   3.745   8.456  10.710 -0.0179 -0.0571  0.1427
  354loPI    C2 5650   3.902   8.162  10.931  0.0908  0.0123  0.1584
  354loPI    C3 5651   3.890   8.535  11.075 -0.1836 -0.0104  0.1992
  354loPI   PO4 5652   3.546   8.344  10.516 -0.0795  0.2223  0.0454
  354loPI   GL1 5653   3.467   8.271  10.119  0.1294  0.2529 -0.2098
  354loPI   GL2 5654   3.185   8.215  10.118 -0.0500 -0.0277 -0.2542
  354loPI   C1A 5655   3.635   8.417   9.681 -0.3300 -0.0085 -0.1213
  354loPI   C2A 5656   3.668   8.424   9.301  0.2855  0.2047  0.1235
  354loPI   C3A 5657   3.657   8.398   8.901 -0.1942 -0.3399 -0.3016
  354loPI   C4A 5658   3.602   8.237   8.535 -0.2876 -0.1690  0.2253
  354loPI   C5A 5659   3.668   8.102   8.218  0.2708 -0.1636  0.1080
  354loPI   C6A 5660   3.428   7.971   7.874 -0.0649 -0.1077  0.2235
  354loPI   C1B 5661   3.096   8.176   9.665  0.0238 -0.0193 -0.0204
  354loPI   C2B 5662   3.037   8.117   9.236 -0.1643  0.0095 -0.1567
  354loPI   C3B 5663   3.163   8.079   8.740 -0.0188 -0.0108 -0.0641
  354loPI   C4B 5664   3.142   8.079   8.299 -0.1708  0.2464  0.0215
  355loPI    C1 5665   6.824   0.161  10.678 -0.0359  0.2654 -0.0580
  355loPI    C2 5666   6.799   0.506  10.879 -0.1103  0.2328 -0.0111
  355loPI    C3 5667   6.785   0.158  11.076 -0.0268  0.2029 -0.0575
  355loPI   PO4 5668   7.054   0.198  10.522  0.0361  0.1209 -0.0495
  355loPI   GL1 5669   7.241   0.101  10.086 -0.0180 -0.0947 -0.3524
  355loPI   GL2 5670   7.210   0.459  10.048 -0.1522 -0.0754 -0.0436
  355loPI   C1A 5671   7.422   0.114   9.711  0.0621 -0.0850 -0.0177
  355loPI   C2A 5672   7.501   0.111   9.158  0.2993 -0.1414  0.1216
  355loPI   C3A 5673   7.352   0.180   8.754 -0.3022 -0.2444  0.1328
  355loPI   C4A 5674   7.266   0.311   8.324  0.0594  0.1556  0.1375
  355loPI   C5A 5675   7.133   0.451   8.072 -0.1641 -0.2457  0.0919
  355loPI   C6A 5676   6.807   0.757   7.965 -0.1618 -0.1729  0.1849
  355loPI   C1B 5677   7.076   0.508   9.618 -0.0048  0.0721 -0.0933
  355loPI   C2B 5678   7.013   0.356   9.216 -0.1526 -0.5079  0.1535
  355loPI   C3B 5679   6.912   0.505   8.791  0.2192  0.0645 -0.2035
  355loPI   C4B 5680   6.666   0.389   8.303 -0.1732 -0.3042  0.1431
  356loPI    C1 5681  11.255   7.620  11.401  0.0654 -0.0092 -0.2710
  356loPI    C2 5682  11.099   7.252  11.421  0.1597 -0.0352  0.0559
  356loPI    C3 5683  11.049   7.507  11.725  0.1045  0.2209 -0.1636
  356loPI   PO4 5684  11.454   7.561  11.302 -0.3832  0.0790  0.2051
  356loPI   GL1 5685  11.523   7.591  10.753 -0.0250 -0.0536  0.1594
  356loPI   GL2 5686  11.778   7.651  10.546 -0.0987  0.0797  0.1333
  356loPI   C1A 5687  11.342   7.433  10.354  0.2165  0.2108  0.1440
  356loPI   C2A 5688  11.313   7.354   9.830  0.1148  0.1549  0.0205
  356loPI   C3A 5689  11.165   7.315   9.385  0.0961 -0.1068  0.1258
  356loPI   C4A 5690  11.290   7.298   9.049  0.0248 -0.1833  0.0551
  356loPI   C5A 5691  11.256   7.456   8.691  0.0088 -0.2963  0.1119
  356loPI   C6A 5692  11.512   7.580   8.320  0.0737 -0.3345  0.2941
  356loPI   C1B 5693  11.725   7.666  10.089  0.1694 -0.0454 -0.1581
  356loPI   C2B 5694  11.691   7.618   9.646  0.3360  0.1921 -0.2330
  356loPI   C3B 5695  11.704   7.614   9.134  0.0093  0.2031  0.0339
  356loPI   C4B 5696  11.703   7.639   8.796 -0.2978 -0.0733  0.2498
  357loPI    C1 5697   5.621   0.671  10.968  0.0157  0.1136 -0.1212
  357loPI    C2 5698   5.366   0.454  11.188 -0.0061  0.0345 -0.2237
  357loPI    C3 5699   5.620   0.707  11.367  0.1358 -0.1984 -0.0896
  357loPI   PO4 5700   5.631   0.461  10.718  0.0353 -0.2486 -0.0696
  357loPI   GL1 5701   5.522   0.408  10.397  0.1052 -0.3812 -0.1101
  357loPI   GL2 5702   5.735   0.329  10.238 -0.0822  0.0872 -0.1485
  357loPI   C1A 5703   5.219   0.270  10.089  0.1813 -0.1027  0.0865
  357loPI   C2A 5704   5.210   0.280   9.643  0.0295 -0.2700 -0.0751
  357loPI   C3A 5705   5.147   0.526   9.183 -0.4446  0.3293  0.2008
  357loPI   C4A 5706   5.144   0.633   8.782  0.1760  0.1944 -0.2585
  357loPI   C5A 5707   5.032   0.936   8.408  0.1518  0.0078 -0.0009
  357loPI   C6A 5708   5.316   1.292   8.358 -0.1312 -0.1390 -0.1242
  357loPI   C1B 5709   5.701   0.465   9.937 -0.2973 -0.0273  0.0703
  357loPI   C2B 5710   5.577   0.648   9.487 -0.0268 -0.3283  0.1839
  357loPI   C3B 5711   5.632   0.836   9.062  0.1898 -0.1436  0.0280
  357loPI   C4B 5712   5.539   0.820   8.532  0.2266 -0.0199 -0.1578
  358loPI    C1 5713   9.605   9.719  10.831 -0.1562 -0.0850 -0.0549
  358loPI    C2 5714   9.613   9.621  11.219  0.0137 -0.0653 -0.0527
  358loPI    C3 5715   9.262   9.678  11.034 -0.0664 -0.0122  0.1135
  358loPI   PO4 5716   9.758   9.598  10.721 -0.2008  0.2559 -0.0090
  358loPI   GL1 5717   9.876   9.430  10.456  0.0007  0.1244  0.0484
  358loPI   GL2 5718   9.484   9.439  10.368  0.1284 -0.2361  0.0427
  358loPI   C1A 5719   9.927   9.230  10.120 -0.1618 -0.3185 -0.0464
  358loPI   C2A 5720   9.942   9.262   9.657 -0.1059 -0.0093  0.0966
  358loPI   C3A 5721   9.944   9.292   9.276  0.2417 -0.3047  0.2298
  358loPI   C4A 5722  10.045   9.239   8.714  0.0829 -0.1955 -0.0415
  358loPI   C5A 5723  10.056   9.055   8.390 -0.2615 -0.1307 -0.0720
  358loPI   C6A 5724  10.503   9.067   8.425  0.1451  0.2065  0.1537
  358loPI   C1B 5725   9.587   9.525   9.908  0.2544  0.1245  0.1810
  358loPI   C2B 5726   9.543   9.533   9.509 -0.3161  0.1179  0.0004
  358loPI   C3B 5727   9.542   9.535   9.087  0.1436 -0.1645 -0.3842
  358loPI   C4B 5728   9.596   9.510   8.762  0.0826 -0.1406  0.2344
  359loPI    C1 5729  14.693   3.799  11.071  0.1935 -0.1068 -0.2852
  359loPI    C2 5730  14.716   3.478  11.309  0.0413  0.0745 -0.0209
  359loPI    C3 5731  14.359   3.619  11.197  0.1060  0.1895 -0.0843
  359loPI   PO4 5732  14.875   3.762  10.881 -0.1548  0.0412  0.5239
  359loPI   GL1 5733  15.086   3.542  10.538 -0.1210  0.2411  0.0414
  359loPI   GL2 5734  14.805   3.683  10.429  0.0204  0.0454 -0.2794
  359loPI   C1A 5735  15.239   3.406  10.132  0.1088 -0.0985 -0.1012
  359loPI   C2A 5736  15.249   3.381   9.596  0.0737 -0.0944 -0.1895
  359loPI   C3A 5737  15.201   3.353   9.150  0.3749 -0.2904 -0.0822
  359loPI   C4A 5738  15.161   3.330   8.756  0.2323 -0.3905  0.1031
  359loPI   C5A 5739  15.149   3.170   8.239 -0.1691  0.1580  0.0616
  359loPI   C6A 5740  15.280   2.968   7.796 -0.2217 -0.1586 -0.0637
  359loPI   C1B 5741  14.788   3.608   9.888  0.0515 -0.2977 -0.4263
  359loPI   C2B 5742  14.779   3.643   9.373 -0.0866 -0.3585  0.2440
  359loPI   C3B 5743  14.802   3.654   8.936  0.0826  0.0287 -0.0440
  359loPI   C4B 5744  14.751   3.685   8.501 -0.0024 -0.0426  0.0015
  360loPI    C1 5745  15.482   2.490  11.003  0.0801 -0.0462 -0.0244
  360loPI    C2 5746  15.473   2.186  11.262 -0.1109 -0.0184  0.0030
  360loPI    C3 5747  15.763   2.460  11.286  0.1013 -0.2331 -0.0638
  360loPI   PO4 5748  15.451   2.458  10.785 -0.1050 -0.0258  0.0293
  360loPI   GL1 5749  15.257   2.748  10.482 -0.1565 -0.0109  0.0542
  360loPI   GL2 5750  15.151   3.008  10.476 -0.0725 -0.0221  0.2402
  360loPI   C1A 5751  15.144   2.502  10.168  0.0062  0.3202  0.1255
  360loPI   C2A 5752  15.159   2.393   9.693 -0.2877  0.2688 -0.1679
  360loPI   C3A 5753  15.201   2.296   9.270  0.2553 -0.0037 -0.0032
  360loPI   C4A 5754  15.130   2.312   8.872 -0.0923 -0.1300 -0.0007
  360loPI   C5A 5755  14.876   2.379   8.491  0.0324 -0.2077  0.1221
  360loPI   C6A 5756  14.999   2.574   8.158  0.5075 -0.1390  0.0564
  360loPI   C1B 5757  15.217   2.969   9.953 -0.0445  0.1605  0.0126
  360loPI   C2B 5758  15.234   2.879   9.515  0.3366  0.1073 -0.0283
  360loPI   C3B 5759  15.204   2.788   9.137 -0.2640 -0.0440 -0.2330
  360loPI   C4B 5760  15.064   2.880   8.641  0.2955 -0.2019 -0.0610
  361loPI    C1 5761  10.107   8.175  11.387 -0.1571 -0.2895 -0.0672
  361loPI    C2 5762  10.487   8.132  11.507 -0.1715 -0.1072  0.0477
  361loPI    C3 5763  10.188   8.008  11.742 -0.1939  0.0825  0.1210
  361loPI   PO4 5764  10.164   8.279  11.149  0.1250  0.0602 -0.1614
  361loPI   GL1 5765  10.127   8.042  10.711  0.0976  0.0644 -0.0123
  361loPI   GL2 5766   9.956   7.773  10.539  0.2514  0.1686  0.0193
  361loPI   C1A 5767  10.324   8.304  10.332 -0.0782  0.0930 -0.3002
  361loPI   C2A 5768  10.376   8.514   9.979  0.0286  0.0558  0.1384
  361loPI   C3A 5769  10.452   8.501   9.528  0.0668  0.3770 -0.1028
  361loPI   C4A 5770  10.419   8.504   9.120 -0.4314  0.0624  0.1298
  361loPI   C5A 5771  10.392   8.348   8.742  0.0584  0.0506  0.0572
  361loPI   C6A 5772  10.015   8.162   8.586 -0.1435  0.0144 -0.0337
  361loPI   C1B 5773   9.906   7.742  10.227  0.2097 -0.1883 -0.2053
  361loPI   C2B 5774   9.999   7.678   9.833 -0.0229  0.2146  0.1804
  361loPI   C3B 5775  10.063   7.664   9.328  0.0006  0.0965  0.1204
  361loPI   C4B 5776   9.944   7.721   8.861 -0.1918  0.3032 -0.1921
  362loPI    C1 5777   1.299   0.029  10.861  0.0341 -0.0464  0.1047
  362loPI    C2 5778   0.980  -0.208  10.900  0.0795 -0.1218  0.0174
  362loPI    C3 5779   1.157  -0.058  11.225 -0.0377 -0.0890  0.0666
  362loPI   PO4 5780   1.411  -0.085  10.726  0.0817 -0.1108  0.0497
  362loPI   GL1 5781   1.297  -0.398  10.450  0.3205 -0.4408 -0.0802
  362loPI   GL2 5782   0.970  -0.548  10.522 -0.3261 -0.1662 -0.0284
  362loPI   C1A 5783   1.068  -0.357  10.069  0.2483 -0.2177  0.1557
  362loPI   C2A 5784   1.049  -0.315   9.618  0.0060 -0.0637  0.0564
  362loPI   C3A 5785   1.033  -0.306   9.267  0.1331 -0.0698 -0.0254
  362loPI   C4A 5786   0.877  -0.315   8.819  0.0512 -0.3296  0.0413
  362loPI   C5A 5787   0.825  -0.462   8.393  0.0054 -0.2280 -0.0872
  362loPI   C6A 5788   0.646  -0.234   8.088 -0.1419 -0.1777  0.0437
  362loPI   C1B 5789   1.011  -0.858  10.267 -0.1939  0.1600 -0.0305
  362loPI   C2B 5790   0.934  -0.886   9.864 -0.0870 -0.3235 -0.2973
  362loPI   C3B 5791   0.886  -0.841   9.438 -0.0566  0.1976 -0.0292
  362loPI   C4B 5792   0.855  -0.857   8.977 -0.3747  0.0741  0.2185
  363loPI    C1 5793  17.599   1.499  11.467  0.0074  0.0210  0.0535
  363loPI    C2 5794  17.782   1.839  11.569 -0.3429  0.2169  0.0446
  363loPI    C3 5795  17.570   1.637  11.842  0.0945 -0.1506  0.1247
  363loPI   PO4 5796  17.618   1.541  11.137  0.0573  0.0973  0.1807
  363loPI   GL1 5797  17.547   1.779  10.756 -0.1534  0.4731 -0.0481
  363loPI   GL2 5798  17.848   1.780  10.488  0.4328 -0.0884  0.1580
  363loPI   C1A 5799  17.385   1.933  10.419  0.0386  0.3388 -0.3624
  363loPI   C2A 5800  17.354   1.978   9.979 -0.0300  0.2507 -0.0328
  363loPI   C3A 5801  17.390   1.938   9.463 -0.1361 -0.0715 -0.1121
  363loPI   C4A 5802  17.371   1.945   9.023 -0.1144 -0.1359  0.1047
  363loPI   C5A 5803  17.338   1.973   8.616  0.3769  0.0621 -0.0636
  363loPI   C6A 5804  17.356   2.319   8.290  0.0886 -0.0402  0.2237
  363loPI   C1B 5805  17.827   1.629  10.067 -0.1009 -0.2460 -0.2393
  363loPI   C2B 5806  17.851   1.645   9.653 -0.1329 -0.0169 -0.0344
  363loPI   C3B 5807  17.728   1.597   9.213 -0.0775  0.2648 -0.1519
  363loPI   C4B 5808  17.763   1.491   8.723  0.4414 -0.2070  0.1258
  364loPI    C1 5809  13.584  11.288  10.888 -0.0544 -0.0961  0.0572
  364loPI    C2 5810  13.282  11.252  11.148 -0.1687  0.0350 -0.0560
  364loPI    C3 5811  13.453  11.609  11.088 -0.1630  0.0116 -0.1822
  364loPI   PO4 5812  13.520  11.216  10.605 -0.0603  0.2133 -0.0662
  364loPI   GL1 5813  13.346  10.884  10.348  0.1801 -0.0540 -0.0051
  364loPI   GL2 5814  13.403  10.641  10.347 -0.2129  0.0295  0.0591
  364loPI   C1A 5815  13.201  10.999   9.917  0.0370  0.0456 -0.0851
  364loPI   C2A 5816  13.198  10.972   9.454 -0.2222  0.0049 -0.3595
  364loPI   C3A 5817  13.154  11.011   9.169  0.0712 -0.1657  0.0604
  364loPI   C4A 5818  13.161  11.022   8.690 -0.0551  0.1465  0.0250
  364loPI   C5A 5819  12.993  10.994   8.314 -0.2812 -0.2786  0.0937
  364loPI   C6A 5820  12.647  11.272   8.110 -0.2535  0.0306  0.0884
  364loPI   C1B 5821  13.604  10.760   9.935  0.4860  0.0536  0.0720
  364loPI   C2B 5822  13.682  10.729   9.518  0.3439 -0.0364 -0.2611
  364loPI   C3B 5823  13.593  10.689   9.095 -0.1992 -0.0977 -0.1254
  364loPI   C4B 5824  13.662  10.713   8.607 -0.1839 -0.1236 -0.1852
  365loPI    C1 5825   6.627   8.637  10.834 -0.2514 -0.4480  0.0425
  365loPI    C2 5826   6.765   8.800  11.172 -0.0258 -0.1898 -0.1700
  365loPI    C3 5827   6.433   8.577  11.179 -0.1452 -0.0087  0.1843
  365loPI   PO4 5828   6.874   8.658  10.715 -0.0987 -0.2727 -0.2321
  365loPI   GL1 5829   7.074   8.706  10.441 -0.1211 -0.3069 -0.1430
  365loPI   GL2 5830   6.870   8.913  10.283 -0.0956  0.1347  0.2592
  365loPI   C1A 5831   7.288   8.765  10.051  0.0083  0.1327  0.0719
  365loPI   C2A 5832   7.388   8.745   9.625 -0.0157 -0.1705  0.0182
  365loPI   C3A 5833   7.297   8.762   9.232  0.2145 -0.0776  0.3288
  365loPI   C4A 5834   7.258   8.773   8.813 -0.0537  0.1127 -0.0583
  365loPI   C5A 5835   7.099   8.672   8.426 -0.0969 -0.1669 -0.1340
  365loPI   C6A 5836   6.777   8.403   8.311  0.0680  0.3584 -0.0109
  365loPI   C1B 5837   6.855   8.993   9.912  0.0028 -0.0389  0.2522
  365loPI   C2B 5838   6.947   9.065   9.454 -0.0625 -0.0977 -0.1141
  365loPI   C3B 5839   6.832   9.085   9.047  0.1820  0.0297 -0.0164
  365loPI   C4B 5840   6.842   9.191   8.598 -0.0091  0.0769  0.0027
  366loPI    C1 5841   2.377  11.257  10.225 -0.0570  0.0590  0.0904
  366loPI    C2 5842   2.701  11.096  10.396 -0.0062 -0.1314 -0.1772
  366loPI    C3 5843   2.341  11.051  10.566  0.1136  0.1477  0.1633
  366loPI   PO4 5844   2.328  11.171   9.962  0.1969 -0.1890  0.1486
  366loPI   GL1 5845   2.360  11.014   9.542 -0.0386 -0.1993 -0.2062
  366loPI   GL2 5846   2.624  11.167   9.491 -0.1991 -0.0257  0.1068
  366loPI   C1A 5847   2.268  10.770   9.242 -0.2432  0.3530 -0.1498
  366loPI   C2A 5848   2.282  10.690   8.818  0.2039 -0.4024 -0.0298
  366loPI   C3A 5849   2.419  10.843   8.395  0.1056  0.1490 -0.1173
  366loPI   C4A 5850   2.674  10.606   8.100 -0.0335 -0.1153  0.3358
  366loPI   C5A 5851   3.014  10.364   7.943  0.1308  0.1001  0.0691
  366loPI   C6A 5852   3.286  10.152   8.135  0.0438 -0.1427  0.1230
  366loPI   C1B 5853   2.622  11.050   9.003  0.2523  0.2739  0.1283
  366loPI   C2B 5854   2.846  10.927   8.764 -0.0000 -0.0660  0.1060
  366loPI   C3B 5855   2.831  11.059   8.269 -0.3568 -0.2614  0.0756
  366loPI   C4B 5856   2.922  11.272   7.886  0.0858 -0.0290 -0.1421
  367loPI    C1 5857  15.983  13.369  10.782 -0.2623 -0.0309 -0.1070
  367loPI    C2 5858  16.108  13.001  10.877  0.2138  0.1305 -0.0807
  367loPI    C3 5859  15.985  13.251  11.164  0.3251  0.1455 -0.0458
  367loPI   PO4 5860  16.174  13.459  10.634 -0.1221  0.1575 -0.0386
  367loPI   GL1 5861  16.281  13.539  10.225 -0.0243  0.0972  0.2127
  367loPI   GL2 5862  16.587  13.487  10.281 -0.3674 -0.1445  0.2213
  367loPI   C1A 5863  16.400  13.744   9.854 -0.2066 -0.0785 -0.0578
  367loPI   C2A 5864  16.392  13.825   9.431 -0.1462 -0.0413  0.0587
  367loPI   C3A 5865  16.397  13.769   8.964 -0.0874  0.1267 -0.1133
  367loPI   C4A 5866  16.421  13.832   8.503  0.0194  0.0225  0.1825
  367loPI   C5A 5867  16.401  13.836   8.103  0.1765 -0.1059  0.0106
  367loPI   C6A 5868  16.322  14.013   7.707  0.0704  0.2974 -0.1318
  367loPI   C1B 5869  16.794  13.475   9.916  0.0534  0.0799 -0.1506
  367loPI   C2B 5870  16.816  13.571   9.451  0.0971 -0.0059 -0.1059
  367loPI   C3B 5871  16.837  13.555   9.046 -0.2004 -0.4304 -0.2381
  367loPI   C4B 5872  16.764  13.513   8.678 -0.0372 -0.2068  0.0581
  368loPI    C1 5873   2.039   8.947  11.043 -0.1861 -0.0329  0.2735
  368loPI    C2 5874   2.319   8.663  11.078  0.0040  0.1258  0.0715
  368loPI    C3 5875   2.383   9.027  11.230 -0.1184  0.1455  0.0767
  368loPI   PO4 5876   1.963   8.883  10.781  0.1724  0.0171 -0.2371
  368loPI   GL1 5877   1.844   8.860  10.307 -0.2628 -0.0059 -0.0272
  368loPI   GL2 5878   2.173   8.754  10.285  0.0470  0.1717 -0.0275
  368loPI   C1A 5879   1.797   8.984   9.888  0.0525  0.0991  0.2551
  368loPI   C2A 5880   1.876   9.033   9.431 -0.2568 -0.0951  0.0489
  368loPI   C3A 5881   1.834   9.028   9.037  0.0126 -0.2385  0.1852
  368loPI   C4A 5882   1.880   8.959   8.639 -0.1071  0.2113  0.2051
  368loPI   C5A 5883   1.828   8.941   8.234 -0.1785  0.3227  0.0742
  368loPI   C6A 5884   1.570   9.041   7.858  0.1226  0.0065 -0.1063
  368loPI   C1B 5885   2.281   8.754   9.955  0.1744 -0.0471 -0.1303
  368loPI   C2B 5886   2.261   8.725   9.517  0.0341 -0.1909  0.3631
  368loPI   C3B 5887   2.280   8.729   9.060 -0.3741  0.0538 -0.0032
  368loPI   C4B 5888   2.369   8.615   8.687 -0.1274  0.0488  0.1717
  369loPI    C1 5889  16.662   4.059  10.860 -0.1393 -0.2623 -0.0198
  369loPI    C2 5890  16.485   3.946  11.200  0.1088  0.0158  0.2064
  369loPI    C3 5891  16.821   4.164  11.211  0.0738  0.0996 -0.2180
  369loPI   PO4 5892  16.494   4.201  10.637 -0.1173  0.2347 -0.0645
  369loPI   GL1 5893  16.568   4.422  10.368 -0.1126  0.1142 -0.0933
  369loPI   GL2 5894  16.497   4.700  10.237  0.3250 -0.0224  0.1535
  369loPI   C1A 5895  16.552   4.118   9.972 -0.1434 -0.2229 -0.1288
  369loPI   C2A 5896  16.556   4.135   9.586  0.0826  0.3617  0.1268
  369loPI   C3A 5897  16.571   4.096   9.129  0.0778  0.0321  0.1809
  369loPI   C4A 5898  16.527   4.109   8.680  0.0337  0.2156  0.1590
  369loPI   C5A 5899  16.446   3.811   8.373  0.1244  0.1560 -0.1924
  369loPI   C6A 5900  16.453   3.360   8.356 -0.0073 -0.2162 -0.1160
  369loPI   C1B 5901  16.466   4.593   9.812  0.0475 -0.0649  0.2615
  369loPI   C2B 5902  16.584   4.553   9.408 -0.1501 -0.0035  0.2435
  369loPI   C3B 5903  16.590   4.593   8.958 -0.2219 -0.0601  0.1067
  369loPI   C4B 5904  16.513   4.573   8.506  0.0950  0.1804  0.2470
  370loPI    C1 5905   6.350   1.158  10.708 -0.0737  0.0174 -0.0259
  370loPI    C2 5906   6.395   0.777  10.592  0.0522  0.0409 -0.0558
  370loPI    C3 5907   6.466   0.881  10.972 -0.1175  0.0098 -0.0144
  370loPI   PO4 5908   6.131   1.241  10.545  0.3638 -0.3189  0.1091
  370loPI   GL1 5909   5.932   1.432  10.187  0.2941  0.0135  0.0759
  370loPI   GL2 5910   6.143   1.509  10.034 -0.0939 -0.3840  0.0194
  370loPI   C1A 5911   5.652   1.764   9.952  0.3150  0.0067  0.1973
  370loPI   C2A 5912   5.711   1.856   9.586 -0.0807 -0.0655  0.0853
  370loPI   C3A 5913   5.762   1.878   9.161 -0.0359  0.0807 -0.2592
  370loPI   C4A 5914   5.691   1.914   8.745  0.2158  0.3199 -0.1609
  370loPI   C5A 5915   5.560   1.718   8.293  0.3525 -0.1236  0.1836
  370loPI   C6A 5916   5.211   1.774   8.079 -0.0603 -0.1165  0.0717
  370loPI   C1B 5917   6.159   1.620   9.613  0.4557  0.2349 -0.3125
  370loPI   C2B 5918   6.131   1.580   9.286 -0.0415 -0.1156  0.2816
  370loPI   C3B 5919   6.165   1.637   8.856 -0.0085  0.1351 -0.2826
  370loPI   C4B 5920   6.096   1.663   8.395  0.0743  0.0875  0.2553
  371loPI    C1 5921  11.471   6.897  11.153  0.0596  0.1178 -0.2191
  371loPI    C2 5922  11.668   6.726  11.456 -0.1517 -0.0915 -0.1963
  371loPI    C3 5923  11.570   7.114  11.474 -0.0354 -0.0674 -0.0624
  371loPI   PO4 5924  11.617   6.875  10.945  0.4737 -0.2038  0.0338
  371loPI   GL1 5925  11.653   7.089  10.647 -0.1838  0.2282 -0.0409
  371loPI   GL2 5926  11.813   7.098  10.464 -0.0019 -0.0081 -0.1598
  371loPI   C1A 5927  11.330   6.882  10.387 -0.0082  0.0716  0.0004
  371loPI   C2A 5928  11.244   6.801   9.914  0.0686  0.2609  0.1394
  371loPI   C3A 5929  11.239   6.788   9.469  0.1787  0.0111  0.0510
  371loPI   C4A 5930  11.155   6.848   9.074  0.0015 -0.0559  0.0258
  371loPI   C5A 5931  10.889   7.087   8.752  0.3028  0.1110 -0.3863
  371loPI   C6A 5932  10.580   7.252   8.579  0.4236 -0.2363 -0.0122
  371loPI   C1B 5933  11.693   7.132  10.022 -0.0069 -0.0563 -0.2846
  371loPI   C2B 5934  11.685   7.030   9.574 -0.2641 -0.0324 -0.1308
  371loPI   C3B 5935  11.710   7.056   9.185  0.0412 -0.1375  0.1048
  371loPI   C4B 5936  11.742   7.157   8.782  0.4662 -0.1365 -0.2998
  372loPI    C1 5937  15.882   0.430  11.403  0.1542 -0.0031  0.4732
  372loPI    C2 5938  15.517   0.571  11.484 -0.0165 -0.2109  0.0951
  372loPI    C3 5939  15.763   0.469  11.782 -0.1672  0.1717  0.3580
  372loPI   PO4 5940  15.895   0.629  11.174 -0.0034 -0.1933  0.2649
  372loPI   GL1 5941  15.811   0.695  10.694  0.0560 -0.1182 -0.0357
  372loPI   GL2 5942  16.124   0.638  10.714  0.0621 -0.2844 -0.0519
  372loPI   C1A 5943  15.569   0.706  10.283 -0.4207  0.1700 -0.3306
  372loPI   C2A 5944  15.496   0.652   9.892  0.0967  0.2047 -0.0892
  372loPI   C3A 5945  15.535   0.639   9.542 -0.2046 -0.1384 -0.1353
  372loPI   C4A 5946  15.474   0.528   9.115 -0.0336  0.4339 -0.1210
  372loPI   C5A 5947  15.562   0.539   8.722 -0.0873  0.0949 -0.0971
  372loPI   C6A 5948  15.953   0.471   8.599 -0.0175  0.0530 -0.2163
  372loPI   C1B 5949  16.102   0.744  10.224 -0.0577  0.0427  0.2680
  372loPI   C2B 5950  15.976   0.858   9.814  0.0726  0.4675  0.0690
  372loPI   C3B 5951  15.967   0.819   9.453  0.1125 -0.3276 -0.0097
  372loPI   C4B 5952  15.943   0.698   8.998 -0.1171 -0.1857 -0.1725
  373loPI    C1 5953  15.151  17.265  11.325  0.0274 -0.0988  0.1714
  373loPI    C2 5954  15.462  17.052  11.457  0.0999 -0.0275  0.1173
  373loPI    C3 5955  15.523  17.374  11.228 -0.0118  0.0166  0.1487
  373loPI   PO4 5956  15.018  17.061  11.129 -0.2182 -0.0806 -0.0981
  373loPI   GL1 5957  15.162  16.980  10.752 -0.1036  0.0874  0.2248
  373loPI   GL2 5958  15.343  17.224  10.786  0.0294 -0.0488  0.1513
  373loPI   C1A 5959  15.234  17.104  10.338  0.1745 -0.0262  0.2471
  373loPI   C2A 5960  15.249  17.098   9.816  0.0546 -0.1049  0.1252
  373loPI   C3A 5961  15.196  17.109   9.398  0.4212  0.0306  0.1020
  373loPI   C4A 5962  15.245  17.191   8.992  0.1187  0.0082  0.2064
  373loPI   C5A 5963  15.223  17.178   8.560 -0.0969  0.1516 -0.0204
  373loPI   C6A 5964  15.055  16.875   8.246 -0.0598  0.2127  0.1125
  373loPI   C1B 5965  15.367  17.627  10.605  0.0821  0.0727 -0.0998
  373loPI   C2B 5966  15.385  17.633  10.160 -0.1338  0.2726 -0.0346
  373loPI   C3B 5967  15.356  17.643   9.717 -0.0591 -0.1180  0.0802
  373loPI   C4B 5968  15.347  17.647   9.251  0.0343 -0.2196 -0.1623
  374loPI    C1 5969  13.165  16.947  11.028  0.1225  0.0488 -0.0409
  374loPI    C2 5970  13.239  17.009  11.416  0.2291 -0.1313 -0.0312
  374loPI    C3 5971  12.926  16.785  11.305  0.3720 -0.3299 -0.0389
  374loPI   PO4 5972  13.352  16.853  10.899  0.3115  0.0832  0.1316
  374loPI   GL1 5973  13.618  16.820  10.583  0.1325 -0.1293 -0.0073
  374loPI   GL2 5974  13.872  16.609  10.445 -0.2009 -0.1241  0.2128
  374loPI   C1A 5975  13.462  16.950  10.182  0.2281 -0.0442 -0.1021
  374loPI   C2A 5976  13.404  16.941   9.773  0.2235 -0.0238  0.0710
  374loPI   C3A 5977  13.315  16.961   9.363 -0.0139 -0.1556  0.0716
  374loPI   C4A 5978  13.406  16.955   8.969  0.0458 -0.0388  0.1068
  374loPI   C5A 5979  13.467  17.017   8.517 -0.0359 -0.1867 -0.1315
  374loPI   C6A 5980  13.845  17.086   8.289  0.0131 -0.0636  0.2134
  374loPI   C1B 5981  13.764  16.625  10.021  0.0420  0.1487  0.4033
  374loPI   C2B 5982  13.654  16.561   9.441 -0.0835 -0.0246  0.1406
  374loPI   C3B 5983  13.769  16.611   9.009  0.1711  0.3003 -0.1259
  374loPI   C4B 5984  13.784  16.590   8.566  0.0110 -0.2780  0.2248
  375loPI    C1 5985   4.714  13.919  10.418  0.3036 -0.2775 -0.2541
  375loPI    C2 5986   4.826  13.545  10.503  0.1581 -0.2210  0.2132
  375loPI    C3 5987   4.538  13.721  10.717 -0.0114  0.0439 -0.2204
  375loPI   PO4 5988   4.661  13.902  10.169 -0.1294  0.1181  0.2026
  375loPI   GL1 5989   4.805  13.651   9.934 -0.0464 -0.1534  0.1584
  375loPI   GL2 5990   4.578  13.499   9.863  0.0781 -0.2765  0.1103
  375loPI   C1A 5991   4.818  13.879   9.508  0.0846 -0.1484  0.0810
  375loPI   C2A 5992   4.860  13.915   9.079  0.2207  0.1851  0.1645
  375loPI   C3A 5993   4.922  13.831   8.598  0.0712 -0.0604 -0.0148
  375loPI   C4A 5994   4.900  13.969   8.245 -0.0520  0.2440  0.1233
  375loPI   C5A 5995   4.938  13.768   7.969 -0.0242  0.2751  0.2749
  375loPI   C6A 5996   4.783  13.364   7.878 -0.0472 -0.0386  0.1749
  375loPI   C1B 5997   4.369  13.578   9.478 -0.0232 -0.3462  0.0734
  375loPI   C2B 5998   4.385  13.648   9.142 -0.3216  0.4272  0.1408
  375loPI   C3B 5999   4.452  13.602   8.704 -0.3017 -0.1454  0.0474
  375loPI   C4B 6000   4.519  13.670   8.301 -0.2524  0.0402 -0.0492
  376loPI    C1 6001  13.459   1.033  11.573  0.0664  0.1591  0.0344
  376loPI    C2 6002  13.824   0.898  11.481  0.0954  0.2159  0.0654
  376loPI    C3 6003  13.769   1.114  11.812  0.0334  0.2073  0.0609
  376loPI   PO4 6004  13.408   1.142  11.267  0.3104 -0.0319  0.0399
  376loPI   GL1 6005  13.534   1.062  10.810  0.1374  0.1775 -0.0784
  376loPI   GL2 6006  13.288   1.159  10.712 -0.0079 -0.3057 -0.1927
  376loPI   C1A 6007  13.809   0.954  10.488 -0.1295 -0.0311 -0.0287
  376loPI   C2A 6008  13.777   0.976  10.044  0.3215  0.0894  0.4323
  376loPI   C3A 6009  13.745   0.956   9.636  0.0898  0.0467 -0.3765
  376loPI   C4A 6010  13.733   0.992   9.208  0.0649 -0.2008 -0.1184
  376loPI   C5A 6011  13.615   1.042   8.740 -0.2519 -0.0717  0.4846
  376loPI   C6A 6012  13.659   1.219   8.327 -0.2325 -0.1170 -0.1542
  376loPI   C1B 6013  13.358   1.171  10.316  0.0051  0.1239  0.2230
  376loPI   C2B 6014  13.333   1.218   9.891 -0.2358 -0.2426 -0.2485
  376loPI   C3B 6015  13.366   1.260   9.496  0.0701 -0.0203  0.0029
  376loPI   C4B 6016  13.354   1.355   9.080 -0.0842 -0.1680 -0.1380
  377loPI    C1 6017   8.276  15.208  10.968  0.0063 -0.1277 -0.0941
  377loPI    C2 6018   8.560  15.195  11.249  0.0015 -0.0179 -0.0835
  377loPI    C3 6019   8.292  15.492  11.250 -0.0723 -0.0840 -0.1331
  377loPI   PO4 6020   8.361  15.226  10.758  0.1126  0.4638 -0.0275
  377loPI   GL1 6021   8.411  15.289  10.343 -0.0415  0.0519 -0.1034
  377loPI   GL2 6022   8.199  15.435  10.309 -0.1980  0.2842  0.2176
  377loPI   C1A 6023   8.719  15.284   9.996  0.1137  0.2488 -0.2747
  377loPI   C2A 6024   8.828  15.329   9.509  0.1569  0.2123 -0.0044
  377loPI   C3A 6025   8.827  15.426   9.166  0.2347  0.1539 -0.1647
  377loPI   C4A 6026   8.906  15.458   8.791  0.0121  0.0189  0.0365
  377loPI   C5A 6027   8.807  15.321   8.366 -0.0064 -0.1289  0.0558
  377loPI   C6A 6028   8.742  14.833   8.245 -0.4175 -0.0704 -0.2642
  377loPI   C1B 6029   8.400  15.621   9.968 -0.2749 -0.2005  0.3041
  377loPI   C2B 6030   8.426  15.610   9.440  0.0675 -0.3627 -0.0592
  377loPI   C3B 6031   8.474  15.676   8.948 -0.0264  0.0686 -0.1375
  377loPI   C4B 6032   8.462  15.563   8.570 -0.0231 -0.1735 -0.0302
  378loPI    C1 6033   8.199   4.811  11.185  0.2071  0.2275 -0.0626
  378loPI    C2 6034   8.478   4.534  11.256 -0.0369 -0.0360 -0.1113
  378loPI    C3 6035   8.394   4.808  11.534 -0.1520 -0.3288  0.1483
  378loPI   PO4 6036   8.133   4.708  10.957  0.1559  0.0565  0.0968
  378loPI   GL1 6037   7.968   4.827  10.610 -0.0345 -0.2214  0.0651
  378loPI   GL2 6038   7.923   4.443  10.516 -0.0610 -0.2020  0.1139
  378loPI   C1A 6039   7.881   5.108  10.257 -0.1835 -0.1428  0.1040
  378loPI   C2A 6040   8.005   5.086   9.883 -0.1205 -0.0195 -0.0942
  378loPI   C3A 6041   8.082   5.128   9.448  0.2710 -0.3403  0.0304
  378loPI   C4A 6042   7.997   5.123   9.005  0.0212  0.2574 -0.0537
  378loPI   C5A 6043   7.725   5.053   8.657 -0.1544 -0.3387 -0.2957
  378loPI   C6A 6044   7.779   5.381   8.300 -0.1895 -0.1458 -0.1745
  378loPI   C1B 6045   7.930   4.601  10.097  0.2021 -0.2934 -0.0188
  378loPI   C2B 6046   8.010   4.684   9.641 -0.1153 -0.1685  0.0929
  378loPI   C3B 6047   8.061   4.589   9.170 -0.0660 -0.1834 -0.2904
  378loPI   C4B 6048   8.056   4.634   8.693  0.0131  0.1004 -0.1548
  379loPI    C1 6049   2.804  11.869  10.140  0.1174  0.1427 -0.1504
  379loPI    C2 6050   2.419  11.763  10.170  0.0079  0.5972  0.1621
  379loPI    C3 6051   2.685  11.632  10.439  0.1039  0.1769 -0.1286
  379loPI   PO4 6052   2.771  11.924   9.815 -0.0124 -0.1056 -0.2690
  379loPI   GL1 6053   2.782  12.135   9.454 -0.2033  0.0011  0.1314
  379loPI   GL2 6054   2.657  12.428   9.664  0.1990  0.0612 -0.0747
  379loPI   C1A 6055   2.797  12.027   9.069 -0.0558  0.0452  0.0813
  379loPI   C2A 6056   2.886  12.022   8.642 -0.0950 -0.2044  0.0364
  379loPI   C3A 6057   2.748  12.216   8.276 -0.1503 -0.1156 -0.0692
  379loPI   C4A 6058   2.651  12.282   7.928 -0.1644  0.1479  0.0975
  379loPI   C5A 6059   2.613  12.036   7.485  0.1631 -0.1230  0.1086
  379loPI   C6A 6060   2.274  12.018   7.227 -0.1997  0.4390  0.1519
  379loPI   C1B 6061   2.346  12.418   9.332 -0.0236 -0.1338 -0.4173
  379loPI   C2B 6062   2.368  12.412   8.951 -0.1175  0.1919 -0.3593
  379loPI   C3B 6063   2.386  12.420   8.537  0.0404  0.1082  0.3773
  379loPI   C4B 6064   2.267  12.502   8.193 -0.3047 -0.0177  0.4270
  380loPI    C1 6065  17.455   7.524  10.946  0.1496 -0.0091 -0.1167
  380loPI    C2 6066  17.180   7.742  11.139  0.1295 -0.0548 -0.0938
  380loPI    C3 6067  17.452   7.534  11.346  0.2105  0.0271 -0.1171
  380loPI   PO4 6068  17.464   7.597  10.776  0.0925  0.0278 -0.0023
  380loPI   GL1 6069  17.326   7.428  10.353  0.0274  0.0933 -0.0704
  380loPI   GL2 6070  17.377   7.743  10.182  0.3969  0.3139  0.2876
  380loPI   C1A 6071  17.460   7.296  10.012 -0.0576 -0.1789  0.0740
  380loPI   C2A 6072  17.480   7.256   9.606  0.1244  0.2160  0.1602
  380loPI   C3A 6073  17.480   7.133   9.253  0.0405 -0.1041 -0.1428
  380loPI   C4A 6074  17.608   7.080   8.873 -0.0695  0.0647 -0.3219
  380loPI   C5A 6075  17.661   7.196   8.441 -0.2173 -0.1053 -0.4025
  380loPI   C6A 6076  17.712   7.295   8.016 -0.1054  0.1562  0.0872
  380loPI   C1B 6077  17.443   7.752   9.745 -0.1912  0.0526 -0.0024
  380loPI   C2B 6078  17.468   7.705   9.315 -0.1078 -0.1497 -0.0214
  380loPI   C3B 6079  17.582   7.611   8.855  0.0978  0.0564  0.1281
  380loPI   C4B 6080  17.750   7.659   8.402 -0.3478  0.2274 -0.1369
  381loPI    C1 6081   2.506   4.769  10.848 -0.0322  0.0043 -0.0796
  381loPI    C2 6082   2.337   4.640  11.187  0.0303 -0.2234 -0.1330
  381loPI    C3 6083   2.356   5.032  11.109 -0.0685 -0.1743  0.0821
  381loPI   PO4 6084   2.407   4.582  10.699  0.1661 -0.2555  0.0401
  381loPI   GL1 6085   2.213   4.679  10.257  0.3160  0.2309 -0.0819
  381loPI   GL2 6086   2.595   4.823  10.329  0.2568  0.0899  0.0491
  381loPI   C1A 6087   2.193   4.613   9.776 -0.1127  0.1382  0.0509
  381loPI   C2A 6088   2.145   4.543   9.261  0.1604  0.1917  0.1756
  381loPI   C3A 6089   2.063   4.603   8.810 -0.2949  0.4039 -0.2122
  381loPI   C4A 6090   2.245   4.475   8.411  0.0004  0.0783 -0.0038
  381loPI   C5A 6091   2.591   4.459   8.206  0.0713  0.2436 -0.0076
  381loPI   C6A 6092   2.858   4.232   7.930  0.1445 -0.2816 -0.1844
  381loPI   C1B 6093   2.685   4.810   9.863  0.2587  0.0156  0.2139
  381loPI   C2B 6094   2.677   4.781   9.454  0.1174  0.2249 -0.4171
  381loPI   C3B 6095   2.669   4.747   9.032  0.0826 -0.2536  0.2538
  381loPI   C4B 6096   2.552   4.806   8.628 -0.2254  0.1219 -0.0911
  382loPI    C1 6097  14.842   1.854  10.963  0.0194  0.0953  0.0325
  382loPI    C2 6098  15.024   2.190  11.081  0.0627  0.0522  0.0884
  382loPI    C3 6099  14.649   2.113  11.199  0.0641  0.0658  0.1016
  382loPI   PO4 6100  14.886   1.830  10.739 -0.0817 -0.1300  0.1731
  382loPI   GL1 6101  15.201   1.775  10.454  0.4006 -0.0529  0.3597
  382loPI   GL2 6102  15.202   1.488  10.365 -0.0815  0.1305 -0.1231
  382loPI   C1A 6103  15.064   1.945  10.040 -0.3927 -0.1670 -0.1492
  382loPI   C2A 6104  15.159   1.846   9.627 -0.0920 -0.2124  0.0644
  382loPI   C3A 6105  15.063   1.854   9.151  0.0517  0.0841  0.1244
  382loPI   C4A 6106  14.960   1.815   8.679  0.3143  0.0396 -0.3794
  382loPI   C5A 6107  15.182   1.873   8.316 -0.0281  0.0754 -0.0598
  382loPI   C6A 6108  15.563   1.766   8.107  0.0592 -0.1216 -0.1043
  382loPI   C1B 6109  15.270   1.456   9.866 -0.3523  0.0532 -0.1273
  382loPI   C2B 6110  15.185   1.392   9.422 -0.0303 -0.3622  0.3386
  382loPI   C3B 6111  14.936   1.342   9.040  0.0012 -0.2598 -0.1338
  382loPI   C4B 6112  14.905   1.350   8.565  0.0848 -0.2725  0.1284
  383loPI    C1 6113  12.043   4.178  11.295  0.2481 -0.1853 -0.0164
  383loPI    C2 6114  12.260   3.989  11.573  0.0984 -0.0062  0.2265
  383loPI    C3 6115  12.117   4.355  11.646 -0.4340 -0.1890  0.1432
  383loPI   PO4 6116  12.113   4.120  10.993  0.0787 -0.1109  0.0185
  383loPI   GL1 6117  11.967   4.066  10.591  0.0610  0.1510 -0.2817
  383loPI   GL2 6118  11.671   4.020  10.543 -0.0304 -0.1712  0.2545
  383loPI   C1A 6119  12.039   4.132  10.216 -0.1171 -0.0832 -0.0700
  383loPI   C2A 6120  12.194   4.170   9.861 -0.4004  0.2131  0.2274
  383loPI   C3A 6121  12.130   4.272   9.503  0.2657 -0.0614 -0.0546
  383loPI   C4A 6122  12.054   4.286   9.162  0.0680  0.0627 -0.0652
  383loPI   C5A 6123  12.072   4.298   8.755 -0.0047 -0.0643  0.1694
  383loPI   C6A 6124  11.877   4.283   8.318 -0.4393 -0.1093 -0.0800
  383loPI   C1B 6125  11.540   3.933  10.119 -0.3238  0.0407  0.1799
  383loPI   C2B 6126  11.655   3.919   9.677 -0.2160 -0.1183 -0.0665
  383loPI   C3B 6127  11.648   3.936   9.231 -0.0135 -0.0762 -0.1155
  383loPI   C4B 6128  11.619   3.938   8.812 -0.0260  0.2031 -0.3808
  384loPI    C1 6129   1.834   4.919  11.158  0.0356 -0.1585  0.0525
  384loPI    C2 6130   2.015   4.852  11.509 -0.2245 -0.1593  0.1887
  384loPI    C3 6131   2.001   5.223  11.359  0.1144 -0.1995  0.0493
  384loPI   PO4 6132   1.942   4.756  10.943  0.2991 -0.2011  0.1704
  384loPI   GL1 6133   1.806   4.810  10.477 -0.0517 -0.0236  0.0762
  384loPI   GL2 6134   1.775   4.490  10.540  0.3210 -0.0109 -0.2863
  384loPI   C1A 6135   1.689   4.950  10.012 -0.0529  0.0962  0.2800
  384loPI   C2A 6136   1.718   4.781   9.541 -0.0908 -0.1466 -0.1972
  384loPI   C3A 6137   1.711   4.809   9.178  0.0420 -0.0584  0.1508
  384loPI   C4A 6138   1.594   4.844   8.745  0.3511 -0.0947  0.1546
  384loPI   C5A 6139   1.606   4.623   8.363 -0.2218 -0.0405 -0.0087
  384loPI   C6A 6140   1.552   4.336   7.888  0.0913 -0.2984 -0.0109
  384loPI   C1B 6141   1.781   4.467  10.092 -0.3057  0.0660 -0.2166
  384loPI   C2B 6142   1.679   4.297   9.695 -0.0077  0.2002 -0.1682
  384loPI   C3B 6143   1.680   4.314   9.258  0.4716  0.3042  0.2417
  384loPI   C4B 6144   1.674   4.354   8.797 -0.0366  0.1581 -0.0341
  385loPI    C1 6145  11.416  15.940  10.908  0.3230  0.1418  0.0460
  385loPI    C2 6146  11.659  16.148  11.148  0.0745  0.3360  0.1339
  385loPI    C3 6147  11.265  16.148  11.214  0.0456  0.0436 -0.0213
  385loPI   PO4 6148  11.495  15.705  10.905 -0.0364 -0.0621  0.0697
  385loPI   GL1 6149  11.715  15.481  10.580 -0.2240 -0.3677  0.0356
  385loPI   GL2 6150  11.921  15.737  10.413 -0.1096  0.1459  0.0895
  385loPI   C1A 6151  11.679  15.329  10.156  0.0845 -0.2759  0.0467
  385loPI   C2A 6152  11.778  15.373   9.741 -0.0003 -0.2126  0.0051
  385loPI   C3A 6153  11.753  15.428   9.245  0.2802  0.1131  0.0847
  385loPI   C4A 6154  11.712  15.301   8.825 -0.1729  0.0791 -0.0208
  385loPI   C5A 6155  11.463  15.265   8.438 -0.2091 -0.0033  0.0428
  385loPI   C6A 6156  11.092  15.253   8.180  0.0437 -0.0324  0.2572
  385loPI   C1B 6157  12.140  15.620  10.033  0.4957  0.3156  0.1391
  385loPI   C2B 6158  12.198  15.564   9.573  0.1501  0.1648  0.4835
  385loPI   C3B 6159  12.220  15.548   9.194  0.0062 -0.1861 -0.2562
  385loPI   C4B 6160  12.182  15.512   8.799 -0.1940  0.1057  0.0809
  386loPI    C1 6161  11.929  14.247  11.118  0.1019  0.0490 -0.1683
  386loPI    C2 6162  11.857  14.620  10.993 -0.4824  0.0747  0.2084
  386loPI    C3 6163  11.943  14.552  11.377  0.0381 -0.1410  0.0616
  386loPI   PO4 6164  12.073  14.169  10.988 -0.0682  0.1818  0.0028
  386loPI   GL1 6165  11.949  13.781  10.610  0.0293 -0.2675 -0.1419
  386loPI   GL2 6166  12.019  14.031  10.509  0.0296 -0.0633  0.1816
  386loPI   C1A 6167  12.276  13.688  10.283 -0.1693 -0.1455 -0.1177
  386loPI   C2A 6168  12.333  13.724   9.928 -0.1087  0.2391  0.2566
  386loPI   C3A 6169  12.400  13.743   9.530 -0.1310  0.2339  0.0613
  386loPI   C4A 6170  12.216  13.746   9.158  0.0391 -0.0988  0.1078
  386loPI   C5A 6171  12.244  13.736   8.712 -0.0678 -0.0527 -0.1365
  386loPI   C6A 6172  12.155  13.608   8.373 -0.0324 -0.0765  0.3609
  386loPI   C1B 6173  12.357  14.215  10.097  0.2997  0.1521 -0.0795
  386loPI   C2B 6174  12.476  14.221   9.736  0.1674 -0.1501  0.0253
  386loPI   C3B 6175  12.319  14.184   9.325 -0.1258  0.0533  0.3082
  386loPI   C4B 6176  12.332  14.214   8.899  0.0653  0.0064  0.0143
  387loPI    C1 6177   3.044  16.530  11.079  0.1911  0.0979  0.0865
  387loPI    C2 6178   3.323  16.368  11.315 -0.0445  0.0363  0.3283
  387loPI    C3 6179   2.950  16.416  11.451 -0.1151  0.2637  0.0638
  387loPI   PO4 6180   3.086  16.485  10.805 -0.1657  0.4404 -0.2871
  387loPI   GL1 6181   3.202  16.538  10.373  0.0908 -0.0226  0.1077
  387loPI   GL2 6182   3.482  16.525  10.390 -0.1875 -0.2836  0.1125
  387loPI   C1A 6183   3.098  16.471   9.981  0.1628  0.0579  0.2864
  387loPI   C2A 6184   3.064  16.456   9.587 -0.0510 -0.0715  0.3298
  387loPI   C3A 6185   3.102  16.578   9.226 -0.1475 -0.0826 -0.0562
  387loPI   C4A 6186   3.135  16.716   8.796 -0.1613  0.0401 -0.0613
  387loPI   C5A 6187   2.965  16.700   8.405 -0.1353  0.2648 -0.1359
  387loPI   C6A 6188   2.907  16.713   7.952  0.2146  0.3190 -0.1967
  387loPI   C1B 6189   3.514  16.679   9.897  0.3386  0.0247 -0.0626
  387loPI   C2B 6190   3.613  16.776   9.372 -0.2498  0.3229 -0.0525
  387loPI   C3B 6191   3.642  16.685   8.912 -0.0602  0.0320  0.0093
  387loPI   C4B 6192   3.524  16.895   8.607  0.1870  0.4759  0.0676
  388loPI    C1 6193   1.576   4.391  11.089  0.0362 -0.2126  0.1494
  388loPI    C2 6194   1.491   4.190  11.424 -0.4600  0.0380  0.1832
  388loPI    C3 6195   1.554   4.584  11.439  0.0122 -0.0262  0.0464
  388loPI   PO4 6196   1.465   4.218  10.935 -0.1210  0.3780 -0.1413
  388loPI   GL1 6197   1.335   4.266  10.527 -0.0433 -0.0855  0.0373
  388loPI   GL2 6198   0.982   4.220  10.600  0.2235  0.2984  0.0551
  388loPI   C1A 6199   1.326   4.123  10.070  0.2727  0.1533 -0.2841
  388loPI   C2A 6200   1.261   4.015   9.768 -0.0201  0.0952  0.0084
  388loPI   C3A 6201   1.214   4.064   9.466  0.0849 -0.0159  0.1849
  388loPI   C4A 6202   1.217   4.010   9.142 -0.0818 -0.3324 -0.0506
  388loPI   C5A 6203   1.167   3.988   8.647  0.0310 -0.0747 -0.2727
  388loPI   C6A 6204   1.207   3.689   8.417 -0.0214 -0.0773  0.1020
  388loPI   C1B 6205   0.783   4.371  10.121 -0.0482  0.1572  0.0057
  388loPI   C2B 6206   0.816   4.323   9.710 -0.0241  0.0763 -0.1492
  388loPI   C3B 6207   0.732   4.196   9.334  0.0776 -0.1662 -0.1593
  388loPI   C4B 6208   0.804   4.184   8.936 -0.0712  0.1587 -0.1707
  389loPI    C1 6209  14.203   5.064  11.067  0.0519  0.1290  0.0060
  389loPI    C2 6210  14.004   5.299  11.323 -0.0849 -0.0521  0.0679
  389loPI    C3 6211  14.134   4.939  11.441  0.2519  0.0489  0.0178
  389loPI   PO4 6212  14.347   5.205  10.884  0.0242 -0.2116 -0.0324
  389loPI   GL1 6213  14.426   5.210  10.624  0.2075 -0.0419 -0.4617
  389loPI   GL2 6214  14.501   5.487  10.459  0.4188 -0.0873 -0.0784
  389loPI   C1A 6215  14.309   5.034  10.146  0.2537  0.1049 -0.0699
  389loPI   C2A 6216  14.332   5.026   9.675 -0.2761 -0.2446  0.0746
  389loPI   C3A 6217  14.303   4.985   9.223  0.0984 -0.0844  0.2767
  389loPI   C4A 6218  14.252   5.038   8.878  0.1894  0.1996  0.1344
  389loPI   C5A 6219  14.395   5.090   8.491 -0.0441  0.2306  0.1703
  389loPI   C6A 6220  14.534   4.701   8.068  0.1959 -0.2154 -0.1971
  389loPI   C1B 6221  14.371   5.493   9.986 -0.0486  0.1400  0.1031
  389loPI   C2B 6222  14.360   5.504   9.527 -0.0428 -0.3730 -0.3961
  389loPI   C3B 6223  14.308   5.510   9.115  0.0565  0.0371  0.0173
  389loPI   C4B 6224  14.274   5.573   8.680 -0.2066  0.0170  0.2787
  390loPI    C1 6225   9.420   1.989  11.116 -0.1899 -0.0202 -0.2001
  390loPI    C2 6226   9.374   2.378  11.032 -0.3214  0.0518  0.1871
  390loPI    C3 6227   9.528   2.265  11.384  0.2200 -0.2414 -0.1304
  390loPI   PO4 6228   9.487   1.920  10.842 -0.0083  0.2631  0.3163
  390loPI   GL1 6229   9.560   2.014  10.383 -0.0573  0.2766  0.0352
  390loPI   GL2 6230   9.375   2.010  10.159  0.0856  0.0367 -0.2719
  390loPI   C1A 6231   9.787   1.902   9.968  0.1549  0.1746 -0.0589
  390loPI   C2A 6232   9.721   1.945   9.448 -0.0259 -0.0130  0.5429
  390loPI   C3A 6233   9.793   1.986   9.022  0.0743  0.1579  0.0268
  390loPI   C4A 6234   9.747   2.002   8.538  0.1957  0.1386 -0.1653
  390loPI   C5A 6235   9.644   2.057   8.109  0.1922  0.3099  0.1933
  390loPI   C6A 6236   9.823   2.381   7.788  0.2244 -0.1495 -0.2496
  390loPI   C1B 6237   9.402   2.201   9.749 -0.2262 -0.0163  0.1795
  390loPI   C2B 6238   9.273   2.243   9.351 -0.0975  0.0707 -0.1122
  390loPI   C3B 6239   9.275   2.288   8.880  0.3301 -0.1993  0.0394
  390loPI   C4B 6240   9.353   2.321   8.468 -0.3345 -0.2025 -0.2952
  391loPI    C1 6241  13.442  14.278  11.030  0.0330  0.0332  0.0808
  391loPI    C2 6242  13.078  14.239  11.192 -0.0585  0.1518 -0.0926
  391loPI    C3 6243  13.396  14.305  11.426 -0.1233 -0.1115  0.0740
  391loPI   PO4 6244  13.411  14.500  10.852  0.1656  0.0226 -0.3721
  391loPI   GL1 6245  13.324  14.604  10.410  0.0550  0.4192 -0.2812
  391loPI   GL2 6246  13.629  14.532  10.408  0.0821  0.2566  0.1996
  391loPI   C1A 6247  13.328  14.605  10.025 -0.0914 -0.0204  0.1990
  391loPI   C2A 6248  13.274  14.553   9.642 -0.1413  0.0639 -0.3040
  391loPI   C3A 6249  13.329  14.540   9.201  0.3589 -0.1603  0.2025
  391loPI   C4A 6250  13.400  14.669   8.803  0.2276 -0.1456  0.1175
  391loPI   C5A 6251  13.468  14.438   8.365 -0.1667 -0.0648 -0.0085
  391loPI   C6A 6252  13.158  14.138   8.312 -0.2632  0.0376 -0.0888
  391loPI   C1B 6253  13.733  14.336  10.028 -0.1177  0.1406 -0.1594
  391loPI   C2B 6254  13.680  14.245   9.499  0.0313  0.0193  0.2123
  391loPI   C3B 6255  13.697  14.291   9.007 -0.0371  0.1347  0.2176
  391loPI   C4B 6256  13.816  14.304   8.655 -0.0855 -0.1664 -0.0246
  392loPI    C1 6257   2.123   6.307  11.008 -0.0898  0.2173  0.2398
  392loPI    C2 6258   1.990   6.051  11.284  0.1132  0.0115  0.1506
  392loPI    C3 6259   2.211   6.365  11.394  0.1030 -0.0098  0.2331
  392loPI   PO4 6260   1.905   6.283  10.824 -0.0331  0.2980 -0.0133
  392loPI   GL1 6261   1.867   6.172  10.525  0.2531  0.0802 -0.2645
  392loPI   GL2 6262   1.570   6.330  10.350 -0.2393  0.2188 -0.0234
  392loPI   C1A 6263   2.059   5.883  10.155  0.1936 -0.1951  0.2731
  392loPI   C2A 6264   2.128   5.606   9.749 -0.0449  0.3631 -0.0052
  392loPI   C3A 6265   2.163   5.485   9.264 -0.1292  0.1733 -0.2430
  392loPI   C4A 6266   2.128   5.597   8.821  0.2051 -0.2537 -0.0982
  392loPI   C5A 6267   2.132   5.527   8.449  0.1950  0.1002  0.1979
  392loPI   C6A 6268   1.795   5.713   8.179  0.0289 -0.1006 -0.4302
  392loPI   C1B 6269   1.634   6.432   9.913 -0.0739 -0.0508  0.2837
  392loPI   C2B 6270   1.726   6.278   9.452  0.0289 -0.1467 -0.0144
  392loPI   C3B 6271   1.767   6.316   8.993 -0.2967 -0.3986 -0.1100
  392loPI   C4B 6272   1.832   6.463   8.492  0.0936 -0.1517  0.0717
  393loPI    C1 6273  14.856  15.560  10.823 -0.1023 -0.0658 -0.1216
  393loPI    C2 6274  14.529  15.526  11.050  0.1127 -0.2884  0.1632
  393loPI    C3 6275  14.845  15.729  11.185  0.1329 -0.1626 -0.0672
  393loPI   PO4 6276  14.807  15.537  10.573 -0.0253  0.0924 -0.2940
  393loPI   GL1 6277  14.898  15.829  10.364 -0.0754 -0.0021  0.0222
  393loPI   GL2 6278  15.011  15.591  10.156 -0.1869 -0.2875 -0.1854
  393loPI   C1A 6279  14.514  15.924  10.052 -0.2467 -0.3040 -0.0318
  393loPI   C2A 6280  14.483  15.963   9.578  0.1491  0.0355 -0.3347
  393loPI   C3A 6281  14.499  15.920   9.092  0.0866 -0.5533 -0.1834
  393loPI   C4A 6282  14.556  15.994   8.661 -0.0456 -0.3681  0.1920
  393loPI   C5A 6283  14.258  16.226   8.330  0.1155 -0.2416  0.0830
  393loPI   C6A 6284  14.328  16.265   8.008  0.1200 -0.2524  0.0976
  393loPI   C1B 6285  14.905  15.687   9.728 -0.0762  0.2501 -0.1811
  393loPI   C2B 6286  14.986  15.633   9.265 -0.4391 -0.0205  0.0296
  393loPI   C3B 6287  15.019  15.667   8.865  0.1796  0.0304  0.0570
  393loPI   C4B 6288  14.949  15.633   8.422  0.5522 -0.1020  0.1995
  394loPI    C1 6289   0.149   5.926  10.999 -0.1104  0.0790 -0.0906
  394loPI    C2 6290   0.412   5.888  11.298 -0.1711  0.0685 -0.0384
  394loPI    C3 6291   0.021   5.835  11.367 -0.1464 -0.3843 -0.2108
  394loPI   PO4 6292   0.318   5.988  10.769 -0.0606  0.3600  0.0917
  394loPI   GL1 6293   0.364   6.153  10.401 -0.2252 -0.1513 -0.0031
  394loPI   GL2 6294   0.679   6.356  10.349  0.1831  0.3245  0.2882
  394loPI   C1A 6295   0.327   6.139   9.989 -0.0757 -0.1947  0.0165
  394loPI   C2A 6296   0.356   6.090   9.590 -0.1686 -0.0949 -0.0717
  394loPI   C3A 6297   0.391   6.080   9.203 -0.0121  0.2485 -0.2727
  394loPI   C4A 6298   0.415   6.130   8.752  0.0045  0.0989  0.0321
  394loPI   C5A 6299   0.591   6.233   8.289 -0.0241  0.1020  0.1322
  394loPI   C6A 6300   1.028   6.492   8.191 -0.0804 -0.1321  0.1609
  394loPI   C1B 6301   0.790   6.390   9.930  0.1063 -0.3258  0.0337
  394loPI   C2B 6302   0.833   6.422   9.551  0.0948 -0.1176  0.3115
  394loPI   C3B 6303   0.804   6.297   9.092 -0.1286  0.0043  0.1934
  394loPI   C4B 6304   0.902   6.308   8.631  0.1074  0.0409  0.0490
  395loPI    C1 6305   5.263   0.963  11.047  0.0929  0.1074 -0.1446
  395loPI    C2 6306   5.057   1.273  11.195  0.1232  0.0344  0.0526
  395loPI    C3 6307   5.378   1.134  11.389  0.0325 -0.2047  0.0355
  395loPI   PO4 6308   5.048   0.817  10.984 -0.1275 -0.0492  0.0425
  395loPI   GL1 6309   4.906   0.776  10.477 -0.0902 -0.1851 -0.1093
  395loPI   GL2 6310   5.327   0.853  10.512  0.1437  0.1659  0.0474
  395loPI   C1A 6311   4.763   0.660  10.046 -0.1795  0.1084 -0.0403
  395loPI   C2A 6312   4.790   0.693   9.597 -0.2020  0.0310  0.0605
  395loPI   C3A 6313   4.669   0.837   9.173  0.4743 -0.1471  0.0778
  395loPI   C4A 6314   4.649   0.867   8.747 -0.2145 -0.2250  0.0658
  395loPI   C5A 6315   4.553   0.979   8.231  0.1633  0.0813 -0.3063
  395loPI   C6A 6316   4.172   0.792   7.988 -0.1672  0.0882  0.1905
  395loPI   C1B 6317   5.279   0.752  10.061 -0.3616  0.0976  0.0111
  395loPI   C2B 6318   5.195   0.941   9.713  0.2548  0.0277 -0.0940
  395loPI   C3B 6319   5.102   1.032   9.248  0.2328 -0.0407  0.0334
  395loPI   C4B 6320   5.274   1.162   8.830  0.4473  0.4165 -0.2762
  396loPI    C1 6321   7.935  16.695  10.751 -0.0493  0.0177 -0.0890
  396loPI    C2 6322   8.117  16.958  10.990  0.0905 -0.2461  0.1000
  396loPI    C3 6323   7.735  16.858  11.057 -0.0519  0.1147 -0.1419
  396loPI   PO4 6324   7.966  16.731  10.484  0.0610  0.3436  0.0606
  396loPI   GL1 6325   8.109  16.579  10.062 -0.2823  0.2780 -0.5277
  396loPI   GL2 6326   8.230  16.858  10.110  0.2144 -0.3332  0.2610
  396loPI   C1A 6327   8.071  16.539   9.590 -0.0038 -0.2805  0.0940
  396loPI   C2A 6328   8.062  16.413   9.224 -0.1697 -0.0411 -0.1144
  396loPI   C3A 6329   8.050  16.480   8.717  0.0321 -0.0352  0.1469
  396loPI   C4A 6330   8.182  16.639   8.303 -0.0729  0.2615 -0.4634
  396loPI   C5A 6331   8.634  16.757   8.117 -0.2266 -0.0781  0.1871
  396loPI   C6A 6332   8.769  17.226   8.011 -0.2902 -0.0578  0.3631
  396loPI   C1B 6333   8.240  17.030   9.681  0.0837  0.1448 -0.2014
  396loPI   C2B 6334   8.203  16.903   9.227  0.2566  0.1814  0.0581
  396loPI   C3B 6335   8.188  17.018   8.831 -0.1017  0.1999  0.0244
  396loPI   C4B 6336   8.361  17.138   8.413  0.2326  0.1881 -0.1485
  397loPI    C1 6337  15.580  15.131  10.695 -0.0697 -0.2000 -0.1942
  397loPI    C2 6338  15.737  15.219  11.052 -0.0867  0.0960 -0.2571
  397loPI    C3 6339  15.411  14.989  11.028  0.1049 -0.1973 -0.1033
  397loPI   PO4 6340  15.756  15.293  10.529  0.0253 -0.3319 -0.0837
  397loPI   GL1 6341  16.148  15.452  10.192 -0.0549  0.1733  0.1283
  397loPI   GL2 6342  16.358  15.621  10.130 -0.1744  0.0446 -0.0546
  397loPI   C1A 6343  15.848  15.396   9.839 -0.0527  0.0442 -0.1547
  397loPI   C2A 6344  15.812  15.488   9.449 -0.1532 -0.1544 -0.0514
  397loPI   C3A 6345  15.849  15.523   8.961  0.0597  0.1543 -0.2718
  397loPI   C4A 6346  15.897  15.513   8.565 -0.0231 -0.1948 -0.1454
  397loPI   C5A 6347  15.828  15.691   8.081  0.1695  0.0935 -0.3683
  397loPI   C6A 6348  15.594  15.788   7.674  0.0296 -0.0502  0.0911
  397loPI   C1B 6349  16.336  15.630   9.638  0.0436  0.0415  0.1432
  397loPI   C2B 6350  16.349  15.639   9.238  0.1118  0.0575  0.0885
  397loPI   C3B 6351  16.343  15.610   8.749 -0.1076 -0.0477  0.1120
  397loPI   C4B 6352  16.314  15.639   8.277  0.1046  0.0712  0.1611
  398loPI    C1 6353   2.913   4.503  11.231  0.1867  0.0382  0.0221
  398loPI    C2 6354   2.856   4.898  11.194 -0.2095 -0.0096  0.0877
  398loPI    C3 6355   2.885   4.733  11.557  0.0468 -0.0308  0.0592
  398loPI   PO4 6356   2.862   4.443  10.971 -0.1489  0.0071  0.1233
  398loPI   GL1 6357   3.002   4.245  10.596 -0.0170  0.1409  0.1237
  398loPI   GL2 6358   2.837   4.418  10.418  0.1250  0.0299 -0.0250
  398loPI   C1A 6359   3.017   4.005  10.231  0.3180 -0.3092  0.4150
  398loPI   C2A 6360   3.066   4.054   9.818  0.2728  0.1871  0.0289
  398loPI   C3A 6361   3.098   4.020   9.390  0.1262  0.2366 -0.2991
  398loPI   C4A 6362   3.160   4.046   8.947 -0.2106  0.1192  0.0515
  398loPI   C5A 6363   3.109   4.019   8.499 -0.1702  0.0016  0.1221
  398loPI   C6A 6364   2.948   3.841   8.163 -0.0553 -0.1262  0.4006
  398loPI   C1B 6365   2.600   4.339  10.097 -0.2481  0.0950 -0.1363
  398loPI   C2B 6366   2.565   4.298   9.672 -0.0066 -0.0612 -0.3393
  398loPI   C3B 6367   2.678   4.268   9.244 -0.3415 -0.1391 -0.1575
  398loPI   C4B 6368   2.490   4.286   8.867 -0.0489  0.2230  0.1175
  399loPI    C1 6369   5.771  11.894  10.943  0.0612 -0.0662  0.1885
  399loPI    C2 6370   5.464  11.674  11.076 -0.0118 -0.0874 -0.0112
  399loPI    C3 6371   5.784  11.734  11.310 -0.3643  0.3264  0.3844
  399loPI   PO4 6372   5.794  11.768  10.673  0.4056  0.3311  0.0106
  399loPI   GL1 6373   5.787  11.725  10.242 -0.1704 -0.2276 -0.1073
  399loPI   GL2 6374   5.531  11.715  10.161  0.2537 -0.0326  0.0304
  399loPI   C1A 6375   5.959  11.716   9.851  0.1837  0.0217 -0.0845
  399loPI   C2A 6376   6.062  11.648   9.441 -0.1238  0.0028  0.1501
  399loPI   C3A 6377   6.019  11.686   8.994  0.3511  0.0390 -0.1067
  399loPI   C4A 6378   6.065  11.745   8.557  0.1966 -0.1737  0.0057
  399loPI   C5A 6379   5.910  11.740   8.203  0.1471  0.1037  0.1229
  399loPI   C6A 6380   5.837  11.528   7.745 -0.0231 -0.0903  0.1266
  399loPI   C1B 6381   5.450  11.571   9.829 -0.2401 -0.0351  0.2135
  399loPI   C2B 6382   5.591  11.409   9.432  0.2275 -0.1005  0.1188
  399loPI   C3B 6383   5.613  11.430   8.986 -0.1652  0.0292  0.1006
  399loPI   C4B 6384   5.495  11.312   8.479 -0.1241  0.2919 -0.0033
  400loPI    C1 6385  12.366  14.643  11.129 -0.0588  0.0446  0.0685
  400loPI    C2 6386  12.653  14.599  11.404 -0.2005 -0.3171  0.1636
  400loPI    C3 6387  12.327  14.814  11.488 -0.0461 -0.0628  0.1214
  400loPI   PO4 6388  12.574  14.663  10.922  0.1761  0.0998 -0.1148
  400loPI   GL1 6389  12.591  14.822  10.502 -0.1182  0.0135  0.0725
  400loPI   GL2 6390  12.875  14.942  10.309 -0.0094 -0.0616 -0.1938
  400loPI   C1A 6391  12.420  14.749  10.113 -0.3457  0.0770  0.3940
  400loPI   C2A 6392  12.470  14.694   9.691 -0.0663 -0.0282  0.1949
  400loPI   C3A 6393  12.401  14.679   9.297 -0.2209 -0.1411  0.0472
  400loPI   C4A 6394  12.401  14.703   8.777 -0.2236  0.1487  0.0692
  400loPI   C5A 6395  12.214  14.483   8.388  0.0346  0.2490  0.1923
  400loPI   C6A 6396  12.290  14.088   8.150  0.2911  0.0089  0.1450
  400loPI   C1B 6397  12.939  14.926   9.866 -0.0704 -0.1249  0.3298
  400loPI   C2B 6398  12.940  14.901   9.397 -0.0791  0.5480  0.0754
  400loPI   C3B 6399  12.946  14.911   8.922 -0.0270  0.0491  0.0806
  400loPI   C4B 6400  12.884  14.780   8.505  0.0462 -0.0288 -0.1493
  401loPI    C1 6401  10.440   3.390  10.904 -0.1340  0.0206  0.1545
  401loPI    C2 6402  10.515   3.052  10.702 -0.1377  0.0868  0.0416
  401loPI    C3 6403  10.453   3.040  11.097  0.1338 -0.0112  0.0827
  401loPI   PO4 6404  10.156   3.434  10.846 -0.2252 -0.1902 -0.1163
  401loPI   GL1 6405   9.963   3.211  10.502 -0.0484  0.0806 -0.2834
  401loPI   GL2 6406  10.226   3.070  10.342  0.0127 -0.1031 -0.1433
  401loPI   C1A 6407   9.847   3.349  10.105 -0.2505 -0.0175  0.0591
  401loPI   C2A 6408   9.953   3.431   9.671  0.0012  0.2246  0.0245
  401loPI   C3A 6409   9.951   3.518   9.258 -0.0607  0.0936 -0.0608
  401loPI   C4A 6410   9.809   3.555   8.818  0.2035 -0.0869 -0.0798
  401loPI   C5A 6411   9.862   3.495   8.428  0.0836  0.1946  0.2720
  401loPI   C6A 6412   9.526   3.278   8.243 -0.2948  0.0664  0.2139
  401loPI   C1B 6413  10.275   3.173   9.904  0.0901  0.2018  0.0882
  401loPI   C2B 6414  10.330   3.163   9.484  0.1811 -0.0220 -0.1107
  401loPI   C3B 6415  10.251   3.198   9.033 -0.0723 -0.0771 -0.0482
  401loPI   C4B 6416  10.357   3.215   8.615 -0.0240  0.2093 -0.0330
  402loPI    C1 6417  13.760   5.793  11.217 -0.1535  0.0550 -0.0389
  402loPI    C2 6418  13.855   6.116  11.434 -0.1882  0.0835 -0.0660
  402loPI    C3 6419  14.083   5.788  11.453 -0.1381  0.1187 -0.0584
  402loPI   PO4 6420  13.703   5.899  10.935  0.0940 -0.0137  0.2135
  402loPI   GL1 6421  13.538   5.788  10.572  0.0704 -0.1407  0.1974
  402loPI   GL2 6422  13.425   6.031  10.326 -0.0920 -0.1579  0.0547
  402loPI   C1A 6423  13.408   5.535  10.306  0.1910  0.0204 -0.1486
  402loPI   C2A 6424  13.515   5.500   9.950  0.1311 -0.3556  0.0688
  402loPI   C3A 6425  13.439   5.390   9.520 -0.0917  0.0246  0.0558
  402loPI   C4A 6426  13.449   5.541   9.064  0.1223 -0.0222  0.0908
  402loPI   C5A 6427  13.501   5.508   8.559  0.1483 -0.1857 -0.1946
  402loPI   C6A 6428  13.343   5.555   8.219 -0.0729  0.1670 -0.1249
  402loPI   C1B 6429  13.525   6.043   9.816  0.0515  0.3815 -0.0015
  402loPI   C2B 6430  13.447   5.950   9.441 -0.0642 -0.1643 -0.1068
  402loPI   C3B 6431  13.441   6.091   9.036  0.1977 -0.2935 -0.1598
  402loPI   C4B 6432  13.440   6.111   8.551  0.2404  0.4050 -0.0974
  403loPI    C1 6433  14.277   8.424  11.101 -0.1358 -0.0127 -0.0688
  403loPI    C2 6434  13.983   8.155  11.128 -0.2623  0.1453  0.1685
  403loPI    C3 6435  14.216   8.228  11.444 -0.0734  0.1420  0.0319
  403loPI   PO4 6436  14.431   8.358  10.914  0.3628  0.0089 -0.2004
  403loPI   GL1 6437  14.257   8.482  10.434 -0.1430  0.1384  0.1379
  403loPI   GL2 6438  14.445   8.282  10.399  0.2103 -0.0195  0.0540
  403loPI   C1A 6439  13.988   8.497  10.020  0.1897  0.1240 -0.2021
  403loPI   C2A 6440  13.880   8.333   9.550  0.0041 -0.1096  0.0240
  403loPI   C3A 6441  14.070   8.313   9.132 -0.6148  0.2501 -0.0348
  403loPI   C4A 6442  13.970   8.369   8.654 -0.2367 -0.1945 -0.2758
  403loPI   C5A 6443  14.144   8.229   8.320 -0.0658  0.0556  0.1020
  403loPI   C6A 6444  14.529   8.340   8.186 -0.0287 -0.0573 -0.2663
  403loPI   C1B 6445  14.392   8.108  10.007 -0.0051  0.2689 -0.0981
  403loPI   C2B 6446  14.361   8.067   9.641 -0.0178  0.0677  0.4379
  403loPI   C3B 6447  14.432   8.024   9.212  0.0203 -0.0129  0.3276
  403loPI   C4B 6448  14.482   8.082   8.759  0.1157 -0.1155 -0.1638
  404loPI    C1 6449  13.474   3.987  11.575  0.0631 -0.1771  0.0793
  404loPI    C2 6450  13.789   3.997  11.821 -0.0805 -0.1797  0.2649
  404loPI    C3 6451  13.441   4.160  11.934 -0.0730  0.0612 -0.0455
  404loPI   PO4 6452  13.537   4.005  11.364 -0.2193  0.0373 -0.2352
  404loPI   GL1 6453  13.720   4.166  10.952  0.1006 -0.3458 -0.0773
  404loPI   GL2 6454  13.496   4.005  10.868 -0.0650 -0.0403 -0.0749
  404loPI   C1A 6455  13.858   4.212  10.511 -0.1146  0.1257  0.1576
  404loPI   C2A 6456  13.901   4.219  10.101  0.1819  0.2828  0.0641
  404loPI   C3A 6457  13.897   4.217   9.700 -0.0214 -0.0578  0.0984
  404loPI   C4A 6458  13.881   4.190   9.257  0.2961  0.0563 -0.0731
  404loPI   C5A 6459  13.814   4.335   8.879  0.1789  0.0224 -0.2484
  404loPI   C6A 6460  13.883   4.492   8.368 -0.0082  0.1689  0.0563
  404loPI   C1B 6461  13.508   3.928  10.382 -0.0952 -0.2386 -0.0554
  404loPI   C2B 6462  13.514   3.979   9.928  0.1504  0.1670 -0.3161
  404loPI   C3B 6463  13.434   3.945   9.514 -0.0802  0.0544  0.0799
  404loPI   C4B 6464  13.366   4.011   9.028  0.2004  0.1437  0.0246
  405loPI    C1 6465  12.782   3.574  11.475  0.0245 -0.0522 -0.1887
  405loPI    C2 6466  13.091   3.328  11.537  0.1150  0.0564 -0.2062
  405loPI    C3 6467  13.081   3.686  11.715 -0.0839 -0.0153 -0.0697
  405loPI   PO4 6468  12.832   3.552  11.202 -0.0194 -0.2889  0.3317
  405loPI   GL1 6469  12.742   3.696  10.763  0.0363 -0.3667 -0.0861
  405loPI   GL2 6470  12.512   3.865  10.622  0.0349  0.0921  0.4824
  405loPI   C1A 6471  12.928   3.746  10.368 -0.2690  0.3516  0.2781
  405loPI   C2A 6472  13.048   3.657   9.949  0.1516  0.0104  0.2115
  405loPI   C3A 6473  12.983   3.704   9.502  0.0754 -0.0303 -0.1884
  405loPI   C4A 6474  12.927   3.745   9.096 -0.0268  0.0094 -0.0077
  405loPI   C5A 6475  12.966   3.835   8.642 -0.1437  0.4258  0.0085
  405loPI   C6A 6476  13.112   3.496   8.479  0.0907 -0.1623 -0.0842
  405loPI   C1B 6477  12.475   3.877  10.178 -0.0749  0.1940  0.2128
  405loPI   C2B 6478  12.589   3.834   9.745  0.1173  0.1626 -0.0619
  405loPI   C3B 6479  12.493   3.948   9.344  0.0307 -0.0200 -0.0546
  405loPI   C4B 6480  12.470   4.066   8.960  0.1719  0.1505 -0.0293
  406loPI    C1 6481   5.808   5.009  11.210 -0.0199  0.0616  0.0611
  406loPI    C2 6482   5.834   5.365  11.391 -0.0277  0.1049 -0.0224
  406loPI    C3 6483   5.802   5.031  11.609 -0.2066  0.1703  0.0534
  406loPI   PO4 6484   5.608   5.047  11.051  0.1838 -0.0463 -0.0065
  406loPI   GL1 6485   5.529   5.065  10.718  0.0300  0.1495 -0.1697
  406loPI   GL2 6486   5.550   5.322  10.620 -0.0160  0.0014 -0.0524
  406loPI   C1A 6487   5.639   4.886  10.343 -0.0836  0.1918  0.2341
  406loPI   C2A 6488   5.740   4.935   9.889 -0.0699 -0.2887  0.2248
  406loPI   C3A 6489   5.786   4.922   9.494  0.4131  0.1746  0.3293
  406loPI   C4A 6490   5.837   4.947   9.043 -0.0187  0.0389 -0.0137
  406loPI   C5A 6491   5.935   5.098   8.632 -0.2005 -0.1614  0.1090
  406loPI   C6A 6492   5.960   5.502   8.476 -0.0894  0.1246  0.0803
  406loPI   C1B 6493   5.747   5.365  10.133  0.0887 -0.2329 -0.2790
  406loPI   C2B 6494   5.816   5.450   9.683 -0.2195 -0.0829 -0.1076
  406loPI   C3B 6495   5.776   5.412   9.269 -0.4694 -0.1737 -0.0208
  406loPI   C4B 6496   5.887   5.538   8.942 -0.1545 -0.0389 -0.0234
  407loPI    C1 6497  16.881   3.624  11.339 -0.1448 -0.0851  0.1072
  407loPI    C2 6498  16.672   3.284  11.305  0.1007 -0.2251 -0.0279
  407loPI    C3 6499  16.962   3.314  11.578 -0.1477 -0.0015  0.2175
  407loPI   PO4 6500  16.912   3.625  11.053 -0.2353 -0.1033  0.4645
  407loPI   GL1 6501  16.792   3.518  10.498 -0.2392 -0.1903 -0.0742
  407loPI   GL2 6502  16.598   3.760  10.383  0.0518  0.2419 -0.1144
  407loPI   C1A 6503  16.881   3.224  10.217  0.0614  0.2853  0.2307
  407loPI   C2A 6504  16.888   3.313   9.783 -0.0871 -0.2546  0.2123
  407loPI   C3A 6505  17.026   3.270   9.352 -0.0437  0.0018 -0.0254
  407loPI   C4A 6506  16.990   3.383   8.931  0.2619  0.0878 -0.2349
  407loPI   C5A 6507  17.007   3.307   8.496  0.1548 -0.2604 -0.0025
  407loPI   C6A 6508  16.776   3.607   8.065  0.1164 -0.2279  0.0469
  407loPI   C1B 6509  16.484   3.572  10.047 -0.2318 -0.0859 -0.0490
  407loPI   C2B 6510  16.525   3.589   9.595 -0.1164  0.0100 -0.2544
  407loPI   C3B 6511  16.535   3.616   9.224 -0.0448 -0.0002 -0.1907
  407loPI   C4B 6512  16.569   3.603   8.818 -0.1483  0.1538  0.0438
  408loPI    C1 6513   7.176   5.844  11.276  0.3093 -0.0124 -0.1883
  408loPI    C2 6514   7.448   5.631  11.477 -0.2175 -0.1513  0.4138
  408loPI    C3 6515   7.259   5.934  11.657  0.0319  0.4082 -0.2201
  408loPI   PO4 6516   7.196   5.892  11.013 -0.2060  0.0216 -0.0998
  408loPI   GL1 6517   7.183   5.601  10.646 -0.1466 -0.3182  0.0884
  408loPI   GL2 6518   7.005   5.444  10.629 -0.0459 -0.0441 -0.3496
  408loPI   C1A 6519   7.099   5.756  10.239 -0.0503  0.1589 -0.0606
  408loPI   C2A 6520   7.165   5.692   9.814 -0.1165  0.2492 -0.1466
  408loPI   C3A 6521   7.192   5.690   9.402 -0.1661  0.0574  0.1143
  408loPI   C4A 6522   7.235   5.762   8.963 -0.0096 -0.1994  0.2533
  408loPI   C5A 6523   7.264   5.964   8.556  0.1411  0.0400  0.0620
  408loPI   C6A 6524   7.214   6.052   8.216  0.2473 -0.2522  0.0365
  408loPI   C1B 6525   7.085   5.224  10.206  0.0569 -0.0004 -0.0347
  408loPI   C2B 6526   7.194   5.189   9.783 -0.0242 -0.0375  0.5037
  408loPI   C3B 6527   7.205   5.208   9.365 -0.1938 -0.2343  0.0715
  408loPI   C4B 6528   7.219   5.231   8.956 -0.0724  0.3187  0.1336
  409loPI    C1 6529  12.140   0.485  10.939 -0.1531  0.1453  0.0417
  409loPI    C2 6530  12.394   0.400  11.236  0.0758 -0.3186 -0.2747
  409loPI    C3 6531  12.004   0.325  11.279  0.0942 -0.2989 -0.0616
  409loPI   PO4 6532  12.266   0.371  10.740  0.0742 -0.3078 -0.1132
  409loPI   GL1 6533  12.456   0.538  10.403 -0.0369 -0.0445 -0.3366
  409loPI   GL2 6534  12.758   0.487  10.488 -0.0125  0.1326  0.1996
  409loPI   C1A 6535  12.292   0.546   9.963 -0.0381  0.0849 -0.1059
  409loPI   C2A 6536  12.319   0.500   9.547  0.1510  0.4865 -0.0546
  409loPI   C3A 6537  12.323   0.489   9.186  0.1653 -0.2682 -0.1179
  409loPI   C4A 6538  12.354   0.442   8.906  0.1866 -0.1572  0.2209
  409loPI   C5A 6539  12.215   0.321   8.464 -0.0562 -0.1991 -0.3393
  409loPI   C6A 6540  12.033   0.337   7.966 -0.1549  0.1957 -0.0667
  409loPI   C1B 6541  12.755   0.649  10.044 -0.1202  0.0066 -0.0386
  409loPI   C2B 6542  12.788   0.676   9.665  0.0700  0.2060 -0.2301
  409loPI   C3B 6543  12.882   0.661   9.229 -0.0094  0.1822 -0.0884
  409loPI   C4B 6544  12.764   0.727   8.879  0.1597  0.1745  0.2007
  410loPI    C1 6545   7.268   3.948  11.107 -0.0523  0.1611  0.0589
  410loPI    C2 6546   7.498   3.966  11.434 -0.0350  0.0865  0.0509
  410loPI    C3 6547   7.101   3.939  11.471 -0.0314  0.0545  0.0661
  410loPI   PO4 6548   7.406   4.169  10.940  0.0471 -0.1017 -0.0806
  410loPI   GL1 6549   7.479   4.256  10.549 -0.1794 -0.4956 -0.2475
  410loPI   GL2 6550   7.366   3.970  10.464 -0.2830 -0.2006 -0.2384
  410loPI   C1A 6551   7.514   4.327  10.132 -0.1234 -0.1063  0.1419
  410loPI   C2A 6552   7.520   4.387   9.698 -0.0914 -0.0470  0.2190
  410loPI   C3A 6553   7.577   4.427   9.211 -0.1317 -0.0279  0.0630
  410loPI   C4A 6554   7.617   4.462   8.838 -0.0186 -0.1041 -0.0995
  410loPI   C5A 6555   7.669   4.562   8.356  0.0558  0.2490 -0.1197
  410loPI   C6A 6556   7.575   4.746   7.937  0.0846 -0.1195 -0.2590
  410loPI   C1B 6557   7.416   3.844  10.010  0.1061 -0.1583  0.0392
  410loPI   C2B 6558   7.548   3.859   9.562 -0.1222 -0.3315 -0.1622
  410loPI   C3B 6559   7.597   3.918   9.122 -0.4030  0.1729 -0.1645
  410loPI   C4B 6560   7.564   3.929   8.717  0.2263  0.1959  0.0879
  411loPI    C1 6561  15.812   1.245  11.093 -0.0064 -0.0867  0.0856
  411loPI    C2 6562  15.770   1.012  11.415  0.0275 -0.0108  0.1452
  411loPI    C3 6563  15.502   1.300  11.340 -0.3638 -0.4654 -0.2642
  411loPI   PO4 6564  15.915   1.117  10.946 -0.0376 -0.2339  0.2891
  411loPI   GL1 6565  16.020   1.260  10.537 -0.1975  0.2149  0.1543
  411loPI   GL2 6566  15.749   1.143  10.472 -0.2511 -0.1892 -0.1346
  411loPI   C1A 6567  16.075   1.280  10.139 -0.0787 -0.1223  0.4222
  411loPI   C2A 6568  16.016   1.328   9.723  0.0062  0.1070  0.1093
  411loPI   C3A 6569  16.017   1.314   9.341  0.0126  0.4288 -0.1583
  411loPI   C4A 6570  15.947   1.266   8.886 -0.3680  0.0739  0.1408
  411loPI   C5A 6571  15.868   0.993   8.494  0.1155 -0.1291  0.2273
  411loPI   C6A 6572  15.572   0.692   8.218  0.0760  0.1075 -0.1814
  411loPI   C1B 6573  15.634   1.129   9.999  0.1427  0.0084  0.0850
  411loPI   C2B 6574  15.569   1.128   9.589  0.0463  0.0450  0.0006
  411loPI   C3B 6575  15.578   1.032   9.154 -0.0131 -0.0366  0.0866
  411loPI   C4B 6576  15.391   1.033   8.725 -0.0520  0.0123 -0.2251
  412loPI    C1 6577  11.921  13.056  11.252 -0.0430 -0.1987 -0.1213
  412loPI    C2 6578  11.713  12.975  11.584  0.1454 -0.3739 -0.0443
  412loPI    C3 6579  11.904  13.325  11.548 -0.1790 -0.2015 -0.1257
  412loPI   PO4 6580  11.790  12.958  10.999  0.2292 -0.0814 -0.0300
  412loPI   GL1 6581  11.860  12.853  10.569  0.0366  0.1166  0.0459
  412loPI   GL2 6582  11.720  12.549  10.393 -0.1149  0.0857  0.1376
  412loPI   C1A 6583  11.775  12.982  10.153 -0.1103  0.1106  0.3673
  412loPI   C2A 6584  11.689  12.988   9.660  0.0660  0.2962 -0.1953
  412loPI   C3A 6585  11.680  13.048   9.253 -0.0015 -0.2039  0.0302
  412loPI   C4A 6586  11.762  13.021   8.811  0.0707  0.0019 -0.2344
  412loPI   C5A 6587  11.904  12.851   8.394 -0.0018  0.0997 -0.1203
  412loPI   C6A 6588  11.760  12.423   8.088 -0.1543  0.1082  0.1822
  412loPI   C1B 6589  11.702  12.526   9.935 -0.0694 -0.0751 -0.1529
  412loPI   C2B 6590  11.627  12.559   9.425 -0.1524  0.2857 -0.2189
  412loPI   C3B 6591  11.650  12.575   8.992 -0.1883  0.0405  0.1575
  412loPI   C4B 6592  11.611  12.472   8.559 -0.0276  0.0149 -0.0411
  413loPI    C1 6593  13.985  11.961  10.947  0.1954 -0.0262 -0.1731
  413loPI    C2 6594  13.862  11.807  11.295 -0.0427 -0.0768 -0.2773
  413loPI    C3 6595  14.234  11.951  11.259  0.0446 -0.2422 -0.0576
  413loPI   PO4 6596  13.869  11.829  10.768  0.0280  0.0754  0.1159
  413loPI   GL1 6597  13.786  12.042  10.415 -0.0720 -0.0664  0.0243
  413loPI   GL2 6598  13.595  11.846  10.160 -0.2096  0.0071  0.0596
  413loPI   C1A 6599  14.107  12.161  10.081 -0.1174  0.1147 -0.2751
  413loPI   C2A 6600  14.296  12.096   9.680 -0.0919  0.1825  0.2550
  413loPI   C3A 6601  14.225  12.150   9.214 -0.3584 -0.3928  0.1181
  413loPI   C4A 6602  14.125  11.990   8.766 -0.2118 -0.1156 -0.2584
  413loPI   C5A 6603  14.000  12.192   8.316 -0.1823 -0.3183  0.2053
  413loPI   C6A 6604  13.726  12.167   7.999  0.1017  0.3773  0.5347
  413loPI   C1B 6605  13.765  11.992   9.818  0.0824 -0.0794  0.2183
  413loPI   C2B 6606  13.757  11.954   9.317 -0.1628 -0.1830  0.2285
  413loPI   C3B 6607  13.689  11.774   8.930 -0.1551  0.1607  0.0875
  413loPI   C4B 6608  13.630  11.741   8.414 -0.1863  0.0121  0.0531
  414loPI    C1 6609  16.528   2.740  11.112 -0.1263 -0.2939  0.1444
  414loPI    C2 6610  16.902   2.774  11.250 -0.0920 -0.1523  0.0199
  414loPI    C3 6611  16.611   2.642  11.491  0.0287 -0.2176  0.1312
  414loPI   PO4 6612  16.584   2.650  10.821  0.2309  0.1062  0.1273
  414loPI   GL1 6613  16.371   2.561  10.476 -0.2057 -0.0613 -0.0809
  414loPI   GL2 6614  16.126   2.344  10.383 -0.2460  0.2487 -0.1938
  414loPI   C1A 6615  16.487   2.515  10.026  0.0158  0.0390 -0.0164
  414loPI   C2A 6616  16.535   2.571   9.636  0.0299 -0.1152  0.1409
  414loPI   C3A 6617  16.578   2.484   9.166  0.1705 -0.0545  0.2019
  414loPI   C4A 6618  16.442   2.632   8.787 -0.3533  0.1156 -0.4609
  414loPI   C5A 6619  16.195   2.404   8.380  0.0284  0.2678 -0.1755
  414loPI   C6A 6620  16.102   2.017   8.223 -0.2240 -0.1930  0.1140
  414loPI   C1B 6621  15.997   2.255  10.115 -0.1342  0.4015 -0.1515
  414loPI   C2B 6622  16.121   2.253   9.721  0.1780  0.1200 -0.1690
  414loPI   C3B 6623  16.052   2.235   9.233  0.0605  0.1283 -0.0475
  414loPI   C4B 6624  15.989   2.280   8.816 -0.1916  0.0934  0.0649
  415loPI    C1 6625  16.832  14.484  11.014  0.0166 -0.0288  0.0263
  415loPI    C2 6626  16.543  14.215  10.950 -0.1803  0.1678  0.0754
  415loPI    C3 6627  16.913  14.093  11.043 -0.2347 -0.0866 -0.0324
  415loPI   PO4 6628  16.853  14.571  10.773 -0.3321 -0.2181 -0.0024
  415loPI   GL1 6629  16.750  14.504  10.272 -0.0028  0.2523  0.2639
  415loPI   GL2 6630  16.369  14.486  10.334 -0.1116 -0.0106 -0.1247
  415loPI   C1A 6631  16.649  14.752   9.931 -0.1980 -0.1323 -0.0844
  415loPI   C2A 6632  16.580  14.853   9.348 -0.2505 -0.0183 -0.2773
  415loPI   C3A 6633  16.583  14.786   8.840  0.0883  0.0389  0.2271
  415loPI   C4A 6634  16.570  14.722   8.422  0.1305  0.1036  0.1750
  415loPI   C5A 6635  16.840  15.021   8.181 -0.3028 -0.0219 -0.4279
  415loPI   C6A 6636  17.185  15.127   7.963 -0.0058  0.0557  0.0904
  415loPI   C1B 6637  16.077  14.546   9.961 -0.0120  0.1644  0.0799
  415loPI   C2B 6638  16.136  14.662   9.492  0.2242  0.1297  0.0726
  415loPI   C3B 6639  16.091  14.646   9.015  0.1970  0.1851  0.1295
  415loPI   C4B 6640  16.070  14.586   8.639 -0.0101 -0.1181  0.1859
  416loPI    C1 6641   8.989   1.157  10.701 -0.0992 -0.0406 -0.0030
  416loPI    C2 6642   8.660   1.310  10.870 -0.0865 -0.1385  0.1118
  416loPI    C3 6643   8.972   1.206  11.098 -0.0536 -0.2342  0.0238
  416loPI   PO4 6644   8.924   1.343  10.431 -0.0149  0.2434 -0.1666
  416loPI   GL1 6645   9.058   1.373  10.025 -0.2677 -0.1178  0.3465
  416loPI   GL2 6646   9.349   1.502  10.143 -0.1240  0.0240  0.1661
  416loPI   C1A 6647   9.280   1.208   9.628  0.2487 -0.0281 -0.1196
  416loPI   C2A 6648   9.292   1.238   9.243 -0.0121  0.1093 -0.0531
  416loPI   C3A 6649   9.289   1.295   8.789 -0.4444  0.0900 -0.1848
  416loPI   C4A 6650   9.321   1.333   8.416 -0.2894 -0.2651 -0.1263
  416loPI   C5A 6651   9.272   1.626   8.143 -0.3838 -0.1412 -0.3170
  416loPI   C6A 6652   9.336   1.596   7.709 -0.2047 -0.2504 -0.0749
  416loPI   C1B 6653   9.354   1.703   9.762  0.1160  0.2681 -0.0727
  416loPI   C2B 6654   9.247   1.747   9.463  0.1282  0.0878 -0.0571
  416loPI   C3B 6655   9.344   1.705   9.054 -0.2797  0.1663  0.1847
  416loPI   C4B 6656   9.252   1.830   8.615  0.0310  0.0251  0.4292
  417loPI    C1 6657  13.233  13.782  10.986 -0.1699  0.0926 -0.0204
  417loPI    C2 6658  13.114  13.733  11.365 -0.1684  0.0329 -0.0277
  417loPI    C3 6659  13.486  13.858  11.286 -0.2650  0.3459 -0.0016
  417loPI   PO4 6660  12.916  13.815  10.889 -0.1266  0.2210 -0.0959
  417loPI   GL1 6661  12.786  13.958  10.503  0.3514 -0.0450 -0.0158
  417loPI   GL2 6662  12.499  14.207  10.541  0.0624 -0.1267  0.0999
  417loPI   C1A 6663  12.735  13.907  10.099 -0.2993 -0.0009  0.0671
  417loPI   C2A 6664  12.824  13.942   9.665 -0.0709 -0.0878  0.3324
  417loPI   C3A 6665  12.754  13.897   9.232 -0.0192  0.1828 -0.0949
  417loPI   C4A 6666  12.733  13.883   8.774  0.2005 -0.3681  0.2432
  417loPI   C5A 6667  12.704  14.272   8.447  0.0009  0.0674 -0.3419
  417loPI   C6A 6668  12.790  14.454   8.137 -0.0354  0.0461  0.0198
  417loPI   C1B 6669  12.810  14.399  10.264  0.3057 -0.2547 -0.0555
  417loPI   C2B 6670  12.867  14.467   9.936 -0.2047  0.0302  0.1859
  417loPI   C3B 6671  12.839  14.418   9.413  0.0587 -0.0049 -0.0765
  417loPI   C4B 6672  12.807  14.433   9.001  0.1094  0.2859  0.0029
  418loPI    C1 6673  15.091  14.240  11.240 -0.1126  0.0451  0.0706
  418loPI    C2 6674  15.438  14.059  11.323 -0.1174 -0.0318 -0.0753
  418loPI    C3 6675  15.122  14.003  11.561 -0.0919 -0.1399 -0.0666
  418loPI   PO4 6676  15.132  14.340  10.980 -0.0763 -0.1118  0.5034
  418loPI   GL1 6677  14.937  14.490  10.524 -0.1215 -0.1254 -0.0074
  418loPI   GL2 6678  14.742  14.704  10.424  0.2047  0.1493 -0.3706
  418loPI   C1A 6679  15.039  14.362  10.077 -0.1792  0.0646  0.0274
  418loPI   C2A 6680  15.083  14.325   9.663 -0.1339  0.1085  0.1711
  418loPI   C3A 6681  15.134  14.251   9.324  0.2055  0.1889 -0.1154
  418loPI   C4A 6682  15.164  14.281   8.928  0.0799  0.0564 -0.1726
  418loPI   C5A 6683  15.002  14.214   8.507  0.0212 -0.0966 -0.0656
  418loPI   C6A 6684  14.819  14.068   8.198 -0.3891  0.1552 -0.0285
  418loPI   C1B 6685  14.692  14.729   9.931  0.0621 -0.2782  0.1251
  418loPI   C2B 6686  14.745  14.609   9.525 -0.2005 -0.3789 -0.1347
  418loPI   C3B 6687  14.743  14.559   9.080  0.0198 -0.3498 -0.2212
  418loPI   C4B 6688  14.721  14.620   8.572  0.3802 -0.3129 -0.1966
  419loPI    C1 6689   2.624   6.237  10.825 -0.1202 -0.1692 -0.0614
  419loPI    C2 6690   2.933   6.143  11.061 -0.0298  0.0062 -0.1079
  419loPI    C3 6691   2.660   6.408  11.186 -0.1829 -0.1756 -0.0520
  419loPI   PO4 6692   2.732   6.242  10.628  0.0935  0.1616  0.0931
  419loPI   GL1 6693   2.683   5.842  10.377 -0.1774  0.1514 -0.0008
  419loPI   GL2 6694   2.902   5.666  10.345 -0.4677 -0.1052 -0.1360
  419loPI   C1A 6695   2.562   5.814   9.901  0.3353  0.1577  0.0309
  419loPI   C2A 6696   2.650   5.745   9.482 -0.2094  0.2204  0.0529
  419loPI   C3A 6697   2.576   5.757   9.068  0.0285  0.0211  0.0859
  419loPI   C4A 6698   2.593   5.783   8.662  0.2905  0.1281 -0.1912
  419loPI   C5A 6699   2.620   5.969   8.191 -0.0755  0.0460 -0.0533
  419loPI   C6A 6700   2.683   6.001   7.625  0.0726 -0.1841 -0.1294
  419loPI   C1B 6701   3.014   5.634   9.999  0.0479  0.0448  0.0158
  419loPI   C2B 6702   3.101   5.492   9.604 -0.0074 -0.3119  0.1049
  419loPI   C3B 6703   3.041   5.535   9.096  0.0437 -0.0979  0.0158
  419loPI   C4B 6704   3.183   5.458   8.697 -0.1088  0.1372  0.1925
  420loPI    C1 6705  12.992  11.835  10.903 -0.0007  0.1273  0.1441
  420loPI    C2 6706  12.737  11.952  11.188 -0.0003  0.0584  0.1729
  420loPI    C3 6707  12.928  11.602  11.222 -0.0513  0.0186  0.0553
  420loPI   PO4 6708  12.904  11.906  10.704  0.1236 -0.2350 -0.2609
  420loPI   GL1 6709  12.977  11.824  10.337 -0.0190  0.1410 -0.0626
  420loPI   GL2 6710  13.080  11.988  10.173  0.1806 -0.0046 -0.4271
  420loPI   C1A 6711  12.694  11.719   9.952  0.1357 -0.1057 -0.0152
  420loPI   C2A 6712  12.643  11.712   9.538  0.1024  0.2299 -0.0784
  420loPI   C3A 6713  12.441  11.844   9.175 -0.1782 -0.0069 -0.0163
  420loPI   C4A 6714  12.413  11.886   8.773  0.1816  0.0336 -0.3792
  420loPI   C5A 6715  12.483  11.710   8.425 -0.0104  0.0087  0.0303
  420loPI   C6A 6716  12.703  11.889   8.076  0.3992  0.2459 -0.0020
  420loPI   C1B 6717  13.095  12.033   9.800  0.1857 -0.1489  0.1126
  420loPI   C2B 6718  12.992  12.083   9.336 -0.2568 -0.1191  0.5030
  420loPI   C3B 6719  12.930  11.960   8.968  0.2567  0.0303  0.0929
  420loPI   C4B 6720  12.895  11.985   8.512 -0.4007  0.0425 -0.2688
  421loPI    C1 6721   4.783  16.340  10.904 -0.1317  0.0947  0.0867
  421loPI    C2 6722   4.601  16.695  10.876  0.0454  0.1837  0.0426
  421loPI    C3 6723   4.993  16.677  10.951  0.1101  0.0069 -0.3161
  421loPI   PO4 6724   4.775  16.216  10.673 -0.2074  0.1331  0.1601
  421loPI   GL1 6725   4.874  16.171  10.289 -0.3391  0.1811  0.0301
  421loPI   GL2 6726   4.976  15.881  10.131  0.1402  0.3283 -0.0766
  421loPI   C1A 6727   4.782  16.212   9.867  0.4063  0.0150  0.2360
  421loPI   C2A 6728   4.844  16.243   9.502 -0.1249  0.1711  0.2375
  421loPI   C3A 6729   4.868  16.231   9.085 -0.2172  0.0952  0.1631
  421loPI   C4A 6730   4.909  16.256   8.686 -0.0367 -0.0337 -0.2181
  421loPI   C5A 6731   4.838  16.262   8.210 -0.0035  0.0062  0.1766
  421loPI   C6A 6732   4.693  16.336   7.784 -0.0264 -0.3840 -0.0714
  421loPI   C1B 6733   5.126  15.904   9.624  0.1119  0.4533  0.1266
  421loPI   C2B 6734   5.201  15.895   9.304 -0.0605  0.2007  0.2542
  421loPI   C3B 6735   5.271  15.908   8.844  0.2043 -0.3231 -0.2256
  421loPI   C4B 6736   5.268  15.901   8.501  0.1135  0.1082  0.1857
  422loPI    C1 6737  13.970   9.820  11.045  0.0158  0.0909 -0.0202
  422loPI    C2 6738  13.884   9.607  11.372  0.0539  0.1771  0.0462
  422loPI    C3 6739  14.095   9.946  11.403  0.1134  0.1519 -0.0750
  422loPI   PO4 6740  13.971   9.661  10.864 -0.2678  0.1128  0.2200
  422loPI   GL1 6741  13.967   9.597  10.432 -0.0054 -0.0889  0.2778
  422loPI   GL2 6742  14.000   9.878  10.384 -0.0822 -0.0396  0.1865
  422loPI   C1A 6743  14.001   9.391  10.078 -0.1078 -0.1118  0.3844
  422loPI   C2A 6744  13.919   9.399   9.630 -0.0146  0.1038  0.1637
  422loPI   C3A 6745  14.032   9.425   9.170 -0.0976 -0.2154  0.2358
  422loPI   C4A 6746  14.059   9.431   8.751 -0.2379 -0.0840 -0.0172
  422loPI   C5A 6747  14.170   9.631   8.358  0.4203  0.2775  0.0904
  422loPI   C6A 6748  14.119  10.073   8.162  0.0726 -0.2782 -0.1613
  422loPI   C1B 6749  13.866   9.895   9.915  0.2368 -0.0970  0.0904
  422loPI   C2B 6750  13.989   9.930   9.568 -0.1909  0.1609 -0.1868
  422loPI   C3B 6751  13.958   9.944   9.169  0.0511 -0.0047  0.0078
  422loPI   C4B 6752  14.067   9.944   8.720 -0.0870  0.1012  0.0870
  423loPI    C1 6753  13.104   9.089  11.009 -0.0811  0.0657  0.0227
  423loPI    C2 6754  13.048   9.451  11.170 -0.0503  0.0292  0.1165
  423loPI    C3 6755  13.057   9.127  11.405 -0.1241 -0.0377  0.0279
  423loPI   PO4 6756  12.993   9.075  10.802 -0.0850  0.2347  0.0724
  423loPI   GL1 6757  13.020   8.938  10.382  0.1176 -0.2097  0.0876
  423loPI   GL2 6758  13.004   9.181  10.293 -0.2831  0.0445 -0.1543
  423loPI   C1A 6759  13.029   8.917   9.929  0.2395  0.1129 -0.2013
  423loPI   C2A 6760  13.037   8.871   9.540  0.0416  0.0676 -0.1325
  423loPI   C3A 6761  13.031   8.771   9.098  0.1173 -0.2059 -0.0481
  423loPI   C4A 6762  13.147   8.860   8.719  0.0275 -0.1593 -0.2728
  423loPI   C5A 6763  13.166   8.981   8.358 -0.1284 -0.1595 -0.1568
  423loPI   C6A 6764  13.391   9.370   8.100  0.1397 -0.0500  0.0856
  423loPI   C1B 6765  13.046   9.402  10.010 -0.0566  0.3323 -0.1186
  423loPI   C2B 6766  13.076   9.396   9.540 -0.2232  0.0991 -0.1780
  423loPI   C3B 6767  13.129   9.313   9.054  0.0078  0.1673  0.0363
  423loPI   C4B 6768  13.249   9.404   8.642  0.0119  0.0508 -0.3353
  424loPI    C1 6769   9.458   4.222  11.050  0.0986 -0.0892 -0.1819
  424loPI    C2 6770   9.701   3.969  11.243  0.0981 -0.1369 -0.2438
  424loPI    C3 6771   9.330   4.032  11.379  0.0608 -0.2532 -0.2901
  424loPI   PO4 6772   9.575   4.271  10.887  0.6318 -0.2147  0.4341
  424loPI   GL1 6773   9.736   4.225  10.466  0.0530  0.0385  0.0189
  424loPI   GL2 6774   9.556   4.041  10.405 -0.0661 -0.1551 -0.0678
  424loPI   C1A 6775   9.907   4.428  10.281 -0.2228  0.0267 -0.2383
  424loPI   C2A 6776   9.832   4.501   9.827  0.1632  0.0291  0.2071
  424loPI   C3A 6777   9.911   4.564   9.437 -0.0057  0.1609 -0.1132
  424loPI   C4A 6778   9.954   4.633   8.954  0.1223  0.0015 -0.0591
  424loPI   C5A 6779   9.828   4.550   8.505 -0.2723 -0.4214  0.3026
  424loPI   C6A 6780   9.790   4.763   8.156 -0.0527  0.0318 -0.2393
  424loPI   C1B 6781   9.427   4.135  10.046  0.0883 -0.0002 -0.0766
  424loPI   C2B 6782   9.367   4.332   9.655  0.2497  0.0600 -0.1752
  424loPI   C3B 6783   9.512   4.333   9.217  0.3260 -0.1940  0.0792
  424loPI   C4B 6784   9.399   4.372   8.749  0.0121 -0.1858  0.0360
  425loPI    C1 6785   3.166  11.399  10.537 -0.2523  0.2976 -0.1149
  425loPI    C2 6786   3.452  11.593  10.738 -0.0864 -0.0146 -0.0423
  425loPI    C3 6787   3.068  11.646  10.836 -0.0305  0.1196  0.1103
  425loPI   PO4 6788   3.164  11.359  10.218 -0.0022  0.0315  0.0781
  425loPI   GL1 6789   3.270  11.186   9.889 -0.2291  0.2869  0.0678
  425loPI   GL2 6790   3.356  10.866   9.765 -0.0503  0.1669 -0.0053
  425loPI   C1A 6791   3.101  11.115   9.444 -0.3077 -0.2088  0.3277
  425loPI   C2A 6792   3.171  11.111   9.093 -0.0065 -0.1127  0.3815
  425loPI   C3A 6793   3.260  11.188   8.696  0.0441 -0.0404 -0.3497
  425loPI   C4A 6794   3.441  11.350   8.271  0.1689 -0.2154  0.0664
  425loPI   C5A 6795   3.629  11.258   7.823 -0.0388 -0.0037 -0.4251
  425loPI   C6A 6796   3.280  11.176   7.521  0.0539 -0.0432 -0.0171
  425loPI   C1B 6797   3.315  10.699   9.296 -0.1567  0.0533  0.4099
  425loPI   C2B 6798   3.262  10.662   8.897  0.3677 -0.0157  0.0835
  425loPI   C3B 6799   3.217  10.735   8.457  0.0076  0.1213 -0.2010
  425loPI   C4B 6800   3.237  10.831   8.032 -0.0221 -0.2501  0.0557
  426loPI    C1 6801   9.655   8.910  11.208 -0.1525  0.1485 -0.3049
  426loPI    C2 6802   9.878   9.181  11.016  0.1244  0.1083 -0.0483
  426loPI    C3 6803   9.778   9.240  11.398  0.0653 -0.0839 -0.0330
  426loPI   PO4 6804   9.663   8.738  11.015 -0.0604 -0.0503 -0.1220
  426loPI   GL1 6805   9.835   8.450  10.788  0.0566  0.2337 -0.0179
  426loPI   GL2 6806   9.688   8.148  10.797 -0.1980  0.0187  0.0962
  426loPI   C1A 6807   9.934   8.708  10.437  0.0392 -0.3414  0.1597
  426loPI   C2A 6808   9.839   8.732   9.941  0.0795  0.0240 -0.0884
  426loPI   C3A 6809   9.963   8.739   9.553  0.0088 -0.0355 -0.2355
  426loPI   C4A 6810  10.015   8.776   9.099  0.1604 -0.0436  0.3554
  426loPI   C5A 6811  10.031   8.652   8.621  0.0207  0.1069 -0.1162
  426loPI   C6A 6812  10.312   8.590   8.318  0.0786  0.0223 -0.1081
  426loPI   C1B 6813   9.799   8.236  10.335 -0.3116 -0.0425  0.0252
  426loPI   C2B 6814   9.906   8.206   9.961  0.2863 -0.1613  0.1159
  426loPI   C3B 6815  10.002   8.201   9.588  0.2575 -0.0190 -0.0877
  426loPI   C4B 6816   9.992   8.276   9.069  0.0878  0.0907  0.2225
  427loPI    C1 6817  15.948   6.117  10.805  0.1211 -0.1930 -0.0597
  427loPI    C2 6818  16.310   6.100  10.976  0.2339  0.0015 -0.2733
  427loPI    C3 6819  16.213   5.842  10.685  0.0949 -0.2348 -0.0219
  427loPI   PO4 6820  15.919   6.410  10.756  0.0748  0.0738 -0.2430
  427loPI   GL1 6821  15.785   6.477  10.406 -0.0649  0.1575  0.0998
  427loPI   GL2 6822  15.630   6.188  10.366 -0.0526 -0.2437  0.2160
  427loPI   C1A 6823  15.711   6.742  10.009  0.3683  0.1795 -0.0302
  427loPI   C2A 6824  15.614   6.720   9.592  0.0217 -0.2419 -0.0682
  427loPI   C3A 6825  15.677   6.646   9.226  0.0815  0.0149  0.0781
  427loPI   C4A 6826  15.854   6.647   8.856 -0.0412  0.0552  0.1102
  427loPI   C5A 6827  16.026   6.720   8.407  0.0805 -0.0845  0.0352
  427loPI   C6A 6828  16.193   6.425   8.153  0.2814 -0.1066  0.1172
  427loPI   C1B 6829  15.609   6.278   9.934  0.1273 -0.1149  0.2415
  427loPI   C2B 6830  15.624   6.171   9.492 -0.1354 -0.0429 -0.1788
  427loPI   C3B 6831  15.732   6.170   9.120  0.1303 -0.0954 -0.4632
  427loPI   C4B 6832  15.832   6.147   8.651  0.0932 -0.1856  0.3276
  428loPI    C1 6833   2.327  15.025  10.751 -0.1596  0.0683 -0.2737
  428loPI    C2 6834   2.291  14.674  10.563  0.0110 -0.1774  0.1380
  428loPI    C3 6835   2.174  14.709  10.944  0.0764  0.1912  0.1274
  428loPI   PO4 6836   2.254  15.197  10.591 -0.1056 -0.1324  0.3196
  428loPI   GL1 6837   2.335  15.372  10.304  0.0321 -0.0007  0.1720
  428loPI   GL2 6838   2.048  15.574  10.329  0.1133  0.0503  0.0652
  428loPI   C1A 6839   2.441  15.213  10.012 -0.1076  0.1856  0.1920
  428loPI   C2A 6840   2.366  15.389   9.571  0.0831  0.1115 -0.1028
  428loPI   C3A 6841   2.444  15.310   9.150 -0.1636  0.3004 -0.0759
  428loPI   C4A 6842   2.445  15.295   8.660  0.0461 -0.2072  0.1824
  428loPI   C5A 6843   2.303  15.540   8.303 -0.0400  0.7003 -0.0035
  428loPI   C6A 6844   2.038  15.334   8.010  0.0115  0.0510 -0.0052
  428loPI   C1B 6845   2.028  15.616   9.860 -0.0540 -0.0543 -0.0357
  428loPI   C2B 6846   1.982  15.698   9.456 -0.1861  0.0155 -0.0204
  428loPI   C3B 6847   2.145  15.655   9.145  0.2330  0.0505  0.3390
  428loPI   C4B 6848   2.095  15.635   8.725  0.1239 -0.1057 -0.1051
  429loPI    C1 6849  16.609  12.508  10.858  0.0647  0.0238  0.0041
  429loPI    C2 6850  16.649  12.871  11.020 -0.3384  0.1107 -0.0807
  429loPI    C3 6851  16.950  12.712  10.811 -0.0714  0.2924  0.1571
  429loPI   PO4 6852  16.432  12.555  10.658  0.0894 -0.1423 -0.0814
  429loPI   GL1 6853  16.145  12.681  10.344 -0.0866 -0.0145  0.1126
  429loPI   GL2 6854  15.970  13.006  10.357 -0.3789 -0.0753 -0.2356
  429loPI   C1A 6855  16.278  12.596   9.951  0.2682  0.0579 -0.0463
  429loPI   C2A 6856  16.131  12.719   9.491  0.3085 -0.1361  0.1061
  429loPI   C3A 6857  16.133  12.772   9.014 -0.0166  0.3928  0.0393
  429loPI   C4A 6858  16.173  12.790   8.542 -0.0451  0.0569  0.1106
  429loPI   C5A 6859  16.167  13.009   8.119  0.0491 -0.0052 -0.2224
  429loPI   C6A 6860  16.310  13.052   7.803  0.0819 -0.2917  0.1772
  429loPI   C1B 6861  15.984  13.137  10.038 -0.2014  0.1275  0.1623
  429loPI   C2B 6862  15.856  13.134   9.637 -0.3331 -0.3126 -0.1694
  429loPI   C3B 6863  15.802  13.111   9.123  0.0827 -0.1025 -0.1865
  429loPI   C4B 6864  15.840  13.071   8.716 -0.0034  0.1596 -0.1380
  430loPI    C1 6865   8.343  17.911  10.426  0.1201  0.0253 -0.0542
  430loPI    C2 6866   8.037  18.122  10.573  0.1562 -0.0503  0.1329
  430loPI    C3 6867   8.333  18.005  10.815  0.2490 -0.1224 -0.0142
  430loPI   PO4 6868   8.502  18.042  10.177 -0.1708 -0.2761  0.1069
  430loPI   GL1 6869   8.371  18.135   9.908 -0.2181 -0.3619 -0.1483
  430loPI   GL2 6870   8.202  18.380   9.792  0.0454  0.1531 -0.1263
  430loPI   C1A 6871   8.375  17.953   9.552  0.1445  0.0215 -0.1908
  430loPI   C2A 6872   8.369  18.053   9.142 -0.1963 -0.2666 -0.2386
  430loPI   C3A 6873   8.368  18.024   8.712  0.3991  0.1046 -0.2466
  430loPI   C4A 6874   8.298  18.241   8.382  0.2173 -0.0643 -0.0587
  430loPI   C5A 6875   8.258  18.427   7.994  0.1241  0.1059  0.2527
  430loPI   C6A 6876   8.120  18.408   7.550 -0.1114  0.4055 -0.1718
  430loPI   C1B 6877   7.971  18.243   9.561 -0.0040  0.0376 -0.0555
  430loPI   C2B 6878   7.967  18.331   9.149 -0.2074  0.1475  0.1332
  430loPI   C3B 6879   7.866  18.471   8.688 -0.0408  0.2287 -0.2756
  430loPI   C4B 6880   7.839  18.540   8.262  0.3167  0.2694 -0.1943
  431loPI    C1 6881  17.257  15.927  10.923 -0.0479  0.0401  0.2034
  431loPI    C2 6882  16.976  15.799  11.177 -0.0311  0.0483  0.2262
  431loPI    C3 6883  17.357  15.691  11.230 -0.0171  0.1061  0.2444
  431loPI   PO4 6884  17.168  15.891  10.702  0.1756 -0.2911 -0.0990
  431loPI   GL1 6885  17.245  15.690  10.287 -0.3141 -0.1071  0.1894
  431loPI   GL2 6886  17.161  15.431  10.256 -0.2081 -0.2763 -0.1716
  431loPI   C1A 6887  17.355  16.039  10.050 -0.1204 -0.1515 -0.1255
  431loPI   C2A 6888  17.352  16.048   9.618  0.0194 -0.0709 -0.0410
  431loPI   C3A 6889  17.326  15.969   9.240  0.2319 -0.0784  0.1068
  431loPI   C4A 6890  17.332  15.997   8.893  0.0767 -0.0651  0.1645
  431loPI   C5A 6891  17.290  16.135   8.509  0.2420 -0.0882 -0.1515
  431loPI   C6A 6892  16.961  16.239   8.226 -0.0393  0.2308  0.1889
  431loPI   C1B 6893  17.267  15.534   9.826  0.0334  0.3075  0.0236
  431loPI   C2B 6894  17.229  15.557   9.410  0.1270  0.0756  0.4461
  431loPI   C3B 6895  17.259  15.458   8.940 -0.1805 -0.2848  0.1387
  431loPI   C4B 6896  17.220  15.372   8.516 -0.1456 -0.0856  0.0691
  432loPI    C1 6897   8.011   9.603  11.329 -0.0994  0.1017  0.0674
  432loPI    C2 6898   8.279   9.338  11.463  0.2182  0.3535 -0.0566
  432loPI    C3 6899   8.064   9.553  11.722  0.2833  0.2973  0.0451
  432loPI   PO4 6900   7.914   9.529  11.107 -0.0351 -0.0267 -0.0434
  432loPI   GL1 6901   7.912   9.505  10.733 -0.2442 -0.2403  0.0145
  432loPI   GL2 6902   7.674   9.456  10.495 -0.0901  0.4181 -0.0775
  432loPI   C1A 6903   8.151   9.296  10.359  0.0905  0.1212  0.1658
  432loPI   C2A 6904   8.220   9.262   9.905  0.1790 -0.0240 -0.0306
  432loPI   C3A 6905   8.272   9.259   9.519 -0.2175 -0.3199  0.0388
  432loPI   C4A 6906   8.262   9.263   9.028 -0.0111 -0.0190  0.1100
  432loPI   C5A 6907   8.219   9.117   8.590  0.0162  0.4011 -0.3326
  432loPI   C6A 6908   8.256   8.748   8.361 -0.0376  0.1625 -0.3130
  432loPI   C1B 6909   7.804   9.428  10.046  0.2482  0.0679 -0.3485
  432loPI   C2B 6910   7.835   9.466   9.606  0.0765 -0.0038 -0.0946
  432loPI   C3B 6911   7.822   9.513   9.286  0.1834  0.0203  0.2265
  432loPI   C4B 6912   7.827   9.504   8.895 -0.0785 -0.0744  0.0338
  433loPI    C1 6913   2.046  17.178  10.865  0.1789  0.1761 -0.1023
  433loPI    C2 6914   1.963  17.494  11.096 -0.1333  0.0935 -0.0963
  433loPI    C3 6915   1.805  17.137  11.182  0.1926 -0.0601 -0.1209
  433loPI   PO4 6916   2.273  17.155  10.870 -0.1239 -0.1020  0.3053
  433loPI   GL1 6917   2.594  17.343  10.563  0.3523 -0.0761  0.2311
  433loPI   GL2 6918   2.288  17.292  10.418 -0.1926 -0.2108  0.1654
  433loPI   C1A 6919   2.708  17.336  10.211  0.2475 -0.1066 -0.0036
  433loPI   C2A 6920   2.786  17.352   9.853  0.2088  0.0963 -0.2204
  433loPI   C3A 6921   2.808  17.332   9.382 -0.1133 -0.1016  0.1031
  433loPI   C4A 6922   2.729  17.403   9.000 -0.0802 -0.0629 -0.1454
  433loPI   C5A 6923   2.679  17.420   8.590  0.0749 -0.2407 -0.1236
  433loPI   C6A 6924   2.746  17.287   8.167 -0.0161  0.0600  0.1333
  433loPI   C1B 6925   2.311  17.159  10.000 -0.0154  0.1528  0.0814
  433loPI   C2B 6926   2.377  17.050   9.643 -0.3610 -0.2474 -0.0845
  433loPI   C3B 6927   2.216  17.169   9.232  0.0225 -0.0035  0.2222
  433loPI   C4B 6928   2.166  17.267   8.758  0.1644  0.1466  0.4198
  434loPI    C1 6929  16.654  13.698  10.850  0.1339  0.1497  0.2064
  434loPI    C2 6930  16.295  13.716  11.026 -0.0498  0.1242 -0.1554
  434loPI    C3 6931  16.509  13.379  11.042  0.0333  0.1901  0.1985
  434loPI   PO4 6932  16.640  13.765  10.671 -0.1744  0.1822 -0.0621
  434loPI   GL1 6933  16.536  13.975  10.281 -0.2112 -0.2447  0.0057
  434loPI   GL2 6934  16.861  13.965  10.111  0.1037 -0.1758 -0.1611
  434loPI   C1A 6935  16.541  14.278   9.920 -0.0038 -0.1202 -0.3729
  434loPI   C2A 6936  16.569  14.336   9.486 -0.0656  0.0957 -0.0711
  434loPI   C3A 6937  16.439  14.294   9.072 -0.0853  0.1419 -0.2367
  434loPI   C4A 6938  16.494  14.333   8.702  0.1900  0.0081 -0.1059
  434loPI   C5A 6939  16.490  14.347   8.149  0.2533 -0.1093  0.1066
  434loPI   C6A 6940  16.783  14.088   7.832 -0.0830  0.2363 -0.0308
  434loPI   C1B 6941  16.946  14.002   9.733 -0.1891  0.0322  0.2557
  434loPI   C2B 6942  16.940  14.038   9.240 -0.0745  0.0108  0.1365
  434loPI   C3B 6943  16.935  14.022   8.798  0.1005  0.0130 -0.2546
  434loPI   C4B 6944  16.873  13.962   8.288  0.1323  0.0974 -0.1061
  435loPI    C1 6945   0.129   5.324  11.188  0.0736 -0.1187 -0.0169
  435loPI    C2 6946  -0.096   5.044  11.362  0.1618 -0.1424  0.0601
  435loPI    C3 6947   0.157   5.262  11.582  0.0251  0.0634  0.0163
  435loPI   PO4 6948   0.005   5.455  11.005  0.0031 -0.3001  0.1345
  435loPI   GL1 6949  -0.081   5.456  10.530 -0.0009 -0.1923 -0.1000
  435loPI   GL2 6950  -0.035   5.777  10.437 -0.0941  0.0738  0.0877
  435loPI   C1A 6951  -0.095   5.390  10.039 -0.1624  0.0587  0.0459
  435loPI   C2A 6952  -0.081   5.304   9.648 -0.3934  0.4811  0.0363
  435loPI   C3A 6953  -0.073   5.248   9.185  0.3206 -0.2333  0.3091
  435loPI   C4A 6954  -0.002   5.200   8.764 -0.0935  0.0067 -0.1504
  435loPI   C5A 6955  -0.050   5.269   8.368  0.1434 -0.2614 -0.1244
  435loPI   C6A 6956  -0.115   5.486   7.968  0.1976  0.1618 -0.2791
  435loPI   C1B 6957  -0.073   5.866  10.031  0.1273 -0.0331  0.0409
  435loPI   C2B 6958  -0.145   5.809   9.583  0.3548 -0.0739 -0.1888
  435loPI   C3B 6959  -0.007   5.790   9.191 -0.0234 -0.1831 -0.1704
  435loPI   C4B 6960  -0.023   5.896   8.850  0.1274 -0.2021  0.1488
  436loPI    C1 6961  10.930  15.706  10.958  0.1576 -0.1057 -0.0867
  436loPI    C2 6962  11.199  15.567  11.221 -0.0298  0.0811  0.2098
  436loPI    C3 6963  10.858  15.367  11.158  0.0877 -0.0511 -0.0187
  436loPI   PO4 6964  11.029  15.712  10.737  0.0307 -0.1848  0.0060
  436loPI   GL1 6965  11.133  15.882  10.411  0.0631 -0.1869  0.0826
  436loPI   GL2 6966  11.279  15.567  10.351 -0.1256  0.2960 -0.4359
  436loPI   C1A 6967  11.175  15.800   9.897 -0.1004  0.1120 -0.3359
  436loPI   C2A 6968  11.324  15.724   9.602  0.0747 -0.1411 -0.0203
  436loPI   C3A 6969  11.368  15.824   9.219  0.0302 -0.1305 -0.0684
  436loPI   C4A 6970  11.335  15.739   8.816 -0.1332  0.2502 -0.3558
  436loPI   C5A 6971  11.189  15.749   8.378  0.0249 -0.3463 -0.1543
  436loPI   C6A 6972  11.140  15.842   7.974  0.0552  0.1839 -0.2388
  436loPI   C1B 6973  11.171  15.244  10.071  0.0078 -0.0864 -0.0348
  436loPI   C2B 6974  11.160  15.204   9.649 -0.0333 -0.1626 -0.3035
  436loPI   C3B 6975  11.266  15.349   9.275  0.0970  0.2454 -0.3697
  436loPI   C4B 6976  11.147  15.250   8.853  0.1144  0.1342  0.1693
  437loPI    C1 6977  13.974  16.837  10.960  0.0076 -0.1110 -0.1099
  437loPI    C2 6978  14.093  16.765  11.335 -0.2612 -0.5298 -0.0978
  437loPI    C3 6979  13.707  16.837  11.258 -0.1470 -0.0388 -0.2470
  437loPI   PO4 6980  14.147  16.852  10.798 -0.1154  0.0116  0.0076
  437loPI   GL1 6981  14.318  16.810  10.436  0.2190 -0.3267  0.1195
  437loPI   GL2 6982  14.646  16.858  10.363 -0.0728  0.0064  0.2149
  437loPI   C1A 6983  14.295  16.878   9.982 -0.0373  0.0520 -0.0839
  437loPI   C2A 6984  14.197  16.840   9.554 -0.1623 -0.0563  0.2912
  437loPI   C3A 6985  14.276  16.790   9.147  0.1655 -0.3032 -0.1616
  437loPI   C4A 6986  14.242  16.829   8.738  0.2524  0.1264 -0.1867
  437loPI   C5A 6987  14.276  16.820   8.370 -0.3250  0.2736  0.1957
  437loPI   C6A 6988  14.197  16.689   7.940 -0.1679 -0.1889  0.0780
  437loPI   C1B 6989  14.796  16.972  10.014 -0.1836  0.1584 -0.0787
  437loPI   C2B 6990  14.726  16.949   9.553  0.1146  0.1195 -0.1731
  437loPI   C3B 6991  14.763  16.946   9.078 -0.3124 -0.1676 -0.1470
  437loPI   C4B 6992  14.711  17.018   8.650 -0.1226 -0.1587  0.1959
  438loPI    C1 6993   9.420  10.149  10.942 -0.0345 -0.0874 -0.0573
  438loPI    C2 6994   9.793  10.169  11.084 -0.0189 -0.3322 -0.0583
  438loPI    C3 6995   9.487  10.099  11.333 -0.1044  0.1717 -0.0104
  438loPI   PO4 6996   9.545  10.167  10.629  0.0099  0.0011 -0.6362
  438loPI   GL1 6997   9.649   9.883  10.244 -0.2813 -0.0470  0.1222
  438loPI   GL2 6998   9.981   9.800  10.152  0.2339 -0.0202 -0.3048
  438loPI   C1A 6999   9.601  10.090   9.898 -0.2704  0.0605 -0.0784
  438loPI   C2A 7000   9.574  10.023   9.487  0.2456  0.3634  0.0607
  438loPI   C3A 7001   9.579  10.011   9.002 -0.3162 -0.2524 -0.5914
  438loPI   C4A 7002   9.557   9.934   8.586  0.0071 -0.0375 -0.1086
  438loPI   C5A 7003   9.490  10.100   8.171 -0.0482  0.4139 -0.1123
  438loPI   C6A 7004   9.186  10.400   8.179 -0.0057 -0.0488  0.2259
  438loPI   C1B 7005   9.985   9.756   9.744  0.0602  0.2622 -0.1970
  438loPI   C2B 7006  10.045   9.775   9.283  0.0357 -0.0161  0.1193
  438loPI   C3B 7007  10.024   9.787   8.856 -0.0630  0.1260 -0.2400
  438loPI   C4B 7008   9.979   9.695   8.436 -0.0278  0.1238  0.3204
  439loPI    C1 7009   1.988   6.765  10.618 -0.0201 -0.0640  0.2356
  439loPI    C2 7010   2.282   6.507  10.536  0.1974  0.1545  0.3152
  439loPI    C3 7011   2.301   6.735  10.865 -0.0311  0.2155  0.2877
  439loPI   PO4 7012   2.006   6.938  10.376 -0.0021 -0.0484 -0.1383
  439loPI   GL1 7013   2.213   6.694  10.008  0.0561 -0.2277  0.0051
  439loPI   GL2 7014   2.102   6.446  10.114  0.2551  0.2732 -0.1189
  439loPI   C1A 7015   2.219   6.622   9.545  0.0588  0.1364  0.0042
  439loPI   C2A 7016   2.148   6.609   9.144  0.0035 -0.0326 -0.0163
  439loPI   C3A 7017   2.251   6.576   8.829  0.0493  0.0656 -0.1106
  439loPI   C4A 7018   2.283   6.670   8.357 -0.0546  0.3312 -0.0364
  439loPI   C5A 7019   2.465   6.956   8.127 -0.1376 -0.0163  0.0110
  439loPI   C6A 7020   2.881   6.862   7.993 -0.4004 -0.0580  0.0675
  439loPI   C1B 7021   2.097   6.160   9.769  0.0063  0.1966 -0.0701
  439loPI   C2B 7022   2.147   6.009   9.394  0.1863  0.0174  0.2625
  439loPI   C3B 7023   2.226   6.078   9.042 -0.1185 -0.2108  0.1835
  439loPI   C4B 7024   2.228   6.086   8.566  0.0781 -0.0666  0.1947
  440loPI    C1 7025   9.215   8.804  11.459 -0.2720 -0.0730 -0.0540
  440loPI    C2 7026   9.544   8.838  11.684 -0.0369  0.0847 -0.4132
  440loPI    C3 7027   9.296   8.529  11.738 -0.1481  0.2760  0.2635
  440loPI   PO4 7028   9.216   8.720  11.202 -0.0614  0.1742 -0.1549
  440loPI   GL1 7029   9.271   8.451  10.874 -0.1489 -0.0015 -0.0970
  440loPI   GL2 7030   8.967   8.598  10.741  0.2032  0.2747  0.0372
  440loPI   C1A 7031   9.431   8.503  10.442 -0.1405 -0.1675  0.1086
  440loPI   C2A 7032   9.446   8.437   9.999 -0.1504 -0.0239 -0.0463
  440loPI   C3A 7033   9.535   8.459   9.508 -0.0557  0.1164 -0.1138
  440loPI   C4A 7034   9.537   8.510   9.040  0.2100  0.2507 -0.3473
  440loPI   C5A 7035   9.592   8.463   8.513 -0.0063 -0.1662 -0.0561
  440loPI   C6A 7036   9.922   8.397   8.139  0.5084 -0.2344  0.1019
  440loPI   C1B 7037   9.056   8.797  10.332  0.1481 -0.1932  0.3481
  440loPI   C2B 7038   8.983   8.700   9.937 -0.2017 -0.0681  0.0958
  440loPI   C3B 7039   9.119   8.755   9.444 -0.1021 -0.0473  0.5034
  440loPI   C4B 7040   9.108   8.797   8.973 -0.1532  0.0042 -0.1908
  441loPI    C1 7041   1.931   1.288  10.940 -0.2409  0.0362  0.1072
  441loPI    C2 7042   1.802   1.617  11.129  0.0962  0.1216  0.1954
  441loPI    C3 7043   1.959   1.314  11.338  0.0944  0.0443  0.0858
  441loPI   PO4 7044   1.973   1.363  10.647  0.2065  0.2093 -0.0548
  441loPI   GL1 7045   1.833   1.375  10.243  0.1859  0.0247 -0.0100
  441loPI   GL2 7046   1.542   1.424  10.197  0.1301 -0.2763  0.0415
  441loPI   C1A 7047   2.054   1.410   9.841  0.1088 -0.1140 -0.2769
  441loPI   C2A 7048   2.087   1.482   9.439 -0.0395  0.4722 -0.0249
  441loPI   C3A 7049   1.943   1.489   9.013 -0.2528 -0.0543  0.2475
  441loPI   C4A 7050   1.944   1.594   8.525  0.0720 -0.1651  0.0197
  441loPI   C5A 7051   2.288   1.430   8.201 -0.1873  0.1977 -0.1058
  441loPI   C6A 7052   2.736   1.344   8.045  0.0910  0.2084  0.2341
  441loPI   C1B 7053   1.576   1.410   9.672  0.1497 -0.1026 -0.0983
  441loPI   C2B 7054   1.582   1.392   9.313 -0.0992  0.0514 -0.0946
  441loPI   C3B 7055   1.492   1.317   8.901 -0.0783  0.1739  0.3871
  441loPI   C4B 7056   1.566   1.209   8.503  0.1318 -0.2040  0.1618
  442loPI    C1 7057   5.527   2.071  10.885 -0.2398 -0.0464 -0.0585
  442loPI    C2 7058   5.516   2.096  11.284 -0.0021 -0.1396 -0.0447
  442loPI    C3 7059   5.833   1.932  11.102  0.0674  0.2514 -0.2884
  442loPI   PO4 7060   5.364   2.261  10.838  0.1244  0.1737  0.0673
  442loPI   GL1 7061   5.123   2.247  10.457 -0.0385  0.1280 -0.0387
  442loPI   GL2 7062   5.230   2.550  10.458 -0.1234  0.0634  0.2414
  442loPI   C1A 7063   5.155   1.967  10.109  0.1148  0.1408 -0.1458
  442loPI   C2A 7064   5.251   2.009   9.777 -0.0108 -0.1804 -0.1248
  442loPI   C3A 7065   5.351   2.150   9.402 -0.2810 -0.0687 -0.1493
  442loPI   C4A 7066   5.303   2.178   8.943  0.2172  0.0002 -0.0735
  442loPI   C5A 7067   5.311   2.179   8.439 -0.1117 -0.3889  0.1567
  442loPI   C6A 7068   5.725   2.417   8.074 -0.0168  0.1411 -0.0273
  442loPI   C1B 7069   5.215   2.579  10.018  0.0953  0.0949  0.0213
  442loPI   C2B 7070   5.301   2.610   9.627  0.1194  0.1399  0.0279
  442loPI   C3B 7071   5.380   2.697   9.173  0.2272 -0.0261  0.2080
  442loPI   C4B 7072   5.255   2.685   8.637 -0.3957  0.2607  0.0511
  443loPI    C1 7073  15.438  16.316  10.879 -0.2038  0.0867  0.3236
  443loPI    C2 7074  15.310  16.087  10.577  0.4158 -0.0549  0.1553
  443loPI    C3 7075  15.284  15.954  10.953  0.0702 -0.0742  0.1275
  443loPI   PO4 7076  15.682  16.347  10.822  0.1470  0.1028  0.1148
  443loPI   GL1 7077  15.859  16.286  10.426 -0.0593 -0.0182  0.0261
  443loPI   GL2 7078  16.058  16.544  10.307 -0.0769 -0.0471 -0.1477
  443loPI   C1A 7079  15.556  16.270  10.073 -0.0682  0.0641 -0.0197
  443loPI   C2A 7080  15.494  16.275   9.529  0.3159 -0.0333  0.1309
  443loPI   C3A 7081  15.526  16.271   9.099 -0.1993  0.3602 -0.1408
  443loPI   C4A 7082  15.545  16.322   8.728  0.0573  0.1681  0.2203
  443loPI   C5A 7083  15.537  16.715   8.407  0.0160 -0.0662 -0.0497
  443loPI   C6A 7084  15.645  16.739   7.958 -0.1141  0.1362 -0.1433
  443loPI   C1B 7085  16.022  16.387   9.902  0.0352  0.3379 -0.2711
  443loPI   C2B 7086  16.005  16.480   9.441  0.1742 -0.0598  0.0107
  443loPI   C3B 7087  15.989  16.528   8.967  0.1921  0.1595 -0.1383
  443loPI   C4B 7088  16.005  16.536   8.475  0.0839  0.0177 -0.1465
  444loPI    C1 7089   5.531  11.329  10.702  0.1108  0.2003  0.0106
  444loPI    C2 7090   5.712  10.993  10.819 -0.0370  0.1311  0.0423
  444loPI    C3 7091   5.835  11.346  10.961  0.0296  0.0791  0.1147
  444loPI   PO4 7092   5.509  11.326  10.439 -0.1192 -0.1905 -0.0826
  444loPI   GL1 7093   5.529  11.088  10.124  0.0308 -0.0061  0.0901
  444loPI   GL2 7094   5.763  11.249  10.008  0.1963 -0.0090  0.1749
  444loPI   C1A 7095   5.604  10.889   9.628  0.2928  0.0490 -0.1360
  444loPI   C2A 7096   5.597  10.907   9.177  0.1384  0.0685 -0.2967
  444loPI   C3A 7097   5.589  10.924   8.735  0.1507  0.0199  0.1709
  444loPI   C4A 7098   5.695  10.827   8.296  0.0629  0.0741 -0.0859
  444loPI   C5A 7099   5.696  10.889   7.819  0.2790  0.0041 -0.0014
  444loPI   C6A 7100   6.027  11.068   7.561  0.1785  0.4768  0.1279
  444loPI   C1B 7101   5.996  11.171   9.645  0.1337  0.0678  0.2281
  444loPI   C2B 7102   6.015  11.204   9.140  0.2251  0.0038  0.1338
  444loPI   C3B 7103   6.027  11.155   8.604  0.1882 -0.1243  0.0756
  444loPI   C4B 7104   5.935  11.212   8.154 -0.0187  0.2757  0.0611
  445loPI    C1 7105   9.271   9.366  11.561  0.0495 -0.0546 -0.1969
  445loPI    C2 7106   9.196   9.756  11.517 -0.0798 -0.0429  0.1026
  445loPI    C3 7107   9.518   9.636  11.721  0.1042 -0.0955 -0.2123
  445loPI   PO4 7108   9.232   9.288  11.288  0.3881 -0.0475 -0.1772
  445loPI   GL1 7109   9.328   9.169  10.859  0.3133  0.1193  0.1667
  445loPI   GL2 7110   9.578   9.072  10.665 -0.2385 -0.1361 -0.5368
  445loPI   C1A 7111   9.013   9.227  10.477  0.0072 -0.0964  0.0077
  445loPI   C2A 7112   9.085   9.253  10.059 -0.0660 -0.0632  0.3154
  445loPI   C3A 7113   9.071   9.231   9.605 -0.0253  0.2305 -0.1423
  445loPI   C4A 7114   9.116   9.261   9.233  0.1779 -0.1238 -0.0452
  445loPI   C5A 7115   9.123   9.244   8.798 -0.0547  0.1485  0.2972
  445loPI   C6A 7116   9.306   9.222   8.418  0.1652 -0.1259 -0.1045
  445loPI   C1B 7117   9.528   8.950  10.230 -0.2509  0.2001 -0.1460
  445loPI   C2B 7118   9.531   8.999   9.713 -0.1416  0.1874  0.1727
  445loPI   C3B 7119   9.557   8.965   9.291  0.0622  0.1779 -0.0948
  445loPI   C4B 7120   9.597   8.949   8.778 -0.2513  0.0356  0.0438
  446loPI    C1 7121   4.455   7.105  11.037 -0.1713  0.2022 -0.0647
  446loPI    C2 7122   4.107   7.224  11.196 -0.1448 -0.2139  0.3241
  446loPI    C3 7123   4.423   7.156  11.433  0.1585  0.0019 -0.0085
  446loPI   PO4 7124   4.519   7.313  10.863 -0.3290 -0.0051  0.1268
  446loPI   GL1 7125   4.332   7.355  10.457 -0.2292 -0.0002  0.0915
  446loPI   GL2 7126   4.275   7.114  10.388  0.3600 -0.0485  0.2741
  446loPI   C1A 7127   4.434   7.404   9.984  0.2632 -0.0825 -0.0553
  446loPI   C2A 7128   4.504   7.353   9.605  0.2540  0.0059  0.2822
  446loPI   C3A 7129   4.508   7.337   9.158  0.0438  0.0918  0.0393
  446loPI   C4A 7130   4.516   7.280   8.776 -0.1524  0.1779  0.0904
  446loPI   C5A 7131   4.526   7.151   8.318 -0.0069 -0.0068  0.0875
  446loPI   C6A 7132   4.308   7.476   8.095 -0.1302  0.2606 -0.0882
  446loPI   C1B 7133   4.040   7.080  10.029  0.3281 -0.2530 -0.0399
  446loPI   C2B 7134   4.025   7.072   9.592  0.0300 -0.0101  0.1034
  446loPI   C3B 7135   4.046   7.194   9.082 -0.2759 -0.0491  0.2631
  446loPI   C4B 7136   4.086   7.020   8.665 -0.3971  0.2209  0.4904
  447loPI    C1 7137   8.722  11.578  10.743  0.0414  0.0983  0.0511
  447loPI    C2 7138   9.004  11.830  10.872 -0.0178  0.0773  0.2231
  447loPI    C3 7139   8.801  11.606  11.134 -0.1456  0.0410  0.0939
  447loPI   PO4 7140   8.894  11.494  10.510  0.1554  0.0045  0.1408
  447loPI   GL1 7141   8.804  11.196  10.129  0.2301 -0.2009 -0.1709
  447loPI   GL2 7142   8.531  11.425  10.120  0.1894  0.0363 -0.1087
  447loPI   C1A 7143   8.842  10.910   9.793  0.0410 -0.2000 -0.1400
  447loPI   C2A 7144   8.828  10.923   9.421  0.1959 -0.2280  0.0999
  447loPI   C3A 7145   8.679  10.977   9.078 -0.4221  0.0462  0.4010
  447loPI   C4A 7146   8.720  10.994   8.602 -0.2560  0.0603 -0.1354
  447loPI   C5A 7147   8.735  11.200   8.090 -0.0590 -0.0331  0.1435
  447loPI   C6A 7148   8.495  11.483   7.862  0.2399 -0.1754  0.2227
  447loPI   C1B 7149   8.571  11.376   9.711 -0.3861  0.0570 -0.2039
  447loPI   C2B 7150   8.595  11.375   9.289  0.2439 -0.0214 -0.0457
  447loPI   C3B 7151   8.745  11.472   8.819 -0.4704  0.2860  0.2003
  447loPI   C4B 7152   9.136  11.378   8.542  0.0500  0.1487 -0.4141
  448loPI    C1 7153   3.138   1.727  10.925 -0.0372 -0.0412 -0.0653
  448loPI    C2 7154   3.086   1.343  11.025 -0.1823  0.0155  0.0808
  448loPI    C3 7155   2.813   1.616  11.129 -0.0472  0.1696  0.0357
  448loPI   PO4 7156   3.227   1.778  10.686  0.0772  0.2140  0.1095
  448loPI   GL1 7157   3.546   1.771  10.339 -0.2263 -0.1200 -0.0781
  448loPI   GL2 7158   3.430   2.046  10.325 -0.1405  0.1055  0.1030
  448loPI   C1A 7159   3.451   1.550   9.887 -0.0215 -0.0379 -0.1569
  448loPI   C2A 7160   3.521   1.680   9.387  0.4380 -0.0624  0.0784
  448loPI   C3A 7161   3.348   1.661   8.994 -0.1320 -0.1687  0.0763
  448loPI   C4A 7162   3.312   1.658   8.600  0.2168  0.1062  0.1807
  448loPI   C5A 7163   3.257   1.685   8.159 -0.0799  0.3441 -0.0088
  448loPI   C6A 7164   3.206   2.060   7.861 -0.1045 -0.1174  0.1292
  448loPI   C1B 7165   3.451   2.246   9.882  0.0384 -0.0747 -0.1469
  448loPI   C2B 7166   3.544   2.205   9.367 -0.0193 -0.1349  0.1502
  448loPI   C3B 7167   3.380   2.175   8.926 -0.0670 -0.1457  0.0792
  448loPI   C4B 7168   3.431   2.141   8.463 -0.0557  0.3637 -0.1233
  449loPI    C1 7169   7.197   7.048  11.494  0.2835 -0.2443 -0.0330
  449loPI    C2 7170   7.562   7.211  11.503  0.1097  0.1518  0.0429
  449loPI    C3 7171   7.287   7.322  11.771 -0.0631 -0.1579 -0.0018
  449loPI   PO4 7172   7.264   6.832  11.404  0.0830  0.0690 -0.1237
  449loPI   GL1 7173   7.149   6.854  10.998  0.0761 -0.0410  0.1238
  449loPI   GL2 7174   7.185   7.026  10.849  0.3702 -0.1995  0.0130
  449loPI   C1A 7175   7.172   6.593  10.560 -0.0322 -0.2261 -0.2155
  449loPI   C2A 7176   7.144   6.689  10.161  0.1368  0.0796 -0.1694
  449loPI   C3A 7177   7.224   6.659   9.751 -0.2317 -0.0776 -0.0056
  449loPI   C4A 7178   7.286   6.772   9.280 -0.2086  0.1658  0.0266
  449loPI   C5A 7179   7.255   6.783   8.856 -0.0805  0.0959 -0.0581
  449loPI   C6A 7180   7.072   6.524   8.497  0.1477  0.0021 -0.3671
  449loPI   C1B 7181   7.496   6.924  10.538 -0.1814 -0.0289 -0.0744
  449loPI   C2B 7182   7.590   6.984  10.096  0.0833  0.0590 -0.0077
  449loPI   C3B 7183   7.669   6.953   9.613 -0.1865 -0.0291  0.1341
  449loPI   C4B 7184   7.736   6.929   9.185  0.0195  0.0066 -0.1820
  450loPI    C1 7185   8.635   9.912  11.111 -0.0954  0.1105 -0.0690
  450loPI    C2 7186   8.701   9.574  11.316  0.0894  0.0913 -0.1577
  450loPI    C3 7187   8.464   9.858  11.469  0.0921  0.0063  0.0065
  450loPI   PO4 7188   8.882   9.985  11.030  0.1947  0.2341 -0.0789
  450loPI   GL1 7189   8.992  10.138  10.633 -0.1883 -0.0218 -0.0636
  450loPI   GL2 7190   9.129   9.863  10.578 -0.0780  0.0154 -0.1303
  450loPI   C1A 7191   8.764  10.151  10.281 -0.0672 -0.0437  0.0285
  450loPI   C2A 7192   8.744  10.041   9.871  0.0898  0.0562 -0.0607
  450loPI   C3A 7193   8.680   9.972   9.483 -0.1151 -0.3175  0.1295
  450loPI   C4A 7194   8.645  10.014   9.163  0.0621 -0.1436 -0.0781
  450loPI   C5A 7195   8.689  10.008   8.749 -0.2193  0.2948  0.0052
  450loPI   C6A 7196   8.981   9.857   8.399  0.0047 -0.2371  0.1064
  450loPI   C1B 7197   9.178   9.846  10.180 -0.1764  0.0331  0.1924
  450loPI   C2B 7198   9.098   9.730   9.733  0.1341 -0.0221 -0.1302
  450loPI   C3B 7199   9.184   9.770   9.328 -0.0807 -0.0566  0.2896
  450loPI   C4B 7200   9.157   9.800   8.930 -0.0035  0.2360  0.1147
  451loPI    C1 7201  11.603   1.545  10.882 -0.0745 -0.2213  0.0202
  451loPI    C2 7202  11.967   1.384  10.919  0.0368  0.0363  0.0646
  451loPI    C3 7203  11.831   1.638  11.197 -0.2618 -0.2195  0.1574
  451loPI   PO4 7204  11.599   1.659  10.625 -0.0937  0.3894 -0.0775
  451loPI   GL1 7205  11.955   1.695  10.388 -0.1685  0.1348  0.2262
  451loPI   GL2 7206  11.910   1.347  10.319 -0.3171 -0.0319 -0.1646
  451loPI   C1A 7207  11.935   1.941   9.993 -0.2300  0.4038  0.0800
  451loPI   C2A 7208  11.939   2.075   9.571 -0.2413  0.2247  0.2815
  451loPI   C3A 7209  11.989   2.156   9.129 -0.2403  0.0202 -0.0193
  451loPI   C4A 7210  12.024   2.242   8.657  0.2689  0.0511 -0.0395
  451loPI   C5A 7211  12.219   2.282   8.301 -0.2420  0.1575  0.0269
  451loPI   C6A 7212  12.357   2.138   7.884  0.1312 -0.2253  0.4521
  451loPI   C1B 7213  11.900   1.498   9.742  0.1358  0.1577 -0.0344
  451loPI   C2B 7214  11.997   1.608   9.361  0.0533 -0.2192  0.0904
  451loPI   C3B 7215  11.973   1.707   8.895  0.0012 -0.1318  0.3587
  451loPI   C4B 7216  11.978   1.778   8.454 -0.1217 -0.1449 -0.0585
  452loPI    C1 7217   8.598  17.173  10.951  0.1847  0.0451  0.0285
  452loPI    C2 7218   8.888  17.266  11.210  0.2263 -0.3598  0.1355
  452loPI    C3 7219   8.510  17.376  11.285  0.3274  0.0615  0.0565
  452loPI   PO4 7220   8.745  17.190  10.696 -0.0822 -0.1165  0.0822
  452loPI   GL1 7221   8.755  17.051  10.256  0.2284 -0.2391 -0.0421
  452loPI   GL2 7222   8.614  16.682  10.317 -0.1391 -0.1830 -0.1829
  452loPI   C1A 7223   8.652  17.127   9.918  0.0858  0.0733 -0.1933
  452loPI   C2A 7224   8.666  17.141   9.538 -0.0123  0.0002  0.0999
  452loPI   C3A 7225   8.609  17.169   8.990  0.2513  0.0590  0.1155
  452loPI   C4A 7226   8.824  17.046   8.683  0.1538  0.2861  0.0992
  452loPI   C5A 7227   9.143  17.064   8.325  0.0784  0.0696 -0.5148
  452loPI   C6A 7228   9.493  17.301   8.283  0.1367 -0.0988 -0.0786
  452loPI   C1B 7229   8.621  16.614   9.881  0.0137  0.0451  0.0580
  452loPI   C2B 7230   8.526  16.587   9.465 -0.0183 -0.1753 -0.1607
  452loPI   C3B 7231   8.499  16.554   9.014 -0.4171 -0.3628 -0.3471
  452loPI   C4B 7232   8.571  16.624   8.645 -0.0415  0.1453  0.0626
  453loPI    C1 7233   2.325   7.282  10.597 -0.2051  0.3082 -0.0131
  453loPI    C2 7234   2.122   7.196  10.931 -0.0698  0.1196  0.0223
  453loPI    C3 7235   2.522   7.190  10.933 -0.0667  0.2228 -0.1168
  453loPI   PO4 7236   2.137   7.461  10.482  0.3110  0.1714 -0.0018
  453loPI   GL1 7237   2.017   7.466  10.093 -0.2342  0.0030 -0.0195
  453loPI   GL2 7238   2.232   7.276   9.924  0.0802 -0.1293  0.2123
  453loPI   C1A 7239   1.801   7.511   9.741 -0.1839  0.1949 -0.2003
  453loPI   C2A 7240   1.788   7.480   9.321 -0.1582  0.2186  0.1296
  453loPI   C3A 7241   1.791   7.465   8.945  0.1470 -0.0584  0.0735
  453loPI   C4A 7242   1.733   7.402   8.520 -0.2695 -0.2930  0.1647
  453loPI   C5A 7243   1.892   7.605   8.189  0.2432 -0.1921 -0.0253
  453loPI   C6A 7244   1.713   8.047   8.069  0.0129  0.0273 -0.2383
  453loPI   C1B 7245   2.169   7.189   9.477  0.1001 -0.2355  0.1077
  453loPI   C2B 7246   2.141   7.162   9.045  0.0053  0.0775 -0.2416
  453loPI   C3B 7247   2.166   7.048   8.648 -0.0875  0.1310 -0.0076
  453loPI   C4B 7248   2.039   7.118   8.220  0.1727 -0.1928 -0.1139
  454loPI    C1 7249   0.169  12.534  10.211 -0.2940 -0.1642  0.0457
  454loPI    C2 7250  -0.199  12.379  10.236 -0.2808 -0.1465  0.4095
  454loPI    C3 7251   0.040  12.378  10.556  0.0446 -0.1733  0.1720
  454loPI   PO4 7252   0.242  12.533   9.939 -0.2250 -0.0279  0.0956
  454loPI   GL1 7253   0.319  12.834   9.592 -0.0394  0.0690 -0.0788
  454loPI   GL2 7254   0.152  13.266   9.514  0.1177  0.0859  0.0253
  454loPI   C1A 7255   0.281  12.919   9.189  0.0455 -0.0658 -0.1003
  454loPI   C2A 7256   0.200  13.024   8.780 -0.3079 -0.0974 -0.1225
  454loPI   C3A 7257   0.046  12.911   8.439 -0.2284 -0.3645  0.0262
  454loPI   C4A 7258   0.052  12.700   8.103  0.1739 -0.1585 -0.0326
  454loPI   C5A 7259   0.188  12.401   7.707 -0.1648 -0.0145 -0.1440
  454loPI   C6A 7260   0.523  12.136   7.535 -0.1848 -0.0896  0.0682
  454loPI   C1B 7261  -0.068  13.301   9.131  0.0686  0.1264  0.2833
  454loPI   C2B 7262  -0.289  13.381   8.718  0.0966 -0.2746 -0.1250
  454loPI   C3B 7263  -0.214  13.378   8.322 -0.3106 -0.0900 -0.0395
  454loPI   C4B 7264   0.182  13.328   8.282  0.0617 -0.0796 -0.3169
  455loPI    C1 7265  12.070   6.920  11.164  0.0893 -0.1996 -0.1666
  455loPI    C2 7266  12.390   6.949  11.403 -0.1039 -0.1432  0.0900
  455loPI    C3 7267  12.143   6.635  11.436 -0.1487 -0.1194 -0.0154
  455loPI   PO4 7268  12.167   6.944  10.891 -0.0289 -0.4319  0.0243
  455loPI   GL1 7269  12.420   6.843  10.624  0.0528 -0.0940 -0.1218
  455loPI   GL2 7270  12.628   7.140  10.564 -0.0176  0.0110 -0.2674
  455loPI   C1A 7271  12.179   6.800  10.174 -0.1895 -0.0611  0.1633
  455loPI   C2A 7272  12.161   6.749   9.701  0.0062  0.0620  0.0564
  455loPI   C3A 7273  12.172   6.828   9.263  0.1036  0.1268 -0.2823
  455loPI   C4A 7274  12.223   6.945   8.817  0.1708 -0.2387 -0.1031
  455loPI   C5A 7275  12.042   6.766   8.574  0.0454 -0.1390  0.0278
  455loPI   C6A 7276  11.786   6.563   8.333  0.0665  0.0373  0.1119
  455loPI   C1B 7277  12.528   7.123  10.138  0.1918 -0.1444  0.0058
  455loPI   C2B 7278  12.570   7.123   9.708  0.0367  0.1066 -0.2163
  455loPI   C3B 7279  12.600   7.101   9.309 -0.1557  0.4477 -0.0795
  455loPI   C4B 7280  12.730   7.081   8.892  0.0278  0.1816  0.1720
  456loPI    C1 7281   6.893   4.986  11.186  0.0539 -0.2494 -0.0122
  456loPI    C2 7282   7.265   4.867  11.269  0.1581  0.0540 -0.0323
  456loPI    C3 7283   7.107   5.179  11.464 -0.0399  0.0051 -0.1134
  456loPI   PO4 7284   6.890   5.032  10.921 -0.1111 -0.1605  0.2238
  456loPI   GL1 7285   6.821   4.877  10.460 -0.1410  0.1263  0.1250
  456loPI   GL2 7286   7.007   4.559  10.320 -0.3186  0.0644  0.0050
  456loPI   C1A 7287   6.658   4.984  10.166  0.0995 -0.1415  0.3809
  456loPI   C2A 7288   6.693   4.956   9.786 -0.1023  0.0835 -0.0237
  456loPI   C3A 7289   6.710   4.937   9.334  0.0366 -0.3540  0.1538
  456loPI   C4A 7290   6.761   4.987   8.847  0.2478  0.1912 -0.1800
  456loPI   C5A 7291   6.890   5.091   8.406  0.0569 -0.0901 -0.0466
  456loPI   C6A 7292   6.666   4.881   8.031  0.4479  0.1414  0.3269
  456loPI   C1B 7293   7.164   4.652   9.890 -0.2008 -0.3211 -0.0865
  456loPI   C2B 7294   7.156   4.724   9.438 -0.4190  0.3165 -0.0664
  456loPI   C3B 7295   7.166   4.633   9.044  0.0177  0.2992 -0.4172
  456loPI   C4B 7296   7.282   4.749   8.635  0.1312  0.1413  0.1179
  457loPI    C1 7297  16.229   1.724  11.374  0.1071  0.1047 -0.1231
  457loPI    C2 7298  16.219   1.325  11.354  0.1694  0.1042 -0.1437
  457loPI    C3 7299  15.956   1.520  11.583  0.2809  0.0386  0.0427
  457loPI   PO4 7300  16.437   1.805  11.190  0.0383  0.1491 -0.0003
  457loPI   GL1 7301  16.406   1.911  10.849  0.0135 -0.1172 -0.1006
  457loPI   GL2 7302  16.389   2.180  10.791 -0.1365  0.1892 -0.0734
  457loPI   C1A 7303  16.498   1.599  10.497  0.2012  0.0699 -0.1370
  457loPI   C2A 7304  16.500   1.530  10.032  0.0504  0.1400  0.2015
  457loPI   C3A 7305  16.492   1.511   9.543 -0.3294  0.0556  0.0552
  457loPI   C4A 7306  16.438   1.600   9.171  0.3751 -0.0901 -0.2355
  457loPI   C5A 7307  16.461   1.411   8.795 -0.2218  0.0333 -0.0975
  457loPI   C6A 7308  16.394   1.230   8.350 -0.0136  0.2946 -0.0590
  457loPI   C1B 7309  16.482   2.021  10.345 -0.0567 -0.1699  0.1605
  457loPI   C2B 7310  16.527   1.975   9.918  0.0877  0.0667 -0.2133
  457loPI   C3B 7311  16.550   2.089   9.468  0.1550 -0.1640  0.2399
  457loPI   C4B 7312  16.446   2.068   8.911  0.1565 -0.0422 -0.3001
  458loPI    C1 7313   9.839  11.418  10.676  0.1462 -0.1866  0.0213
  458loPI    C2 7314  10.146  11.655  10.774  0.1894 -0.2073 -0.0632
  458loPI    C3 7315  10.071  11.326  10.989  0.1381 -0.1252  0.0457
  458loPI   PO4 7316   9.855  11.370  10.401  0.0933 -0.1132 -0.0412
  458loPI   GL1 7317   9.976  11.574  10.010 -0.2483 -0.1582 -0.1473
  458loPI   GL2 7318  10.237  11.656  10.205  0.0218  0.1842 -0.0123
  458loPI   C1A 7319  10.071  11.524   9.586  0.1217  0.3105  0.1606
  458loPI   C2A 7320  10.136  11.407   9.166 -0.0234  0.1389  0.1220
  458loPI   C3A 7321  10.177  11.239   8.758 -0.1697  0.0702 -0.1168
  458loPI   C4A 7322  10.005  11.209   8.439 -0.1519 -0.2058 -0.0991
  458loPI   C5A 7323  10.168  11.131   8.112 -0.1015 -0.2743  0.0317
  458loPI   C6A 7324  10.434  10.950   7.846 -0.2167 -0.0394  0.3462
  458loPI   C1B 7325  10.521  11.570   9.901  0.2517  0.1007 -0.1443
  458loPI   C2B 7326  10.571  11.593   9.452 -0.1423  0.2702 -0.1665
  458loPI   C3B 7327  10.576  11.521   8.992 -0.1624 -0.1428  0.2104
  458loPI   C4B 7328  10.622  11.429   8.581 -0.0735 -0.1222 -0.0582
  459loPI    C1 7329   6.146   4.640  11.276 -0.0982 -0.0468  0.1171
  459loPI    C2 7330   6.535   4.656  11.364 -0.0737 -0.1318  0.0255
  459loPI    C3 7331   6.264   4.758  11.640  0.0190  0.1097  0.0297
  459loPI   PO4 7332   6.177   4.445  11.042 -0.1334  0.2763 -0.1701
  459loPI   GL1 7333   6.249   4.422  10.603  0.0349  0.0637 -0.2488
  459loPI   GL2 7334   6.473   4.373  10.376 -0.1295  0.0936  0.0561
  459loPI   C1A 7335   6.188   4.718  10.231  0.0536 -0.0643  0.0353
  459loPI   C2A 7336   6.197   4.716   9.765 -0.0470 -0.0022  0.2115
  459loPI   C3A 7337   6.261   4.773   9.282  0.1855 -0.0635 -0.2237
  459loPI   C4A 7338   6.266   4.750   8.796 -0.1199 -0.0002 -0.3164
  459loPI   C5A 7339   6.506   4.773   8.452  0.2742 -0.3991  0.0513
  459loPI   C6A 7340   6.752   4.530   8.346  0.1956  0.2877 -0.0735
  459loPI   C1B 7341   6.587   4.448  10.016 -0.0558 -0.1497 -0.1134
  459loPI   C2B 7342   6.755   4.489   9.587  0.0773 -0.1701  0.1254
  459loPI   C3B 7343   6.717   4.351   9.268  0.5735  0.0808  0.0008
  459loPI   C4B 7344   6.721   4.411   8.827  0.1209  0.0986  0.1480
  460loPI    C1 7345  12.472  16.224  11.223 -0.0432  0.1695  0.4031
  460loPI    C2 7346  12.379  15.836  11.192  0.3469  0.1040 -0.0824
  460loPI    C3 7347  12.106  16.097  11.324 -0.0615 -0.2704 -0.1598
  460loPI   PO4 7348  12.607  16.233  10.926  0.2186 -0.0638 -0.2782
  460loPI   GL1 7349  12.448  16.099  10.531  0.1414  0.0978  0.0340
  460loPI   GL2 7350  12.769  16.234  10.448 -0.0327 -0.1595  0.0101
  460loPI   C1A 7351  12.190  16.086  10.184 -0.0169  0.2090  0.0677
  460loPI   C2A 7352  12.256  16.040   9.763  0.4514  0.2493 -0.0968
  460loPI   C3A 7353  12.240  16.141   9.266 -0.2488  0.3029  0.3165
  460loPI   C4A 7354  12.290  16.064   8.812 -0.0900  0.0793  0.0379
  460loPI   C5A 7355  12.290  16.094   8.329  0.0724 -0.2782 -0.2397
  460loPI   C6A 7356  12.215  15.928   7.926  0.2513  0.2888  0.1091
  460loPI   C1B 7357  12.714  16.279  10.029 -0.2173 -0.1581 -0.0135
  460loPI   C2B 7358  12.688  16.206   9.628 -0.3272 -0.1543 -0.2230
  460loPI   C3B 7359  12.705  16.224   9.202  0.0103  0.0197 -0.1472
  460loPI   C4B 7360  12.797  16.257   8.730  0.0006  0.0697 -0.1500
  461loPI    C1 7361   7.526   8.340  11.599 -0.2092 -0.2193  0.1313
  461loPI    C2 7362   7.891   8.464  11.706 -0.2070 -0.0518 -0.0629
  461loPI    C3 7363   7.604   8.422  11.982 -0.0521 -0.1493  0.0851
  461loPI   PO4 7364   7.722   8.200  11.276  0.0143 -0.0611 -0.1991
  461loPI   GL1 7365   7.672   8.171  10.881 -0.1011  0.0809  0.0420
  461loPI   GL2 7366   7.728   7.890  10.609  0.0449 -0.0874  0.1375
  461loPI   C1A 7367   8.084   8.152  10.534 -0.1144  0.0368 -0.2630
  461loPI   C2A 7368   8.105   8.217  10.122 -0.2231 -0.2189 -0.0295
  461loPI   C3A 7369   8.090   8.139   9.664 -0.0551 -0.2626  0.2156
  461loPI   C4A 7370   8.159   8.308   9.186  0.1484  0.0984 -0.0724
  461loPI   C5A 7371   8.208   8.299   8.735 -0.4160 -0.3855  0.0253
  461loPI   C6A 7372   8.577   8.306   8.564 -0.1048 -0.2068 -0.2623
  461loPI   C1B 7373   7.663   7.972  10.140  0.0958  0.0482 -0.4480
  461loPI   C2B 7374   7.634   7.991   9.708 -0.0829 -0.0124  0.1554
  461loPI   C3B 7375   7.745   8.066   9.227 -0.0310  0.0992  0.3301
  461loPI   C4B 7376   7.767   8.091   8.784 -0.0982  0.1817 -0.0260
  462loPI    C1 7377  12.412   9.186  10.778 -0.2722 -0.0867  0.1619
  462loPI    C2 7378  12.457   9.533  10.972 -0.2618 -0.0981  0.1799
  462loPI    C3 7379  12.573   9.192  11.145  0.1827 -0.0620 -0.0313
  462loPI   PO4 7380  12.556   9.225  10.496  0.3356  0.1582 -0.0587
  462loPI   GL1 7381  12.505   9.238  10.103  0.0782  0.2977  0.0408
  462loPI   GL2 7382  12.586   8.847  10.187  0.0773 -0.0623 -0.1007
  462loPI   C1A 7383  12.625   9.166   9.694 -0.1392  0.1679 -0.2941
  462loPI   C2A 7384  12.648   9.114   9.283 -0.0668 -0.0036  0.3532
  462loPI   C3A 7385  12.688   9.099   8.915 -0.0540  0.1241 -0.3633
  462loPI   C4A 7386  12.692   9.178   8.466  0.2082  0.2694 -0.3001
  462loPI   C5A 7387  12.863   9.354   8.154 -0.0369 -0.0399 -0.0670
  462loPI   C6A 7388  12.666   9.770   7.909 -0.1610  0.1500  0.3421
  462loPI   C1B 7389  12.574   8.701   9.804  0.2410  0.4173 -0.1937
  462loPI   C2B 7390  12.576   8.584   9.360 -0.0372  0.0572 -0.1394
  462loPI   C3B 7391  12.592   8.603   8.873  0.1020 -0.0641 -0.1092
  462loPI   C4B 7392  12.626   8.713   8.533 -0.1567  0.0032  0.2258
  463loPI    C1 7393   9.923  12.887  10.738  0.0521  0.0202  0.1936
  463loPI    C2 7394  10.188  12.599  10.822 -0.2571 -0.2511  0.2613
  463loPI    C3 7395  10.067  12.850  11.110  0.1635  0.0843  0.1574
  463loPI   PO4 7396  10.001  12.852  10.400 -0.0744 -0.0564 -0.0065
  463loPI   GL1 7397   9.915  13.030  10.067  0.1386  0.0112 -0.0571
  463loPI   GL2 7398   9.677  12.860   9.960  0.3002 -0.0818  0.3787
  463loPI   C1A 7399   9.868  13.267   9.782 -0.1218 -0.0980  0.1016
  463loPI   C2A 7400   9.852  13.352   9.399  0.0729  0.2715  0.1162
  463loPI   C3A 7401   9.897  13.373   9.024 -0.0937 -0.2944  0.2268
  463loPI   C4A 7402   9.715  13.231   8.673  0.0412  0.0113  0.0542
  463loPI   C5A 7403   9.909  13.072   8.393  0.0480  0.2316  0.1097
  463loPI   C6A 7404  10.097  13.179   8.004  0.1022 -0.1094 -0.0508
  463loPI   C1B 7405   9.758  12.850   9.464 -0.1872  0.1885  0.2052
  463loPI   C2B 7406   9.832  12.871   9.072  0.0957 -0.0838  0.0434
  463loPI   C3B 7407   9.800  12.673   8.667  0.1933 -0.0713  0.0170
  463loPI   C4B 7408   9.752  12.576   8.222  0.2329 -0.0097  0.0615
  464loPI    C1 7409   0.055   7.877  10.843  0.0560  0.1019  0.2117
  464loPI    C2 7410  -0.038   7.560  11.069  0.2030 -0.0121  0.1141
  464loPI    C3 7411   0.129   7.883  11.236 -0.0807  0.0732  0.2385
  464loPI   PO4 7412   0.097   7.726  10.608  0.0838 -0.2086  0.4170
  464loPI   GL1 7413  -0.108   7.642  10.164  0.0161 -0.1530 -0.0982
  464loPI   GL2 7414  -0.122   7.928  10.170  0.1415 -0.0551  0.4655
  464loPI   C1A 7415  -0.100   7.429   9.753 -0.0740 -0.3289 -0.1372
  464loPI   C2A 7416  -0.058   7.330   9.264  0.3266  0.0758  0.3472
  464loPI   C3A 7417   0.042   7.396   8.722  0.0432 -0.0043 -0.1404
  464loPI   C4A 7418   0.174   7.475   8.253 -0.0374 -0.0237  0.2441
  464loPI   C5A 7419   0.478   7.459   7.861  0.0406  0.0475  0.0516
  464loPI   C6A 7420   0.661   7.133   7.571 -0.0272  0.0169  0.0437
  464loPI   C1B 7421  -0.085   7.952   9.713  0.2890 -0.3462 -0.2198
  464loPI   C2B 7422   0.019   7.938   9.276 -0.1305  0.1714  0.0385
  464loPI   C3B 7423   0.003   7.932   8.799 -0.1508  0.0433 -0.4274
  464loPI   C4B 7424   0.232   7.960   8.435 -0.1985 -0.0973  0.1408
  465loPI    C1 7425   2.162  16.692  10.925 -0.0451 -0.1967  0.1370
  465loPI    C2 7426   2.228  16.412  11.202  0.0001 -0.0488  0.2770
  465loPI    C3 7427   2.089  16.771  11.310 -0.0009  0.0031  0.1052
  465loPI   PO4 7428   2.036  16.491  10.714 -0.4132 -0.1877  0.0027
  465loPI   GL1 7429   1.889  16.591  10.306 -0.0872 -0.0908 -0.1561
  465loPI   GL2 7430   1.945  16.901  10.372  0.0866  0.4100  0.0428
  465loPI   C1A 7431   1.784  16.514  10.002  0.1600  0.2282  0.1277
  465loPI   C2A 7432   1.705  16.475   9.557  0.0957  0.1346 -0.0937
  465loPI   C3A 7433   1.729  16.480   9.074 -0.2457  0.0110 -0.2206
  465loPI   C4A 7434   1.678  16.612   8.723  0.1585  0.2402  0.0391
  465loPI   C5A 7435   1.502  16.689   8.225  0.0201  0.2419  0.2265
  465loPI   C6A 7436   1.270  16.475   7.833 -0.1797 -0.0489  0.2466
  465loPI   C1B 7437   1.855  17.006   9.925 -0.3829 -0.0896 -0.1155
  465loPI   C2B 7438   1.747  16.999   9.528 -0.0759  0.0547 -0.0142
  465loPI   C3B 7439   1.764  17.024   9.016 -0.0345  0.0839 -0.0149
  465loPI   C4B 7440   1.788  17.092   8.488 -0.1561 -0.1208  0.2822
  466loPI    C1 7441   3.456   4.975  11.052  0.0037  0.0404 -0.0337
  466loPI    C2 7442   3.689   4.687  11.204  0.0010  0.1231  0.1293
  466loPI    C3 7443   3.369   4.814  11.408 -0.3207 -0.1478 -0.1932
  466loPI   PO4 7444   3.539   5.005  10.780 -0.1222  0.0430  0.1669
  466loPI   GL1 7445   3.456   4.876  10.357  0.0105 -0.1573 -0.3589
  466loPI   GL2 7446   3.308   4.620  10.364 -0.0572  0.0447 -0.0229
  466loPI   C1A 7447   3.495   4.777   9.880 -0.1737  0.2065  0.0422
  466loPI   C2A 7448   3.597   4.710   9.508 -0.0263  0.0895  0.3232
  466loPI   C3A 7449   3.532   4.717   9.070  0.1694  0.0850  0.1465
  466loPI   C4A 7450   3.515   4.699   8.604 -0.2932 -0.2810 -0.5550
  466loPI   C5A 7451   3.539   4.329   8.323 -0.0491  0.0203 -0.1003
  466loPI   C6A 7452   3.877   4.179   8.169 -0.1063 -0.3309 -0.1340
  466loPI   C1B 7453   3.045   4.497  10.003  0.1707  0.3638 -0.0705
  466loPI   C2B 7454   3.125   4.503   9.557  0.1754  0.1093  0.2125
  466loPI   C3B 7455   3.061   4.509   9.090 -0.0524  0.2157  0.0658
  466loPI   C4B 7456   3.005   4.467   8.641  0.1052 -0.0256  0.0114
  467loPI    C1 7457  10.894   5.521  11.446  0.3623 -0.0456  0.0095
  467loPI    C2 7458  10.685   5.313  11.717  0.2110 -0.0617 -0.1184
  467loPI    C3 7459  10.835   5.672  11.811  0.2845 -0.1313  0.0325
  467loPI   PO4 7460  10.854   5.565  11.192  0.2613 -0.0609  0.1197
  467loPI   GL1 7461  10.897   5.451  10.789  0.2894 -0.0209 -0.1565
  467loPI   GL2 7462  10.594   5.147  10.755 -0.0417 -0.1619 -0.1198
  467loPI   C1A 7463  10.816   5.609  10.355  0.1000 -0.0573  0.0241
  467loPI   C2A 7464  10.914   5.559   9.992 -0.2062 -0.0342 -0.0556
  467loPI   C3A 7465  10.864   5.533   9.519 -0.2488 -0.1174  0.1643
  467loPI   C4A 7466  10.889   5.604   9.083 -0.0190 -0.2905 -0.0201
  467loPI   C5A 7467  10.808   5.575   8.617 -0.1750 -0.2661  0.0558
  467loPI   C6A 7468  10.661   5.748   8.253  0.2484 -0.1796 -0.2215
  467loPI   C1B 7469  10.644   5.115  10.380  0.2640  0.3149  0.2820
  467loPI   C2B 7470  10.782   5.008   9.911 -0.1843 -0.0572 -0.1625
  467loPI   C3B 7471  10.854   4.964   9.428  0.1343 -0.1419  0.1488
  467loPI   C4B 7472  10.872   5.130   9.031 -0.0790  0.1390  0.0692
  468loPI    C1 7473  10.425   3.827  11.048  0.3021  0.0787 -0.0544
  468loPI    C2 7474  10.132   3.786  11.318  0.1881 -0.2456 -0.2215
  468loPI    C3 7475  10.485   3.938  11.427  0.0326 -0.0585  0.0317
  468loPI   PO4 7476  10.347   3.883  10.741  0.2396 -0.0495  0.1141
  468loPI   GL1 7477  10.063   3.735  10.359  0.0926  0.0475 -0.2820
  468loPI   GL2 7478  10.374   3.524  10.405  0.1812 -0.1302  0.1560
  468loPI   C1A 7479   9.914   3.871   9.994  0.0659 -0.0598 -0.1452
  468loPI   C2A 7480   9.884   4.013   9.623  0.2025 -0.2631 -0.1233
  468loPI   C3A 7481   9.894   4.027   9.268 -0.1364  0.0812 -0.0065
  468loPI   C4A 7482   9.945   4.046   8.882 -0.0686 -0.0892 -0.2787
  468loPI   C5A 7483   9.786   4.040   8.582 -0.2101  0.5467 -0.1554
  468loPI   C6A 7484   9.930   4.063   8.213  0.2619  0.3917 -0.1996
  468loPI   C1B 7485  10.326   3.659   9.935 -0.1730 -0.3057 -0.1995
  468loPI   C2B 7486  10.328   3.753   9.537  0.3594  0.2202 -0.0328
  468loPI   C3B 7487  10.338   3.858   9.125  0.0266 -0.3208 -0.0194
  468loPI   C4B 7488  10.250   3.696   8.627 -0.0119  0.0027 -0.0332
  469loPI    C1 7489  15.213   1.473  10.854  0.1001  0.0834  0.0809
  469loPI    C2 7490  15.244   1.680  11.194 -0.1844  0.0401  0.1359
  469loPI    C3 7491  15.063   1.323  11.193 -0.1192  0.0067 -0.0471
  469loPI   PO4 7492  15.453   1.458  10.797  0.0176  0.0841  0.2697
  469loPI   GL1 7493  15.710   1.683  10.486  0.1858 -0.1298  0.1347
  469loPI   GL2 7494  15.994   1.827  10.347 -0.2885 -0.0501 -0.0138
  469loPI   C1A 7495  15.654   1.662  10.070 -0.2114  0.0873 -0.0911
  469loPI   C2A 7496  15.633   1.628   9.548 -0.1143  0.0194 -0.0752
  469loPI   C3A 7497  15.572   1.513   9.167 -0.1830 -0.0378 -0.0409
  469loPI   C4A 7498  15.360   1.594   8.820  0.5259  0.1113  0.3339
  469loPI   C5A 7499  15.375   1.446   8.439  0.0824  0.0583 -0.0123
  469loPI   C6A 7500  15.188   1.400   8.069 -0.0684  0.3362 -0.0104
  469loPI   C1B 7501  16.099   1.802   9.984  0.1819  0.2332 -0.0325
  469loPI   C2B 7502  16.099   1.837   9.493 -0.0614  0.1892  0.1342
  469loPI   C3B 7503  16.021   1.772   8.952 -0.0715 -0.1309 -0.0718
  469loPI   C4B 7504  15.878   1.777   8.580  0.1803 -0.2958 -0.1714
  470loPI    C1 7505   8.988   4.374  11.037  0.4883  0.0544  0.1489
  470loPI    C2 7506   8.912   3.982  11.067 -0.2803  0.1781  0.0305
  470loPI    C3 7507   8.898   4.215  11.393  0.0392  0.1355  0.0779
  470loPI   PO4 7508   8.869   4.443  10.852  0.1447 -0.0698  0.0929
  470loPI   GL1 7509   8.936   4.486  10.443 -0.0772 -0.0138 -0.0763
  470loPI   GL2 7510   8.899   4.777  10.481 -0.0198 -0.2417  0.0432
  470loPI   C1A 7511   8.957   4.557   9.966 -0.0828 -0.2625  0.0533
  470loPI   C2A 7512   9.007   4.668   9.509  0.1001  0.1075 -0.0386
  470loPI   C3A 7513   8.947   4.653   9.089 -0.0151  0.2984  0.0552
  470loPI   C4A 7514   8.919   4.628   8.621  0.1649  0.0197 -0.2999
  470loPI   C5A 7515   8.958   4.538   8.094  0.0216 -0.1479  0.0368
  470loPI   C6A 7516   9.031   4.326   7.701 -0.0674  0.0057 -0.3878
  470loPI   C1B 7517   8.796   5.032  10.101 -0.2249  0.0792 -0.0309
  470loPI   C2B 7518   8.913   5.168   9.656  0.2066  0.2060 -0.0386
  470loPI   C3B 7519   9.023   5.160   9.271  0.2276  0.1141 -0.0044
  470loPI   C4B 7520   8.994   5.104   8.776 -0.1435  0.0804 -0.2109
  471loPI    C1 7521   6.737  16.355  10.967  0.2056  0.0278  0.1057
  471loPI    C2 7522   6.424  16.586  11.060  0.0347 -0.1455 -0.0300
  471loPI    C3 7523   6.556  16.313  11.321  0.2029  0.0646  0.1087
  471loPI   PO4 7524   6.612  16.272  10.699 -0.0604 -0.1235  0.1418
  471loPI   GL1 7525   6.627  16.346  10.253 -0.0867 -0.2363  0.3199
  471loPI   GL2 7526   6.416  16.069  10.076 -0.1334 -0.1769  0.1732
  471loPI   C1A 7527   6.724  16.419   9.816 -0.0731  0.0928  0.2667
  471loPI   C2A 7528   6.675  16.430   9.434 -0.0519  0.0206  0.3347
  471loPI   C3A 7529   6.690  16.443   9.068 -0.1036  0.1027  0.3846
  471loPI   C4A 7530   6.769  16.438   8.614  0.2413  0.1539 -0.2263
  471loPI   C5A 7531   6.843  16.421   8.228 -0.1684 -0.3019  0.1226
  471loPI   C6A 7532   6.677  16.166   7.914  0.0569  0.0154 -0.0053
  471loPI   C1B 7533   6.592  15.872   9.689  0.0616  0.0213 -0.2356
  471loPI   C2B 7534   6.596  15.942   9.272 -0.1208  0.1071  0.2589
  471loPI   C3B 7535   6.701  15.937   8.824  0.1389 -0.2295  0.0669
  471loPI   C4B 7536   6.712  16.006   8.348  0.0951  0.1552 -0.0434
  472loPI    C1 7537   8.045  14.321  10.679 -0.2963 -0.1415 -0.1723
  472loPI    C2 7538   7.922  14.635  10.894  0.2238  0.1080 -0.2240
  472loPI    C3 7539   8.092  14.322  11.076  0.1458  0.0684 -0.2190
  472loPI   PO4 7540   7.927  14.444  10.449 -0.0254  0.0489  0.0833
  472loPI   GL1 7541   7.736  14.694  10.113  0.2725 -0.0993 -0.1708
  472loPI   GL2 7542   8.006  14.671  10.000  0.2526 -0.0948 -0.2119
  472loPI   C1A 7543   7.766  14.910   9.644  0.1559  0.1532 -0.0652
  472loPI   C2A 7544   7.887  14.954   9.169  0.0153  0.1031 -0.0302
  472loPI   C3A 7545   7.912  14.985   8.686 -0.1203  0.0338  0.1461
  472loPI   C4A 7546   7.863  14.911   8.257  0.0920  0.2335  0.0748
  472loPI   C5A 7547   7.940  14.851   7.761 -0.0914  0.0076  0.1290
  472loPI   C6A 7548   7.542  14.651   7.519 -0.0898  0.1982 -0.1940
  472loPI   C1B 7549   8.224  14.604   9.711 -0.0107 -0.1610  0.0185
  472loPI   C2B 7550   8.256  14.673   9.289  0.0264  0.0914  0.0547
  472loPI   C3B 7551   8.295  14.683   8.938 -0.2395 -0.0674 -0.3109
  472loPI   C4B 7552   8.231  14.563   8.415 -0.1608 -0.2680  0.1567
  473loPI    C1 7553   5.058   1.878  10.757 -0.0530 -0.2498 -0.0773
  473loPI    C2 7554   5.383   1.721  10.584  0.1353 -0.0827  0.1179
  473loPI    C3 7555   5.310   1.653  10.971  0.1031  0.1328  0.1506
  473loPI   PO4 7556   4.874   1.767  10.675  0.0601 -0.2352 -0.3345
  473loPI   GL1 7557   4.817   1.652  10.310  0.2989 -0.0775 -0.1797
  473loPI   GL2 7558   4.626   1.862  10.259 -0.0792 -0.1378  0.0597
  473loPI   C1A 7559   4.791   1.690   9.850 -0.1398 -0.0876 -0.2552
  473loPI   C2A 7560   4.786   1.858   9.519  0.0547 -0.0289 -0.1444
  473loPI   C3A 7561   4.814   1.889   9.087  0.0308  0.0423 -0.1410
  473loPI   C4A 7562   4.649   1.857   8.648  0.2075 -0.0055 -0.1612
  473loPI   C5A 7563   4.829   1.989   8.348  0.2658 -0.0898  0.3083
  473loPI   C6A 7564   4.666   2.245   7.956 -0.1312  0.2137 -0.0699
  473loPI   C1B 7565   4.417   2.067   9.877 -0.3560  0.0855  0.1993
  473loPI   C2B 7566   4.379   2.085   9.374 -0.1796 -0.0279  0.1655
  473loPI   C3B 7567   4.281   2.116   8.844  0.0770 -0.0338  0.0866
  473loPI   C4B 7568   4.409   2.266   8.401 -0.2405 -0.2282 -0.1267
  474loPI    C1 7569   3.387   5.972  10.862 -0.1353 -0.0258  0.1482
  474loPI    C2 7570   3.422   6.239  11.157 -0.2184 -0.0323  0.1642
  474loPI    C3 7571   3.345   5.855  11.242 -0.3307 -0.0176  0.1303
  474loPI   PO4 7572   3.204   6.012  10.668  0.2217  0.0736  0.0058
  474loPI   GL1 7573   3.158   6.216  10.377  0.2280  0.2849 -0.1524
  474loPI   GL2 7574   3.358   6.412  10.338  0.0565 -0.1795 -0.1321
  474loPI   C1A 7575   3.068   6.110  10.004  0.1522  0.0276 -0.1404
  474loPI   C2A 7576   3.107   5.998   9.608  0.2161  0.1682  0.0459
  474loPI   C3A 7577   3.133   6.083   9.222  0.0384  0.0110 -0.0174
  474loPI   C4A 7578   3.195   5.969   8.816 -0.0856  0.1453  0.0702
  474loPI   C5A 7579   3.070   5.958   8.478  0.0082  0.0770 -0.0663
  474loPI   C6A 7580   3.118   6.038   8.058 -0.3091 -0.0778 -0.0768
  474loPI   C1B 7581   3.474   6.361   9.949 -0.0579 -0.1074  0.0674
  474loPI   C2B 7582   3.478   6.362   9.464 -0.0499 -0.2102 -0.2005
  474loPI   C3B 7583   3.576   6.295   9.003 -0.1221 -0.4408  0.3278
  474loPI   C4B 7584   3.512   6.201   8.552 -0.5134  0.1328  0.0666
  475loPI    C1 7585  16.768   0.991  11.507  0.1006  0.0321  0.2688
  475loPI    C2 7586  16.998   0.778  11.757 -0.0521 -0.2050  0.2110
  475loPI    C3 7587  16.678   0.973  11.897 -0.0052 -0.1466  0.2374
  475loPI   PO4 7588  16.790   0.806  11.249  0.0921 -0.1316  0.0207
  475loPI   GL1 7589  16.864   1.014  10.838  0.1018 -0.1176 -0.1631
  475loPI   GL2 7590  16.734   0.720  10.765 -0.1241 -0.2526 -0.0657
  475loPI   C1A 7591  16.519   1.020  10.435 -0.2239 -0.0185  0.3338
  475loPI   C2A 7592  16.472   1.019  10.048 -0.0052  0.0337  0.4103
  475loPI   C3A 7593  16.442   1.024   9.670 -0.0373 -0.0542 -0.1969
  475loPI   C4A 7594  16.415   1.010   9.268  0.1224 -0.1337  0.3465
  475loPI   C5A 7595  16.378   0.944   8.781 -0.1269  0.0720 -0.1114
  475loPI   C6A 7596  16.558   0.757   8.427 -0.0429  0.0448  0.0295
  475loPI   C1B 7597  16.852   0.648  10.371 -0.0782  0.2057 -0.0073
  475loPI   C2B 7598  16.846   0.681   9.906 -0.0431  0.1899 -0.0762
  475loPI   C3B 7599  16.896   0.725   9.495  0.0254  0.1611  0.1320
  475loPI   C4B 7600  16.888   0.722   9.113  0.1619  0.0083 -0.3850
  476loPI    C1 7601  13.475   8.142  10.966  0.0634  0.0814 -0.0245
  476loPI    C2 7602  13.515   7.924  11.299  0.0673 -0.0829 -0.1310
  476loPI    C3 7603  13.522   8.324  11.319 -0.1255 -0.0882  0.0901
  476loPI   PO4 7604  13.680   7.993  10.739 -0.3586 -0.2198 -0.0736
  476loPI   GL1 7605  13.724   7.815  10.387  0.0724 -0.0014 -0.1374
  476loPI   GL2 7606  13.542   7.589  10.376  0.1103  0.0741  0.2909
  476loPI   C1A 7607  13.921   7.945  10.059  0.2703  0.1409 -0.1610
  476loPI   C2A 7608  13.902   7.855   9.566  0.0982 -0.1578  0.0652
  476loPI   C3A 7609  14.037   7.821   9.072 -0.0604  0.0884  0.3518
  476loPI   C4A 7610  14.014   7.828   8.682  0.3265  0.1734 -0.2285
  476loPI   C5A 7611  13.970   7.737   8.335  0.0682 -0.2535  0.0140
  476loPI   C6A 7612  13.854   7.660   7.996  0.1797  0.3204  0.5260
  476loPI   C1B 7613  13.542   7.586   9.968  0.0590 -0.1898  0.1131
  476loPI   C2B 7614  13.492   7.594   9.497  0.0283 -0.0723 -0.4054
  476loPI   C3B 7615  13.545   7.589   9.078 -0.1083  0.3082 -0.0900
  476loPI   C4B 7616  13.572   7.580   8.671 -0.2427 -0.2080  0.1861
  477loPI    C1 7617  10.151  14.411  10.781  0.1284 -0.0959 -0.0403
  477loPI    C2 7618   9.914  14.132  10.944  0.0591 -0.0764 -0.1067
  477loPI    C3 7619  10.230  14.270  11.147 -0.0667 -0.0012  0.0402
  477loPI   PO4 7620  10.189  14.376  10.583  0.0467 -0.0143 -0.2131
  477loPI   GL1 7621  10.383  14.268  10.211 -0.2331  0.0346 -0.1434
  477loPI   GL2 7622  10.223  13.927  10.023 -0.0261  0.1705 -0.2700
  477loPI   C1A 7623  10.548  14.467   9.876 -0.0273 -0.1141  0.0935
  477loPI   C2A 7624  10.445  14.533   9.495 -0.1147  0.1759 -0.0331
  477loPI   C3A 7625  10.587  14.507   9.075  0.1429  0.3080 -0.1140
  477loPI   C4A 7626  10.522  14.574   8.660  0.0160 -0.0187  0.3024
  477loPI   C5A 7627  10.308  14.652   8.310  0.0682  0.0681 -0.1431
  477loPI   C6A 7628  10.224  14.738   7.858 -0.3143 -0.0384 -0.0350
  477loPI   C1B 7629  10.335  13.965   9.571  0.0247 -0.0981  0.3303
  477loPI   C2B 7630  10.454  14.040   9.146 -0.0139  0.0024  0.0056
  477loPI   C3B 7631  10.375  14.047   8.675 -0.0834 -0.1139  0.1637
  477loPI   C4B 7632  10.364  14.171   8.153 -0.0150  0.1890 -0.2207
  478loPI    C1 7633   3.886  13.208  10.682 -0.1189 -0.0160 -0.0361
  478loPI    C2 7634   3.508  13.331  10.728 -0.1353 -0.0699 -0.0260
  478loPI    C3 7635   3.688  13.123  11.019 -0.2286 -0.3845 -0.1893
  478loPI   PO4 7636   3.941  13.245  10.362 -0.0760 -0.0114 -0.1351
  478loPI   GL1 7637   3.872  13.180   9.941  0.2964 -0.1986  0.1814
  478loPI   GL2 7638   4.140  13.199   9.901  0.2194  0.0631  0.0529
  478loPI   C1A 7639   3.879  13.395   9.523 -0.0746 -0.3472 -0.0271
  478loPI   C2A 7640   3.933  13.384   9.275  0.3882 -0.0858 -0.0031
  478loPI   C3A 7641   3.957  13.476   8.841  0.1469 -0.0471 -0.1019
  478loPI   C4A 7642   4.054  13.510   8.390  0.1727  0.0534 -0.0252
  478loPI   C5A 7643   4.066  13.795   8.027 -0.3364  0.1163 -0.3792
  478loPI   C6A 7644   3.935  13.910   7.563 -0.0555  0.0228 -0.0291
  478loPI   C1B 7645   4.338  13.068   9.532 -0.1370 -0.3553  0.0771
  478loPI   C2B 7646   4.334  13.137   9.135 -0.0109 -0.2501  0.1519
  478loPI   C3B 7647   4.425  13.160   8.811  0.2364 -0.2666 -0.0217
  478loPI   C4B 7648   4.396  13.113   8.327 -0.2196  0.3270  0.1096
  479loPI    C1 7649  17.245   0.697  11.259 -0.2960 -0.1825 -0.1512
  479loPI    C2 7650  17.388   0.524  11.590 -0.0807 -0.0521 -0.1740
  479loPI    C3 7651  17.030   0.417  11.447 -0.1519 -0.1471  0.0701
  479loPI   PO4 7652  17.348   0.668  11.015 -0.1332  0.0420 -0.1215
  479loPI   GL1 7653  17.271   0.611  10.631 -0.2744  0.0776 -0.0230
  479loPI   GL2 7654  17.234   0.854  10.581  0.0526  0.0950 -0.2405
  479loPI   C1A 7655  17.285   0.426  10.208 -0.3722 -0.1970  0.0420
  479loPI   C2A 7656  17.279   0.434   9.794  0.0027  0.1075  0.2299
  479loPI   C3A 7657  17.241   0.344   9.317 -0.3154  0.0707 -0.1855
  479loPI   C4A 7658  17.144   0.353   8.899 -0.0356 -0.0359 -0.3396
  479loPI   C5A 7659  17.002   0.495   8.549  0.2233  0.1681  0.1450
  479loPI   C6A 7660  17.152   0.920   8.354  0.1755 -0.2200  0.1665
  479loPI   C1B 7661  17.224   0.885  10.199  0.0693 -0.2223  0.1993
  479loPI   C2B 7662  17.333   0.964   9.679 -0.4610 -0.1452  0.0947
  479loPI   C3B 7663  17.317   0.895   9.265  0.0010 -0.4542 -0.0827
  479loPI   C4B 7664  17.341   0.845   8.873  0.0743  0.1829 -0.1804
  480loPI    C1 7665   7.989   1.449  10.287  0.0568 -0.3183 -0.1339
  480loPI    C2 7666   7.861   1.396  10.662 -0.2176 -0.0930 -0.1921
  480loPI    C3 7667   8.251   1.370  10.578 -0.1518 -0.1238  0.1118
  480loPI   PO4 7668   7.820   1.298  10.156  0.0475  0.1098  0.0177
  480loPI   GL1 7669   7.481   1.397   9.866 -0.1822  0.0002  0.1148
  480loPI   GL2 7670   7.572   1.059   9.789  0.0379 -0.0817  0.0736
  480loPI   C1A 7671   7.176   1.472   9.514  0.1830  0.1268  0.1186
  480loPI   C2A 7672   7.048   1.501   9.061 -0.2045  0.1341  0.2002
  480loPI   C3A 7673   6.963   1.507   8.586 -0.3295 -0.1876  0.0181
  480loPI   C4A 7674   6.960   1.749   8.243 -0.1599  0.1992  0.0752
  480loPI   C5A 7675   7.138   1.878   7.803  0.2392 -0.0259  0.0521
  480loPI   C6A 7676   7.253   1.505   7.512  0.0532 -0.1678 -0.5119
  480loPI   C1B 7677   7.527   1.079   9.372 -0.0642 -0.0375  0.0997
  480loPI   C2B 7678   7.500   1.157   8.934 -0.1947 -0.2744  0.2121
  480loPI   C3B 7679   7.426   1.196   8.464  0.1112  0.1419 -0.2302
  480loPI   C4B 7680   7.317   0.942   8.083  0.0689  0.2248 -0.0938
  481loPI    C1 7681  17.426   5.280  11.160 -0.1116 -0.0255  0.1060
  481loPI    C2 7682  17.666   5.519  11.373 -0.0011  0.0120 -0.0584
  481loPI    C3 7683  17.312   5.406  11.522  0.1499 -0.1055  0.2181
  481loPI   PO4 7684  17.551   5.344  10.910  0.0814  0.0733  0.0961
  481loPI   GL1 7685  17.481   5.562  10.484 -0.0457 -0.1117  0.0959
  481loPI   GL2 7686  17.389   5.201  10.464  0.2264  0.4035 -0.1680
  481loPI   C1A 7687  17.494   5.651  10.083  0.1398 -0.1733  0.1913
  481loPI   C2A 7688  17.421   5.640   9.707  0.0140 -0.0382  0.0656
  481loPI   C3A 7689  17.524   5.559   9.301  0.3233 -0.0014  0.0925
  481loPI   C4A 7690  17.538   5.610   8.815  0.0644 -0.2052 -0.0068
  481loPI   C5A 7691  17.646   5.631   8.447  0.2164 -0.2035 -0.0049
  481loPI   C6A 7692  17.904   5.962   8.259 -0.2251 -0.0209  0.2609
  481loPI   C1B 7693  17.429   5.127  10.023 -0.1192  0.0679  0.1869
  481loPI   C2B 7694  17.488   5.136   9.619  0.1048  0.1514  0.0887
  481loPI   C3B 7695  17.441   5.098   9.119 -0.0306  0.0200 -0.0924
  481loPI   C4B 7696  17.454   5.141   8.652  0.3122  0.1461  0.3170
  482loPI    C1 7697  17.378  17.239  11.164  0.0562 -0.1185 -0.0649
  482loPI    C2 7698  17.217  17.549  11.358  0.2093 -0.0059 -0.1158
  482loPI    C3 7699  17.101  17.177  11.445  0.1658  0.0530  0.0830
  482loPI   PO4 7700  17.310  17.230  10.938  0.0880 -0.1064 -0.0712
  482loPI   GL1 7701  17.177  17.388  10.539  0.0651  0.2503 -0.1654
  482loPI   GL2 7702  17.056  17.605  10.629 -0.1164 -0.1078 -0.1516
  482loPI   C1A 7703  17.167  17.325  10.131 -0.0054  0.2117 -0.0905
  482loPI   C2A 7704  17.107  17.362   9.632  0.1869 -0.2117  0.0454
  482loPI   C3A 7705  17.109  17.354   9.200  0.3419  0.3180 -0.0077
  482loPI   C4A 7706  17.052  17.234   8.774 -0.2689  0.0325 -0.1260
  482loPI   C5A 7707  17.021  17.177   8.414  0.0296 -0.0518  0.0008
  482loPI   C6A 7708  17.011  17.037   7.956  0.1437  0.1499  0.0894
  482loPI   C1B 7709  16.760  17.638  10.237  0.0569  0.0375 -0.1073
  482loPI   C2B 7710  16.694  17.690   9.726  0.0747 -0.0858  0.2527
  482loPI   C3B 7711  16.691  17.591   9.372 -0.1152 -0.3771 -0.0136
  482loPI   C4B 7712  16.709  17.636   8.983 -0.1817 -0.0807 -0.3127
  483loPI    C1 7713   7.836  15.174  10.781 -0.0242 -0.1392 -0.2645
  483loPI    C2 7714   7.755  15.417  11.088 -0.0115 -0.0254 -0.3508
  483loPI    C3 7715   7.682  15.025  11.118 -0.0758 -0.0041 -0.2280
  483loPI   PO4 7716   7.807  15.228  10.540  0.2776 -0.2067  0.2066
  483loPI   GL1 7717   7.814  15.162  10.146  0.0888  0.0566  0.3588
  483loPI   GL2 7718   7.447  15.227  10.100 -0.0553 -0.3427 -0.1112
  483loPI   C1A 7719   8.200  15.104   9.891  0.2910 -0.2838 -0.2765
  483loPI   C2A 7720   8.348  15.144   9.447  0.0457 -0.0946  0.0042
  483loPI   C3A 7721   8.375  15.143   9.106  0.1157  0.1953 -0.0531
  483loPI   C4A 7722   8.394  15.098   8.727  0.2020 -0.0707 -0.0565
  483loPI   C5A 7723   8.315  15.100   8.306 -0.0478  0.0957  0.1259
  483loPI   C6A 7724   8.455  15.019   7.885  0.2113 -0.0421  0.2960
  483loPI   C1B 7725   7.319  15.237   9.658 -0.2262  0.0727  0.0667
  483loPI   C2B 7726   7.438  15.292   9.274 -0.1523  0.1115  0.0555
  483loPI   C3B 7727   7.512  15.230   8.974  0.1109  0.0106 -0.0561
  483loPI   C4B 7728   7.480  15.112   8.550  0.2789  0.0606  0.0041
  484loPI    C1 7729  13.718   0.153  11.339  0.0583 -0.0845 -0.0390
  484loPI    C2 7730  13.978   0.434  11.455  0.0590 -0.0933 -0.0194
  484loPI    C3 7731  13.627   0.395  11.644 -0.0058 -0.0055 -0.1200
  484loPI   PO4 7732  13.807   0.127  11.023 -0.1227 -0.1992  0.0914
  484loPI   GL1 7733  13.668   0.331  10.633 -0.2341  0.4813 -0.0188
  484loPI   GL2 7734  13.560   0.562  10.599 -0.0014  0.2675 -0.3227
  484loPI   C1A 7735  14.092   0.163  10.435 -0.1918  0.0567 -0.6222
  484loPI   C2A 7736  14.081   0.072  10.047 -0.1820 -0.0269  0.0057
  484loPI   C3A 7737  14.045   0.078   9.576  0.1675 -0.0242 -0.0480
  484loPI   C4A 7738  14.100   0.132   9.217 -0.1326  0.0274 -0.1025
  484loPI   C5A 7739  14.102   0.279   8.746 -0.0025 -0.1318 -0.1325
  484loPI   C6A 7740  13.899   0.553   8.487  0.1643  0.0014  0.0297
  484loPI   C1B 7741  13.602   0.456  10.158  0.0353  0.0549 -0.4574
  484loPI   C2B 7742  13.745   0.427   9.815 -0.0337  0.0021  0.3388
  484loPI   C3B 7743  13.730   0.460   9.410  0.0151 -0.0371  0.1540
  484loPI   C4B 7744  13.662   0.496   9.010 -0.1203 -0.1529 -0.0744
  485loPI    C1 7745   4.103   2.152  10.905  0.3017 -0.0924  0.1818
  485loPI    C2 7746   3.875   2.229  11.225  0.1868  0.1555  0.0428
  485loPI    C3 7747   4.268   2.300  11.238  0.1801  0.1778  0.1243
  485loPI   PO4 7748   4.022   2.327  10.728 -0.3179 -0.2224  0.0419
  485loPI   GL1 7749   3.913   2.150  10.341 -0.1958  0.1205  0.3269
  485loPI   GL2 7750   4.075   1.853  10.322 -0.1218  0.1275  0.1282
  485loPI   C1A 7751   3.972   2.321   9.932  0.3163 -0.0016 -0.0360
  485loPI   C2A 7752   3.973   2.425   9.553 -0.3216  0.0512  0.1575
  485loPI   C3A 7753   3.848   2.424   9.084 -0.1770  0.1877  0.0164
  485loPI   C4A 7754   3.869   2.466   8.663 -0.0358  0.2368  0.1042
  485loPI   C5A 7755   3.936   2.168   8.286  0.0153  0.3291  0.0568
  485loPI   C6A 7756   3.738   1.811   8.058 -0.0550  0.2201  0.0848
  485loPI   C1B 7757   3.835   1.803   9.964 -0.1228  0.0017  0.0533
  485loPI   C2B 7758   3.872   1.952   9.612 -0.1896 -0.0153 -0.0421
  485loPI   C3B 7759   3.904   1.931   9.155 -0.1894  0.0166 -0.1291
  485loPI   C4B 7760   3.783   1.891   8.710  0.1319 -0.4036  0.1423
  486loPI    C1 7761   4.278   6.705  10.876  0.0447 -0.0693 -0.0141
  486loPI    C2 7762   4.093   6.382  11.022  0.0460 -0.1118 -0.1059
  486loPI    C3 7763   4.152   6.701  11.255  0.1124 -0.2060  0.0075
  486loPI   PO4 7764   4.170   6.692  10.629  0.0650  0.0730 -0.0655
  486loPI   GL1 7765   4.220   6.528  10.295  0.1010 -0.1644  0.2285
  486loPI   GL2 7766   3.856   6.588  10.240 -0.1654  0.0300 -0.0643
  486loPI   C1A 7767   4.490   6.761  10.015 -0.0246 -0.3143 -0.0127
  486loPI   C2A 7768   4.530   6.881   9.561  0.2458  0.4018  0.0843
  486loPI   C3A 7769   4.480   6.859   9.116  0.2005 -0.0182  0.2024
  486loPI   C4A 7770   4.541   6.754   8.651  0.4008  0.0104 -0.0577
  486loPI   C5A 7771   4.374   6.675   8.196 -0.0935 -0.1410  0.3953
  486loPI   C6A 7772   3.916   6.597   8.058  0.1165  0.2698  0.0332
  486loPI   C1B 7773   4.082   6.603   9.802  0.0825 -0.0912  0.0621
  486loPI   C2B 7774   4.057   6.628   9.435 -0.2515  0.3303  0.0865
  486loPI   C3B 7775   4.057   6.561   8.953 -0.1385 -0.0209  0.1061
  486loPI   C4B 7776   4.031   6.448   8.521  0.0642  0.1290 -0.0144
  487loPI    C1 7777  13.518   8.799  10.934 -0.1638  0.1130  0.0452
  487loPI    C2 7778  13.599   9.146  11.117 -0.0521  0.1254 -0.0267
  487loPI    C3 7779  13.427   8.847  11.321 -0.0199  0.1738  0.0719
  487loPI   PO4 7780  13.496   8.837  10.656 -0.0897  0.1310 -0.1010
  487loPI   GL1 7781  13.526   8.458  10.456 -0.0906 -0.0090 -0.0435
  487loPI   GL2 7782  13.771   8.283  10.392  0.0135 -0.2118  0.2174
  487loPI   C1A 7783  13.556   8.692  10.087  0.0555 -0.1263 -0.1225
  487loPI   C2A 7784  13.454   8.644   9.683  0.1811 -0.1879  0.0463
  487loPI   C3A 7785  13.486   8.624   9.256  0.1863  0.1147 -0.0786
  487loPI   C4A 7786  13.615   8.657   8.840  0.0334  0.0063  0.1657
  487loPI   C5A 7787  13.696   8.704   8.411 -0.1814  0.0823  0.1025
  487loPI   C6A 7788  14.114   8.658   8.132 -0.0165  0.0927  0.2483
  487loPI   C1B 7789  13.484   8.181  10.032  0.1080  0.1021  0.2125
  487loPI   C2B 7790  13.422   8.120   9.601 -0.2227 -0.1731  0.0291
  487loPI   C3B 7791  13.574   8.134   9.196 -0.0890 -0.0621  0.0039
  487loPI   C4B 7792  13.510   8.064   8.783  0.0750 -0.0210 -0.2005
  488loPI    C1 7793   0.596   4.860  10.987 -0.0439  0.0262 -0.0600
  488loPI    C2 7794   0.384   4.933  11.318 -0.1843 -0.0913 -0.1235
  488loPI    C3 7795   0.594   4.594  11.285  0.0385  0.0374 -0.0490
  488loPI   PO4 7796   0.489   4.980  10.815 -0.2767  0.3725  0.0040
  488loPI   GL1 7797   0.257   5.087  10.435  0.2751 -0.2246  0.0697
  488loPI   GL2 7798  -0.132   5.017  10.387  0.2633  0.2157  0.0204
  488loPI   C1A 7799   0.301   5.127   9.976  0.4010 -0.1684  0.1626
  488loPI   C2A 7800   0.415   5.055   9.563  0.0454 -0.1496 -0.0119
  488loPI   C3A 7801   0.345   5.012   9.076 -0.1138  0.0246  0.1546
  488loPI   C4A 7802   0.358   4.857   8.632  0.1137  0.5031  0.1192
  488loPI   C5A 7803   0.202   4.898   8.172 -0.3484 -0.0938 -0.0557
  488loPI   C6A 7804  -0.166   4.957   7.923 -0.2935 -0.5568  0.1661
  488loPI   C1B 7805  -0.148   4.872   9.900  0.0436 -0.0986 -0.2741
  488loPI   C2B 7806  -0.053   4.812   9.506 -0.1343  0.0678 -0.2717
  488loPI   C3B 7807  -0.119   4.773   9.022  0.1066  0.4645  0.0154
  488loPI   C4B 7808  -0.197   4.763   8.563  0.0496 -0.1723 -0.1373
  489loPI    C1 7809  12.056   3.533  11.437 -0.1297 -0.0272  0.1237
  489loPI    C2 7810  12.337   3.417  11.696 -0.1915 -0.2526  0.0923
  489loPI    C3 7811  12.022   3.628  11.824 -0.0164 -0.0098  0.1297
  489loPI   PO4 7812  12.189   3.625  11.212  0.1245  0.0231 -0.2515
  489loPI   GL1 7813  12.156   3.553  10.785 -0.2558 -0.1721  0.0337
  489loPI   GL2 7814  11.911   3.538  10.658 -0.2166  0.2505  0.3577
  489loPI   C1A 7815  12.417   3.423  10.381  0.0213  0.0930 -0.0996
  489loPI   C2A 7816  12.499   3.424  10.014 -0.0481 -0.0355 -0.2621
  489loPI   C3A 7817  12.465   3.388   9.568 -0.1388 -0.1751 -0.2794
  489loPI   C4A 7818  12.527   3.464   9.174  0.1308 -0.1022  0.2361
  489loPI   C5A 7819  12.532   3.589   8.725 -0.0207  0.0837 -0.0304
  489loPI   C6A 7820  12.289   3.971   8.451 -0.1478  0.1606 -0.0503
  489loPI   C1B 7821  11.902   3.655  10.260  0.3238 -0.0011 -0.0837
  489loPI   C2B 7822  12.036   3.677   9.824 -0.1577  0.1828  0.0027
  489loPI   C3B 7823  12.073   3.752   9.445  0.0510  0.1667  0.0017
  489loPI   C4B 7824  12.072   3.796   9.007  0.1355  0.0488 -0.0173
  490loPI    C1 7825   3.205  15.257  10.656 -0.1510 -0.0485 -0.1438
  490loPI    C2 7826   3.121  15.544  10.922 -0.0899 -0.2423  0.0875
  490loPI    C3 7827   2.987  15.574  10.547 -0.1911  0.0256  0.1432
  490loPI   PO4 7828   3.257  15.000  10.825  0.0600 -0.1885 -0.0095
  490loPI   GL1 7829   3.361  14.701  10.473  0.1734  0.2585  0.1586
  490loPI   GL2 7830   3.358  14.464  10.411 -0.0578 -0.2568  0.0290
  490loPI   C1A 7831   3.227  14.974  10.163 -0.0362 -0.3949  0.1833
  490loPI   C2A 7832   3.234  15.053   9.841  0.1614 -0.1626 -0.0489
  490loPI   C3A 7833   3.312  15.094   9.411  0.1478  0.0356  0.2049
  490loPI   C4A 7834   3.314  15.174   9.051 -0.3066  0.0032 -0.1141
  490loPI   C5A 7835   3.274  15.290   8.573 -0.2038  0.0032 -0.3256
  490loPI   C6A 7836   2.976  15.294   8.192 -0.1347 -0.2964  0.2252
  490loPI   C1B 7837   3.256  14.447  10.001  0.1044  0.1266 -0.1210
  490loPI   C2B 7838   3.185  14.613   9.608  0.0295 -0.0272 -0.0268
  490loPI   C3B 7839   3.163  14.552   9.255  0.3649  0.2550  0.0229
  490loPI   C4B 7840   3.200  14.639   8.841  0.2029 -0.1278  0.3789
  491loPI    C1 7841   3.704  16.038  11.233 -0.0058 -0.1970  0.1167
  491loPI    C2 7842   3.958  15.748  11.342 -0.0975 -0.3747 -0.1321
  491loPI    C3 7843   3.569  15.716  11.430 -0.0715 -0.2098  0.0509
  491loPI   PO4 7844   3.868  16.040  10.925  0.2653  0.0024  0.1617
  491loPI   GL1 7845   3.840  16.177  10.606  0.0888 -0.0265  0.0920
  491loPI   GL2 7846   3.922  15.926  10.397 -0.0071  0.0901  0.2881
  491loPI   C1A 7847   3.927  16.343  10.106 -0.1911  0.1811  0.0732
  491loPI   C2A 7848   3.884  16.374   9.617 -0.5434  0.1743 -0.1089
  491loPI   C3A 7849   4.002  16.413   9.159  0.4348  0.0011  0.0743
  491loPI   C4A 7850   4.011  16.385   8.733  0.0924 -0.1832 -0.0191
  491loPI   C5A 7851   4.000  16.612   8.374 -0.1791 -0.0581  0.0142
  491loPI   C6A 7852   3.739  16.862   8.153 -0.1230  0.1337  0.0355
  491loPI   C1B 7853   3.767  15.881   9.882 -0.0547  0.1920 -0.1241
  491loPI   C2B 7854   3.779  15.808   9.436  0.0509  0.1678  0.1033
  491loPI   C3B 7855   3.855  15.902   9.008  0.0449  0.0365  0.0791
  491loPI   C4B 7856   3.789  15.923   8.540 -0.0136 -0.2008 -0.0449
  492loPI    C1 7857   4.239   9.047  11.033 -0.0944  0.1474 -0.1231
  492loPI    C2 7858   3.910   8.992  11.252 -0.0073 -0.3199 -0.1003
  492loPI    C3 7859   4.270   8.968  11.424  0.0447  0.1624 -0.1306
  492loPI   PO4 7860   4.280   8.909  10.825  0.0576 -0.3078 -0.0527
  492loPI   GL1 7861   4.395   8.970  10.358 -0.0872  0.2186  0.1425
  492loPI   GL2 7862   4.160   9.189  10.096  0.1271 -0.1037  0.0368
  492loPI   C1A 7863   4.589   8.947   9.983 -0.2689 -0.2789 -0.0125
  492loPI   C2A 7864   4.585   8.889   9.527  0.0901 -0.0768 -0.1871
  492loPI   C3A 7865   4.645   8.829   9.161  0.1862  0.3219  0.0892
  492loPI   C4A 7866   4.706   8.818   8.748  0.3453  0.3237  0.1569
  492loPI   C5A 7867   4.560   8.701   8.355  0.2684 -0.1737  0.1267
  492loPI   C6A 7868   4.567   8.752   7.862 -0.1530 -0.0577  0.0622
  492loPI   C1B 7869   4.189   9.147   9.693 -0.3360  0.0898 -0.1559
  492loPI   C2B 7870   4.228   9.135   9.217  0.2689  0.0376  0.2142
  492loPI   C3B 7871   4.150   9.127   8.800  0.1686 -0.0139  0.3555
  492loPI   C4B 7872   4.234   9.226   8.297  0.0816 -0.3473 -0.2375
  493loPI    C1 7873   1.649  12.992  10.103  0.2593  0.0022 -0.0128
  493loPI    C2 7874   1.330  12.913  10.330  0.2760  0.0508  0.0278
  493loPI    C3 7875   1.694  12.805  10.454  0.2788  0.0231 -0.0042
  493loPI   PO4 7876   1.627  13.198   9.969  0.1293 -0.2428 -0.1049
  493loPI   GL1 7877   1.798  13.383   9.621 -0.0456  0.1340 -0.1128
  493loPI   GL2 7878   2.035  13.168   9.405 -0.0283 -0.0951  0.0882
  493loPI   C1A 7879   1.706  13.604   9.297  0.4061 -0.1546  0.1631
  493loPI   C2A 7880   1.608  13.687   8.884  0.3208  0.3188 -0.1014
  493loPI   C3A 7881   1.607  13.713   8.486  0.0401 -0.2308 -0.0137
  493loPI   C4A 7882   1.705  13.739   8.109 -0.1657  0.0093  0.2290
  493loPI   C5A 7883   1.470  13.675   7.746  0.0456  0.1377  0.1881
  493loPI   C6A 7884   1.162  13.491   7.408 -0.1108  0.5410  0.0504
  493loPI   C1B 7885   2.005  13.287   8.975  0.0482  0.0089  0.1149
  493loPI   C2B 7886   2.066  13.321   8.562  0.0362  0.1868  0.1622
  493loPI   C3B 7887   2.073  13.393   8.186 -0.0143  0.2081  0.0616
  493loPI   C4B 7888   2.060  13.528   7.759  0.0028 -0.0761 -0.1640
  494loPI    C1 7889   8.763   2.632  10.687  0.1740  0.2050 -0.2249
  494loPI    C2 7890   8.742   2.513  11.069 -0.1524 -0.0020 -0.3032
  494loPI    C3 7891   9.039   2.753  10.950 -0.1369  0.1946  0.1147
  494loPI   PO4 7892   8.474   2.738  10.572  0.1183 -0.3811 -0.0980
  494loPI   GL1 7893   8.329   3.079  10.284  0.0925 -0.1630 -0.4245
  494loPI   GL2 7894   8.490   2.964  10.146 -0.2469  0.0988 -0.3462
  494loPI   C1A 7895   8.439   3.383   9.892  0.1801  0.0726 -0.3482
  494loPI   C2A 7896   8.536   3.340   9.470 -0.3510  0.1006  0.0626
  494loPI   C3A 7897   8.532   3.368   9.102 -0.0122 -0.0432 -0.0585
  494loPI   C4A 7898   8.341   3.361   8.692  0.2791  0.2597 -0.1695
  494loPI   C5A 7899   8.469   3.306   8.266  0.0552  0.0973 -0.0006
  494loPI   C6A 7900   8.414   3.145   7.849  0.1573 -0.1296  0.1434
  494loPI   C1B 7901   8.508   2.905   9.701 -0.0121 -0.0633  0.1928
  494loPI   C2B 7902   8.490   2.859   9.188 -0.2196  0.0699 -0.3433
  494loPI   C3B 7903   8.433   2.794   8.719  0.3024  0.0174  0.0013
  494loPI   C4B 7904   8.646   2.841   8.338  0.1754  0.1728 -0.1962
  495loPI    C1 7905   9.720  16.390  10.874 -0.0651  0.0217 -0.1774
  495loPI    C2 7906  10.061  16.244  10.724 -0.0630  0.0209 -0.1719
  495loPI    C3 7907  10.070  16.485  11.043 -0.0805 -0.1168 -0.0666
  495loPI   PO4 7908   9.562  16.220  10.834  0.1186 -0.0895  0.1451
  495loPI   GL1 7909   9.484  16.043  10.443  0.0872  0.1013  0.0793
  495loPI   GL2 7910   9.829  16.102  10.333  0.1370 -0.1457  0.0133
  495loPI   C1A 7911   9.352  15.947  10.018  0.1213  0.0199 -0.3494
  495loPI   C2A 7912   9.357  15.934   9.609  0.3184  0.0709 -0.0852
  495loPI   C3A 7913   9.457  16.059   9.219 -0.0195 -0.0114 -0.0169
  495loPI   C4A 7914   9.622  16.094   8.836  0.1402  0.0654  0.1360
  495loPI   C5A 7915   9.516  16.028   8.390  0.0593  0.0230 -0.0807
  495loPI   C6A 7916   9.073  15.867   8.184  0.0699 -0.0431  0.1402
  495loPI   C1B 7917   9.949  16.068   9.923 -0.0666 -0.3002 -0.0065
  495loPI   C2B 7918   9.827  16.185   9.546 -0.0203 -0.0182  0.1378
  495loPI   C3B 7919   9.984  16.167   9.130  0.0186  0.1393 -0.2675
  495loPI   C4B 7920  10.102  16.288   8.638 -0.2257  0.2808 -0.0779
  496loPI    C1 7921   5.079   4.358  11.410  0.0075  0.2054 -0.1174
  496loPI    C2 7922   4.708   4.268  11.531  0.0606  0.0117 -0.0949
  496loPI    C3 7923   4.973   4.415  11.792  0.0714 -0.0778 -0.0552
  496loPI   PO4 7924   5.090   4.259  11.183 -0.0315 -0.1428  0.4097
  496loPI   GL1 7925   5.003   3.975  10.779  0.2794  0.1691  0.1242
  496loPI   GL2 7926   4.849   4.257  10.752 -0.0483 -0.1532  0.2176
  496loPI   C1A 7927   4.873   3.766  10.441 -0.0614 -0.1540 -0.0303
  496loPI   C2A 7928   4.835   3.861  10.012 -0.3988 -0.1903  0.4520
  496loPI   C3A 7929   4.879   3.940   9.606  0.0395 -0.0068 -0.0808
  496loPI   C4A 7930   4.967   4.028   9.168  0.1009 -0.0343 -0.0145
  496loPI   C5A 7931   4.894   3.830   8.862  0.0155  0.2807 -0.2211
  496loPI   C6A 7932   4.874   3.642   8.459 -0.1611  0.0223  0.0213
  496loPI   C1B 7933   4.899   4.304  10.336  0.2702 -0.1629  0.1939
  496loPI   C2B 7934   4.829   4.333   9.902  0.0045  0.1511 -0.0302
  496loPI   C3B 7935   4.866   4.446   9.488 -0.3541  0.1955  0.0862
  496loPI   C4B 7936   4.816   4.551   9.147 -0.0296  0.1551  0.2127
  497loPI    C1 7937   8.663  13.195  10.537 -0.0531  0.1087  0.1074
  497loPI    C2 7938   8.751  13.566  10.419  0.3047 -0.0701 -0.2095
  497loPI    C3 7939   8.723  13.482  10.809  0.3717  0.2551 -0.1311
  497loPI   PO4 7940   8.683  13.057  10.337  0.3097 -0.0719  0.3743
  497loPI   GL1 7941   8.399  13.204   9.931 -0.3812 -0.1634 -0.2443
  497loPI   GL2 7942   8.101  13.146  10.028  0.0844 -0.0232  0.1551
  497loPI   C1A 7943   8.423  13.315   9.545 -0.1465  0.0110  0.0971
  497loPI   C2A 7944   8.454  13.404   9.106 -0.0278 -0.0685 -0.1170
  497loPI   C3A 7945   8.499  13.395   8.649  0.0988  0.0926 -0.0759
  497loPI   C4A 7946   8.584  13.417   8.242 -0.1828  0.0041 -0.0482
  497loPI   C5A 7947   8.902  13.215   8.035 -0.0224  0.0565 -0.0716
  497loPI   C6A 7948   9.197  13.416   7.817 -0.0905  0.3444 -0.0255
  497loPI   C1B 7949   7.983  13.070   9.593 -0.2751  0.1356 -0.2617
  497loPI   C2B 7950   7.970  13.078   9.194  0.3447  0.0701  0.0556
  497loPI   C3B 7951   7.981  13.176   8.749 -0.0156  0.0829  0.4327
  497loPI   C4B 7952   7.965  13.237   8.254 -0.0748  0.2989 -0.0448
  498loPI    C1 7953  17.915  17.954  11.356  0.0556  0.1604  0.0177
  498loPI    C2 7954  17.641  17.725  11.535  0.2880 -0.0195  0.1492
  498loPI    C3 7955  17.734  18.083  11.688 -0.1074  0.1894 -0.0811
  498loPI   PO4 7956  17.936  17.925  11.098 -0.2667 -0.0510 -0.1393
  498loPI   GL1 7957  17.964  17.902  10.702 -0.1149  0.0974  0.0727
  498loPI   GL2 7958  17.754  17.698  10.556 -0.1880  0.2687 -0.0450
  498loPI   C1A 7959  18.141  17.883  10.326  0.1055 -0.0392 -0.0539
  498loPI   C2A 7960  18.126  17.799   9.943 -0.0324  0.1804  0.1719
  498loPI   C3A 7961  18.062  17.751   9.540  0.1958  0.3340  0.0809
  498loPI   C4A 7962  18.009  17.743   9.098 -0.1078 -0.1679  0.1892
  498loPI   C5A 7963  17.973  17.657   8.665 -0.1027  0.1845 -0.0874
  498loPI   C6A 7964  18.068  17.155   8.496 -0.0025 -0.0886  0.2176
  498loPI   C1B 7965  17.604  17.615  10.331 -0.3316  0.0713 -0.2007
  498loPI   C2B 7966  17.633  17.641   9.845 -0.1630 -0.0640  0.1309
  498loPI   C3B 7967  17.560  17.631   9.403 -0.0911  0.3310 -0.1121
  498loPI   C4B 7968  17.572  17.470   9.038  0.3985  0.4902 -0.3586
  499loPI    C1 7969  11.839   2.808  11.385  0.1143 -0.0272 -0.1545
  499loPI    C2 7970  12.126   2.529  11.390  0.2589  0.1199 -0.1625
  499loPI    C3 7971  11.958   2.651  11.733  0.0839 -0.0886 -0.1716
  499loPI   PO4 7972  11.668   2.799  11.157 -0.0275 -0.1841 -0.0072
  499loPI   GL1 7973  11.744   2.726  10.684 -0.3280  0.1740 -0.0330
  499loPI   GL2 7974  11.750   3.064  10.641 -0.0984  0.2109 -0.2222
  499loPI   C1A 7975  11.599   2.754  10.271  0.2692 -0.0980  0.2979
  499loPI   C2A 7976  11.592   2.926   9.852 -0.2005  0.0721 -0.0410
  499loPI   C3A 7977  11.644   2.951   9.331  0.1722  0.0839  0.0523
  499loPI   C4A 7978  11.564   2.954   8.954  0.1972 -0.1263  0.0735
  499loPI   C5A 7979  11.625   2.932   8.427  0.2361  0.0086  0.0351
  499loPI   C6A 7980  11.636   2.856   8.122 -0.1961 -0.2778  0.1266
  499loPI   C1B 7981  11.954   3.063  10.261 -0.3830 -0.1086  0.0060
  499loPI   C2B 7982  12.067   3.151   9.894 -0.0133 -0.1202  0.1811
  499loPI   C3B 7983  12.070   3.170   9.486 -0.3204 -0.0266  0.1411
  499loPI   C4B 7984  12.093   3.276   9.092 -0.2430  0.1779  0.3067
  500loPI    C1 7985  12.170  10.672  10.862  0.0492 -0.1049 -0.0123
  500loPI    C2 7986  12.079  10.479  11.200  0.1100 -0.1463 -0.0194
  500loPI    C3 7987  12.381  10.351  10.971  0.0378 -0.1477 -0.1149
  500loPI   PO4 7988  12.013  10.736  10.650  0.0586  0.4076 -0.3840
  500loPI   GL1 7989  12.038  10.832  10.267 -0.2425  0.1090 -0.0863
  500loPI   GL2 7990  12.358  10.733  10.338  0.0857  0.2207 -0.0021
  500loPI   C1A 7991  12.045  10.863   9.748 -0.0268  0.0847  0.0638
  500loPI   C2A 7992  12.040  10.860   9.293  0.1398  0.0197  0.0038
  500loPI   C3A 7993  11.742  10.675   9.020  0.0573  0.0834  0.0469
  500loPI   C4A 7994  11.761  10.591   8.527  0.2982  0.0100 -0.0517
  500loPI   C5A 7995  11.923  10.689   8.146  0.0356  0.0003 -0.0287
  500loPI   C6A 7996  11.903  10.511   7.692  0.1001  0.0573  0.1436
  500loPI   C1B 7997  12.257  10.454   9.978  0.0757 -0.3323 -0.1100
  500loPI   C2B 7998  12.166  10.388   9.578  0.0529  0.1488 -0.1114
  500loPI   C3B 7999  12.292  10.469   9.086 -0.0401  0.0276 -0.2564
  500loPI   C4B 8000  12.268  10.531   8.666  0.0744  0.0322  0.2361
  501loPI    C1 8001   7.398   3.197  10.968  0.0171  0.2498 -0.1787
  501loPI    C2 8002   7.633   3.411  11.211 -0.0189  0.0113  0.0710
  501loPI    C3 8003   7.235   3.436  11.244 -0.0239 -0.0213  0.0363
  501loPI   PO4 8004   7.665   3.167  10.747  0.1785  0.2148 -0.0597
  501loPI   GL1 8005   7.752   3.145  10.336 -0.1496 -0.4368 -0.0268
  501loPI   GL2 8006   7.817   3.481  10.230  0.0944 -0.1541 -0.1437
  501loPI   C1A 8007   8.002   3.150   9.950 -0.0114 -0.0025 -0.1075
  501loPI   C2A 8008   8.054   3.178   9.555 -0.0347  0.0851 -0.0922
  501loPI   C3A 8009   8.078   3.201   9.214 -0.0581 -0.2556  0.0449
  501loPI   C4A 8010   7.955   3.139   8.762  0.1277  0.0981  0.0646
  501loPI   C5A 8011   7.973   3.103   8.357 -0.1545  0.1499  0.0962
  501loPI   C6A 8012   7.713   3.188   8.011  0.1664  0.0123  0.2830
  501loPI   C1B 8013   7.509   3.341   9.849  0.3205 -0.2124 -0.1507
  501loPI   C2B 8014   7.561   3.384   9.449 -0.1502 -0.2633  0.2148
  501loPI   C3B 8015   7.587   3.306   9.097 -0.3880  0.2407 -0.1681
  501loPI   C4B 8016   7.553   3.425   8.605 -0.1542  0.2293  0.0054
  502loPI    C1 8017   0.068  15.601  11.018 -0.1156  0.0527  0.2467
  502loPI    C2 8018   0.453  15.646  11.115 -0.1574  0.1884  0.3521
  502loPI    C3 8019   0.237  15.355  11.284 -0.0283 -0.0711  0.0785
  502loPI   PO4 8020   0.050  15.741  10.787  0.1690 -0.0041  0.0952
  502loPI   GL1 8021   0.028  15.638  10.380  0.2048 -0.2759 -0.2572
  502loPI   GL2 8022  -0.201  15.715  10.214 -0.1171  0.0246  0.0340
  502loPI   C1A 8023   0.258  15.861  10.099 -0.1827  0.2185  0.0609
  502loPI   C2A 8024   0.179  15.909   9.656 -0.3344 -0.0134 -0.0786
  502loPI   C3A 8025   0.220  15.913   9.167  0.3704 -0.0424  0.1484
  502loPI   C4A 8026   0.088  15.889   8.695  0.2729  0.1236 -0.0620
  502loPI   C5A 8027   0.130  15.927   8.355  0.1449 -0.2271 -0.2766
  502loPI   C6A 8028  -0.054  15.799   7.985  0.0743 -0.1320 -0.0411
  502loPI   C1B 8029  -0.261  15.731   9.769  0.0847  0.1958 -0.1934
  502loPI   C2B 8030  -0.276  15.722   9.372 -0.2051  0.3613  0.0795
  502loPI   C3B 8031  -0.268  15.657   8.969  0.2397 -0.2087  0.0264
  502loPI   C4B 8032  -0.363  15.770   8.534  0.0663  0.0863  0.1329
  503loPI    C1 8033  11.565   3.211  11.404  0.3191  0.0309  0.0961
  503loPI    C2 8034  11.598   3.604  11.472  0.1962  0.0329  0.1472
  503loPI    C3 8035  11.445   3.364  11.753  0.0195 -0.0119  0.0145
  503loPI   PO4 8036  11.435   3.309  11.054 -0.1339 -0.0255  0.2077
  503loPI   GL1 8037  11.362   3.580  10.665 -0.0357  0.2402  0.1129
  503loPI   GL2 8038  11.221   3.753  10.416 -0.1012 -0.3930  0.1388
  503loPI   C1A 8039  11.487   3.351  10.296 -0.0674  0.0324  0.1078
  503loPI   C2A 8040  11.629   3.396   9.931  0.2208  0.1659 -0.1715
  503loPI   C3A 8041  11.670   3.456   9.509  0.1667 -0.0696  0.0420
  503loPI   C4A 8042  11.630   3.479   9.065 -0.3283  0.0869  0.0255
  503loPI   C5A 8043  11.827   3.395   8.660  0.1358 -0.1362  0.0870
  503loPI   C6A 8044  12.209   3.290   8.465  0.2806  0.2729 -0.0317
  503loPI   C1B 8045  11.178   3.633   9.922 -0.1842 -0.1888 -0.2315
  503loPI   C2B 8046  11.235   3.714   9.494  0.2552 -0.0479 -0.1028
  503loPI   C3B 8047  11.149   3.657   9.071 -0.0195  0.0836  0.2308
  503loPI   C4B 8048  11.159   3.752   8.669 -0.1331  0.3285  0.5051
  504loPI    C1 8049   4.393   5.997  11.049  0.1434 -0.1108 -0.0783
  504loPI    C2 8050   4.706   5.976  11.297 -0.0644  0.1683  0.2153
  504loPI    C3 8051   4.370   5.775  11.380 -0.1545  0.3077  0.1923
  504loPI   PO4 8052   4.637   5.934  10.669 -0.0627 -0.0104  0.2812
  504loPI   GL1 8053   4.931   5.928  10.315  0.3498 -0.1235 -0.1802
  504loPI   GL2 8054   5.103   6.052  10.477 -0.2215 -0.2468 -0.2349
  504loPI   C1A 8055   4.950   5.886   9.884  0.1826  0.0113  0.1819
  504loPI   C2A 8056   4.806   6.007   9.504 -0.3655  0.0724  0.0755
  504loPI   C3A 8057   5.019   5.962   9.077 -0.1441 -0.3946 -0.2021
  504loPI   C4A 8058   5.025   5.919   8.679  0.3005  0.0160  0.0069
  504loPI   C5A 8059   5.123   5.675   8.313 -0.1091 -0.2223 -0.2403
  504loPI   C6A 8060   4.986   5.465   7.942 -0.0572 -0.1503 -0.0144
  504loPI   C1B 8061   5.278   6.201  10.122 -0.2091  0.0226  0.1982
  504loPI   C2B 8062   5.384   6.227   9.710  0.1364 -0.1851 -0.0102
  504loPI   C3B 8063   5.396   6.239   9.298 -0.2471  0.1743  0.0775
  504loPI   C4B 8064   5.390   6.332   8.859  0.0759  0.1989  0.2525
  505loPI    C1 8065   6.793   2.652  10.568 -0.2190  0.1314 -0.1476
  505loPI    C2 8066   6.569   2.814  10.857  0.0393  0.1501  0.0456
  505loPI    C3 8067   6.611   2.417  10.836 -0.0900  0.1408 -0.0510
  505loPI   PO4 8068   6.744   2.841  10.384  0.1960  0.2378 -0.0546
  505loPI   GL1 8069   6.593   2.891  10.129 -0.0829  0.0508  0.3270
  505loPI   GL2 8070   6.326   2.980  10.007  0.1022  0.0075 -0.4098
  505loPI   C1A 8071   6.615   2.876   9.637  0.1694  0.0231  0.0700
  505loPI   C2A 8072   6.761   2.779   9.243 -0.2143  0.0059 -0.0442
  505loPI   C3A 8073   6.748   2.931   8.805 -0.0627 -0.0638 -0.2387
  505loPI   C4A 8074   6.649   2.828   8.450  0.1759 -0.0370  0.3204
  505loPI   C5A 8075   6.563   2.519   8.140 -0.3023 -0.1665 -0.0248
  505loPI   C6A 8076   6.684   2.117   8.018  0.2936 -0.0877 -0.1987
  505loPI   C1B 8077   6.216   3.153   9.625 -0.0407  0.0898  0.1083
  505loPI   C2B 8078   6.320   3.104   9.102  0.1338 -0.1264  0.0884
  505loPI   C3B 8079   6.372   3.196   8.704 -0.0797  0.2232  0.4379
  505loPI   C4B 8080   6.196   3.229   8.245 -0.1650  0.1852  0.1087
  506loPI    C1 8081   2.645   8.192  11.160 -0.0403 -0.1058 -0.0970
  506loPI    C2 8082   2.251   8.170  11.228 -0.0260 -0.2386 -0.0536
  506loPI    C3 8083   2.505   8.216  11.534 -0.0125 -0.0715 -0.0888
  506loPI   PO4 8084   2.577   8.271  10.871  0.2837 -0.0389 -0.1693
  506loPI   GL1 8085   2.705   8.148  10.387 -0.1446  0.1258 -0.3441
  506loPI   GL2 8086   2.425   8.265  10.270 -0.1131 -0.2297  0.0973
  506loPI   C1A 8087   2.756   8.007   9.908  0.1108  0.0675  0.3365
  506loPI   C2A 8088   2.676   7.873   9.483  0.3114  0.0550  0.0561
  506loPI   C3A 8089   2.720   7.854   8.993  0.2608 -0.1013 -0.0029
  506loPI   C4A 8090   2.764   7.825   8.566  0.1586 -0.4516  0.3759
  506loPI   C5A 8091   2.575   7.946   8.137 -0.0382  0.2454  0.0287
  506loPI   C6A 8092   2.223   8.043   8.154 -0.1617  0.0386  0.2101
  506loPI   C1B 8093   2.267   8.259   9.864  0.1040 -0.1311  0.2782
  506loPI   C2B 8094   2.297   8.257   9.422 -0.0265  0.2416  0.2543
  506loPI   C3B 8095   2.323   8.151   9.014 -0.1933  0.2521  0.1615
  506loPI   C4B 8096   2.363   8.125   8.647  0.2470  0.0548 -0.1673
  507loPI    C1 8097   9.603   3.214  10.926 -0.2465  0.0551  0.0180
  507loPI    C2 8098   9.940   3.097  11.106 -0.1247  0.0358 -0.2192
  507loPI    C3 8099   9.751   3.427  11.231 -0.0032  0.0625 -0.1033
  507loPI   PO4 8100   9.547   2.897  10.790 -0.1807 -0.0923  0.1041
  507loPI   GL1 8101   9.623   2.763  10.312 -0.0686 -0.0295 -0.0537
  507loPI   GL2 8102   9.379   2.605  10.048 -0.2403  0.0711  0.1472
  507loPI   C1A 8103   9.890   2.882   9.992  0.0093  0.0813  0.1232
  507loPI   C2A 8104   9.874   2.918   9.532 -0.2514 -0.0231 -0.1997
  507loPI   C3A 8105   9.735   2.977   9.111 -0.1390 -0.0463 -0.2847
  507loPI   C4A 8106   9.795   3.050   8.620 -0.1430 -0.1238  0.0379
  507loPI   C5A 8107  10.132   2.950   8.256  0.1328 -0.2784  0.0096
  507loPI   C6A 8108  10.434   3.144   7.977  0.1342  0.0071 -0.1740
  507loPI   C1B 8109   9.391   2.718   9.681  0.3722  0.0045 -0.1207
  507loPI   C2B 8110   9.328   2.748   9.169  0.2580  0.1376 -0.0559
  507loPI   C3B 8111   9.339   2.775   8.734 -0.3828  0.2265  0.0211
  507loPI   C4B 8112   9.187   2.801   8.305 -0.1702 -0.1401  0.0269
  508loPI    C1 8113   6.059  10.082  11.244  0.1738 -0.0622 -0.0674
  508loPI    C2 8114   6.360  10.128  11.503  0.1464  0.2415 -0.0859
  508loPI    C3 8115   6.014   9.967  11.624  0.2553  0.0520 -0.0225
  508loPI   PO4 8116   6.095  10.040  11.081 -0.2089 -0.0319  0.0338
  508loPI   GL1 8117   6.208   9.992  10.595  0.0053  0.1785 -0.1597
  508loPI   GL2 8118   5.961  10.098  10.581 -0.3625  0.3395 -0.3339
  508loPI   C1A 8119   6.348   9.883  10.158  0.0513  0.0920 -0.2690
  508loPI   C2A 8120   6.443   9.851   9.771  0.1752  0.1548 -0.1131
  508loPI   C3A 8121   6.424   9.842   9.359  0.2599  0.1898  0.1044
  508loPI   C4A 8122   6.361   9.870   8.820  0.1641 -0.2320 -0.1738
  508loPI   C5A 8123   6.288   9.910   8.425  0.1333  0.0730 -0.3015
  508loPI   C6A 8124   6.452  10.012   8.133  0.0879  0.0168 -0.0126
  508loPI   C1B 8125   5.875  10.110  10.103 -0.0040 -0.0821  0.0602
  508loPI   C2B 8126   6.008  10.130   9.680  0.1159  0.0569  0.1413
  508loPI   C3B 8127   5.974  10.061   9.167 -0.4683  0.0859 -0.4453
  508loPI   C4B 8128   5.860  10.132   8.765 -0.1449  0.0388  0.1661
  509loPI    C1 8129   5.437  12.737  10.466 -0.1074  0.1121  0.0643
  509loPI    C2 8130   5.497  13.003  10.758 -0.0676  0.1833 -0.0081
  509loPI    C3 8131   5.540  12.612  10.831  0.0691  0.2083  0.0486
  509loPI   PO4 8132   5.584  12.674  10.231  0.1556 -0.2098  0.0409
  509loPI   GL1 8133   5.806  12.633   9.863 -0.1071 -0.1177  0.2263
  509loPI   GL2 8134   6.091  12.910   9.832 -0.3941 -0.1665 -0.0186
  509loPI   C1A 8135   5.658  12.579   9.450  0.2031 -0.2698 -0.0408
  509loPI   C2A 8136   5.756  12.567   9.083 -0.0474 -0.2172  0.1818
  509loPI   C3A 8137   5.610  12.482   8.672 -0.0371 -0.1034 -0.0183
  509loPI   C4A 8138   5.570  12.195   8.307 -0.0434 -0.1992  0.2125
  509loPI   C5A 8139   5.389  11.786   8.132 -0.1500  0.1970  0.0659
  509loPI   C6A 8140   5.463  11.313   7.935 -0.0975  0.0100  0.0442
  509loPI   C1B 8141   6.223  12.762   9.362 -0.1973 -0.3914  0.1135
  509loPI   C2B 8142   6.197  12.878   8.923  0.1368  0.1897 -0.1495
  509loPI   C3B 8143   6.121  12.715   8.647 -0.0584  0.2169 -0.1712
  509loPI   C4B 8144   6.038  12.959   8.289 -0.1576 -0.1089 -0.4405
  510loPI    C1 8145   8.240   7.660  11.371 -0.0964 -0.1420  0.1424
  510loPI    C2 8146   7.928   7.594  11.612  0.0478 -0.1568  0.3274
  510loPI    C3 8147   8.059   7.967  11.552 -0.2454 -0.1100 -0.0580
  510loPI   PO4 8148   8.238   7.486  11.129  0.3238  0.2310  0.0747
  510loPI   GL1 8149   8.393   7.245  10.703 -0.3487  0.0530  0.3630
  510loPI   GL2 8150   8.525   7.396  10.681  0.3040  0.0129  0.2966
  510loPI   C1A 8151   8.198   7.174  10.326  0.0417 -0.1994 -0.0313
  510loPI   C2A 8152   8.165   7.182   9.919  0.1837 -0.2855  0.2875
  510loPI   C3A 8153   8.202   7.200   9.519 -0.0207  0.0082  0.1536
  510loPI   C4A 8154   8.154   7.268   9.043  0.3032  0.1803  0.1160
  510loPI   C5A 8155   8.072   7.415   8.549 -0.1626  0.2096  0.0941
  510loPI   C6A 8156   8.033   7.849   8.347 -0.1453 -0.0529 -0.0965
  510loPI   C1B 8157   8.630   7.335  10.255 -0.0127  0.0956  0.0871
  510loPI   C2B 8158   8.654   7.392   9.775  0.0418  0.1166 -0.0251
  510loPI   C3B 8159   8.590   7.462   9.309 -0.2451  0.1457  0.2762
  510loPI   C4B 8160   8.620   7.471   8.884 -0.0244 -0.0363  0.1005
  511loPI    C1 8161   1.435  10.524  11.123  0.0907 -0.0096 -0.0017
  511loPI    C2 8162   1.133  10.538  11.385 -0.0433 -0.0609 -0.1518
  511loPI    C3 8163   1.511  10.534  11.515 -0.1094 -0.1131  0.0410
  511loPI   PO4 8164   1.376  10.399  10.820  0.0977 -0.0975 -0.0925
  511loPI   GL1 8165   1.377  10.211  10.367 -0.0369 -0.1261 -0.0040
  511loPI   GL2 8166   1.521  10.171  10.131 -0.1379  0.0828  0.0429
  511loPI   C1A 8167   1.086  10.197  10.000  0.1664  0.1607 -0.0246
  511loPI   C2A 8168   0.914  10.063   9.576  0.0359  0.0749  0.0621
  511loPI   C3A 8169   0.948   9.969   9.194  0.3225  0.0163 -0.5190
  511loPI   C4A 8170   0.989  10.005   8.810  0.0419  0.1411  0.0700
  511loPI   C5A 8171   1.077  10.041   8.331  0.1906  0.1794  0.2136
  511loPI   C6A 8172   1.311  10.047   7.980  0.0544  0.0381 -0.0178
  511loPI   C1B 8173   1.461  10.307   9.712 -0.2282 -0.3358 -0.0090
  511loPI   C2B 8174   1.328  10.256   9.251 -0.2806 -0.4327  0.3279
  511loPI   C3B 8175   1.432  10.172   8.736 -0.2648 -0.1076 -0.0521
  511loPI   C4B 8176   1.623  10.363   8.335 -0.0284 -0.2930 -0.0074
  512loPI    C1 8177   5.806   7.608  11.037  0.1500  0.1810 -0.1796
  512loPI    C2 8178   5.452   7.500  11.187  0.0623  0.2709 -0.3191
  512loPI    C3 8179   5.631   7.833  11.317  0.2289  0.0797 -0.0476
  512loPI   PO4 8180   5.784   7.571  10.800 -0.1026  0.1265 -0.0309
  512loPI   GL1 8181   5.486   7.526  10.590  0.0638 -0.3275 -0.1361
  512loPI   GL2 8182   5.405   7.341  10.432 -0.3274 -0.2255  0.2903
  512loPI   C1A 8183   5.779   7.611  10.118  0.0674 -0.0575  0.0716
  512loPI   C2A 8184   5.864   7.474   9.764 -0.1025 -0.2632 -0.1813
  512loPI   C3A 8185   5.956   7.452   9.322 -0.1358 -0.0259  0.1614
  512loPI   C4A 8186   5.928   7.454   8.986  0.1690  0.0463 -0.4642
  512loPI   C5A 8187   5.834   7.511   8.524 -0.0289  0.0532  0.2694
  512loPI   C6A 8188   5.510   7.277   8.313  0.5151  0.0961  0.4862
  512loPI   C1B 8189   5.366   7.329  10.033 -0.1854  0.2030  0.3294
  512loPI   C2B 8190   5.415   7.273   9.622  0.3032  0.0782  0.2156
  512loPI   C3B 8191   5.411   7.324   9.241  0.3943 -0.3425  0.1534
  512loPI   C4B 8192   5.418   7.306   8.816  0.1520 -0.2093 -0.1270
  513loPI    C1 8193   7.050  13.857  10.560 -0.0811  0.1379  0.2955
  513loPI    C2 8194   6.874  13.908  10.916 -0.3099 -0.1061  0.2205
  513loPI    C3 8195   6.699  14.046  10.583 -0.2404 -0.1376  0.1705
  513loPI   PO4 8196   7.038  13.575  10.497 -0.2174 -0.1872 -0.2036
  513loPI   GL1 8197   7.169  13.442  10.051  0.2448  0.0041 -0.4485
  513loPI   GL2 8198   7.292  13.794  10.109 -0.0813 -0.0721  0.3532
  513loPI   C1A 8199   7.170  13.176   9.613 -0.2727 -0.2258  0.2575
  513loPI   C2A 8200   7.089  13.226   9.151 -0.1327 -0.4484  0.1247
  513loPI   C3A 8201   7.169  13.227   8.744  0.0644 -0.1070 -0.0976
  513loPI   C4A 8202   7.138  13.287   8.320 -0.1806 -0.0161  0.3680
  513loPI   C5A 8203   6.952  13.025   7.993  0.0034  0.0996  0.1746
  513loPI   C6A 8204   6.898  12.538   7.977 -0.1167  0.3221 -0.2339
  513loPI   C1B 8205   7.162  13.697   9.605 -0.2068 -0.2227  0.0519
  513loPI   C2B 8206   7.132  13.818   9.181  0.1294 -0.0009  0.0361
  513loPI   C3B 8207   7.074  13.781   8.702  0.0641  0.2093  0.0072
  513loPI   C4B 8208   7.193  13.781   8.343 -0.4409  0.0324 -0.1846
  514loPI    C1 8209   0.186   1.433  11.048 -0.1096 -0.0005  0.1206
  514loPI    C2 8210   0.017   1.298  11.384  0.2144 -0.1918  0.2103
  514loPI    C3 8211   0.197   1.656  11.380 -0.1511 -0.0044  0.1247
  514loPI   PO4 8212   0.049   1.423  10.842  0.0086 -0.0376  0.1795
  514loPI   GL1 8213   0.094   1.063  10.596 -0.0547 -0.1685  0.1252
  514loPI   GL2 8214   0.266   0.759  10.550  0.0694 -0.0855 -0.1112
  514loPI   C1A 8215  -0.199   1.180  10.282  0.0478  0.0097 -0.0466
  514loPI   C2A 8216  -0.248   1.183   9.793 -0.1673  0.0826  0.0720
  514loPI   C3A 8217  -0.257   1.048   9.363  0.2414 -0.1100  0.0699
  514loPI   C4A 8218  -0.219   1.067   8.974 -0.3658  0.0295 -0.3062
  514loPI   C5A 8219  -0.365   1.051   8.519 -0.0362 -0.0622  0.0947
  514loPI   C6A 8220  -0.456   0.924   8.037  0.1580 -0.0559  0.0478
  514loPI   C1B 8221   0.161   0.945  10.069 -0.2047  0.1815 -0.0776
  514loPI   C2B 8222   0.128   0.854   9.697  0.1886  0.0228 -0.0654
  514loPI   C3B 8223   0.136   0.837   9.270 -0.2936  0.0332  0.0597
  514loPI   C4B 8224   0.077   0.704   8.825 -0.2135 -0.0248 -0.0208
  515loPI    C1 8225  15.608  13.015  10.814 -0.0748  0.0583 -0.0489
  515loPI    C2 8226  15.342  12.738  10.927 -0.0421  0.0540  0.0174
  515loPI    C3 8227  15.684  12.781  11.129 -0.0522  0.1508  0.0142
  515loPI   PO4 8228  15.575  13.092  10.609 -0.0846 -0.0307 -0.3484
  515loPI   GL1 8229  15.418  13.292  10.302  0.0459  0.4411 -0.2828
  515loPI   GL2 8230  15.508  13.042  10.154  0.1240 -0.0010 -0.1674
  515loPI   C1A 8231  15.339  13.451   9.867  0.1061 -0.0373  0.1053
  515loPI   C2A 8232  15.472  13.419   9.431 -0.1517 -0.0513  0.0559
  515loPI   C3A 8233  15.484  13.476   8.953 -0.4142  0.0066  0.0503
  515loPI   C4A 8234  15.479  13.399   8.471  0.0541  0.0639  0.0173
  515loPI   C5A 8235  15.337  13.255   8.126  0.2233 -0.2798 -0.0325
  515loPI   C6A 8236  15.658  13.023   7.885 -0.0695 -0.0823  0.2272
  515loPI   C1B 8237  15.275  12.975   9.738  0.2367  0.0498  0.1469
  515loPI   C2B 8238  15.290  13.011   9.213  0.2351 -0.1712 -0.1019
  515loPI   C3B 8239  15.310  12.971   8.775 -0.0586 -0.1134  0.0536
  515loPI   C4B 8240  15.180  12.794   8.322 -0.0149  0.1730 -0.0595
  516loPI    C1 8241   3.834   2.851  10.829 -0.2983 -0.0655 -0.2452
  516loPI    C2 8242   3.620   2.916  11.161  0.1592 -0.2385  0.0939
  516loPI    C3 8243   3.589   2.567  10.968 -0.0860 -0.1484 -0.0344
  516loPI   PO4 8244   3.824   3.048  10.649  0.3390  0.2294  0.1864
  516loPI   GL1 8245   3.718   2.965  10.225  0.1510 -0.0086  0.0610
  516loPI   GL2 8246   3.498   2.814  10.040 -0.0638  0.0742 -0.2000
  516loPI   C1A 8247   3.937   2.925   9.811 -0.0555  0.4020 -0.0631
  516loPI   C2A 8248   4.011   2.890   9.365  0.0924 -0.1596 -0.0313
  516loPI   C3A 8249   4.012   2.859   8.913  0.1737 -0.1462 -0.1379
  516loPI   C4A 8250   4.022   3.013   8.480 -0.0897 -0.1878 -0.0797
  516loPI   C5A 8251   3.935   3.290   8.166 -0.1129  0.0403 -0.0492
  516loPI   C6A 8252   4.067   3.603   8.151  0.0151  0.1879  0.4082
  516loPI   C1B 8253   3.584   2.691   9.549 -0.1146  0.0346 -0.2234
  516loPI   C2B 8254   3.455   2.710   9.101  0.0664  0.0261 -0.0998
  516loPI   C3B 8255   3.424   2.741   8.724 -0.1271  0.5077  0.1340
  516loPI   C4B 8256   3.497   2.698   8.316  0.0450  0.3137  0.1173
  517loPI    C1 8257  13.218  15.749  11.059 -0.1464 -0.0949 -0.1575
  517loPI    C2 8258  13.081  16.121  11.114  0.0085 -0.0545 -0.0367
  517loPI    C3 8259  12.908  15.814  11.304  0.1122  0.0017  0.1512
  517loPI   PO4 8260  13.230  15.665  10.850  0.2468 -0.1740  0.0483
  517loPI   GL1 8261  13.336  15.963  10.583  0.3749 -0.0159 -0.0121
  517loPI   GL2 8262  13.686  16.140  10.431 -0.0787 -0.1032 -0.0425
  517loPI   C1A 8263  13.164  16.090  10.251 -0.1267 -0.2270  0.2048
  517loPI   C2A 8264  13.094  15.945   9.863  0.1090 -0.0315  0.0277
  517loPI   C3A 8265  13.074  15.921   9.413  0.1309 -0.0859  0.1773
  517loPI   C4A 8266  13.171  15.996   8.968  0.2244 -0.2336 -0.2311
  517loPI   C5A 8267  13.162  15.992   8.533  0.0536  0.0783 -0.4755
  517loPI   C6A 8268  13.313  16.223   8.233  0.0181 -0.3262 -0.1920
  517loPI   C1B 8269  13.603  16.092   9.964  0.0420  0.2212  0.1746
  517loPI   C2B 8270  13.588  16.044   9.584 -0.1818  0.1902  0.4561
  517loPI   C3B 8271  13.662  16.106   9.124  0.1575 -0.2133 -0.1359
  517loPI   C4B 8272  13.728  16.114   8.598 -0.0515 -0.0564 -0.1516
  518loPI    C1 8273  10.194  10.528  10.916  0.1959 -0.0469 -0.0094
  518loPI    C2 8274  10.321  10.898  10.998 -0.2251  0.0692  0.1440
  518loPI    C3 8275   9.986  10.759  11.166 -0.1403 -0.3389 -0.0111
  518loPI   PO4 8276  10.232  10.475  10.645 -0.1712 -0.1778  0.0357
  518loPI   GL1 8277   9.893  10.336  10.346  0.3164  0.0875 -0.0008
  518loPI   GL2 8278   9.695  10.579  10.225  0.0870 -0.3146  0.1235
  518loPI   C1A 8279  10.071  10.256   9.965  0.2545  0.0410  0.3022
  518loPI   C2A 8280   9.988  10.247   9.559  0.1737 -0.1248  0.1123
  518loPI   C3A 8281  10.063  10.270   9.181  0.0163  0.0015  0.0850
  518loPI   C4A 8282   9.980  10.263   8.804  0.1422  0.3959  0.1435
  518loPI   C5A 8283  10.118  10.164   8.397  0.3643  0.2065 -0.0653
  518loPI   C6A 8284  10.418   9.904   8.134  0.3311 -0.1861  0.1378
  518loPI   C1B 8285   9.616  10.544   9.730 -0.1931  0.0672 -0.1477
  518loPI   C2B 8286   9.576  10.455   9.343  0.0641 -0.1125 -0.2161
  518loPI   C3B 8287   9.524  10.532   8.894  0.1814  0.0784 -0.2030
  518loPI   C4B 8288   9.573  10.531   8.486  0.2890 -0.4908  0.1477
  519loPI    C1 8289  10.266   4.796  11.088 -0.2048 -0.3212 -0.0637
  519loPI    C2 8290  10.280   4.799  11.488  0.0761  0.0328 -0.0718
  519loPI    C3 8291   9.980   4.982  11.297  0.0339  0.0121 -0.0256
  519loPI   PO4 8292  10.530   4.775  11.050  0.1635 -0.1229  0.0413
  519loPI   GL1 8293  10.885   4.748  10.744 -0.0834 -0.2777 -0.0814
  519loPI   GL2 8294  11.086   5.036  10.595 -0.1707 -0.0831 -0.1143
  519loPI   C1A 8295  10.808   4.611  10.335 -0.3005  0.2716  0.0753
  519loPI   C2A 8296  10.758   4.444   9.962 -0.1259  0.0866 -0.1474
  519loPI   C3A 8297  10.799   4.474   9.564  0.3276  0.2478  0.2145
  519loPI   C4A 8298  10.844   4.612   9.108 -0.4500 -0.0439 -0.0420
  519loPI   C5A 8299  10.778   4.640   8.738  0.0324 -0.1476  0.1210
  519loPI   C6A 8300  10.917   4.787   8.370  0.1219 -0.0387  0.0895
  519loPI   C1B 8301  11.181   5.252  10.252 -0.1037 -0.0110  0.2515
  519loPI   C2B 8302  11.240   5.151   9.791 -0.0717  0.1426 -0.1701
  519loPI   C3B 8303  11.273   5.256   9.392 -0.1660 -0.0050  0.1047
  519loPI   C4B 8304  11.408   5.372   8.925  0.0371 -0.1787 -0.2278
  520loPI    C1 8305   1.307   7.468  10.839 -0.2758  0.2265  0.0237
  520loPI    C2 8306   1.396   7.796  11.049  0.0557  0.1203  0.0538
  520loPI    C3 8307   1.358   7.444  11.235 -0.1577  0.1151  0.0024
  520loPI   PO4 8308   1.276   7.599  10.517 -0.2311 -0.1123 -0.0650
  520loPI   GL1 8309   1.516   7.727  10.131  0.2537 -0.3226  0.0234
  520loPI   GL2 8310   1.390   8.099  10.151  0.0078 -0.1453  0.0337
  520loPI   C1A 8311   1.366   7.749   9.714 -0.2452 -0.2755  0.2861
  520loPI   C2A 8312   1.392   7.801   9.219  0.0865 -0.2201  0.1406
  520loPI   C3A 8313   1.318   7.744   8.768  0.1044 -0.3782 -0.2230
  520loPI   C4A 8314   1.342   7.778   8.326 -0.2600 -0.0715  0.0734
  520loPI   C5A 8315   1.069   8.095   7.996 -0.1946 -0.1260 -0.1424
  520loPI   C6A 8316   0.832   8.418   8.227  0.0233  0.0842  0.2277
  520loPI   C1B 8317   1.385   8.279   9.737  0.1549 -0.0990 -0.2533
  520loPI   C2B 8318   1.401   8.282   9.345 -0.2538 -0.1526 -0.1694
  520loPI   C3B 8319   1.433   8.278   8.942  0.0597  0.2182  0.3713
  520loPI   C4B 8320   1.416   8.216   8.521 -0.1463 -0.2964 -0.2700
  521loPI    C1 8321  11.803  16.626  10.866  0.0953  0.0981  0.0082
  521loPI    C2 8322  12.152  16.433  10.840 -0.0560 -0.2099  0.1974
  521loPI    C3 8323  12.024  16.569  11.193 -0.1668 -0.1721  0.1435
  521loPI   PO4 8324  11.624  16.448  10.742 -0.0319  0.0221 -0.0279
  521loPI   GL1 8325  11.668  16.162  10.438  0.1094  0.1801 -0.2154
  521loPI   GL2 8326  11.858  16.441  10.328  0.0692 -0.0082 -0.0271
  521loPI   C1A 8327  11.609  15.924  10.135  0.2215 -0.1079 -0.2047
  521loPI   C2A 8328  11.762  15.853   9.818  0.0810 -0.0812  0.0120
  521loPI   C3A 8329  11.815  15.902   9.431  0.1684  0.1702  0.2310
  521loPI   C4A 8330  11.834  15.838   8.958 -0.0013 -0.1616 -0.2775
  521loPI   C5A 8331  11.731  15.711   8.553  0.1545 -0.1752 -0.0645
  521loPI   C6A 8332  11.985  15.450   8.330 -0.1563  0.0082  0.1515
  521loPI   C1B 8333  11.855  16.335   9.982  0.0787 -0.1140 -0.0008
  521loPI   C2B 8334  11.917  16.397   9.546 -0.1200 -0.1936  0.1493
  521loPI   C3B 8335  11.942  16.545   9.091 -0.0341 -0.2891 -0.0195
  521loPI   C4B 8336  11.900  16.339   8.689 -0.0114 -0.1208  0.2570
  522loPI    C1 8337  12.769   5.700  11.297  0.0204 -0.3066  0.1388
  522loPI    C2 8338  12.455   5.730  11.544 -0.0646 -0.0327  0.0014
  522loPI    C3 8339  12.827   5.727  11.692 -0.1294 -0.3609  0.1651
  522loPI   PO4 8340  12.733   5.887  11.150 -0.0849  0.4057 -0.0826
  522loPI   GL1 8341  12.728   5.787  10.763 -0.0401  0.0815  0.1007
  522loPI   GL2 8342  12.973   5.760  10.489 -0.0530  0.1875 -0.0848
  522loPI   C1A 8343  12.571   5.966  10.339  0.0971 -0.3978 -0.1951
  522loPI   C2A 8344  12.560   6.010   9.881  0.3204 -0.0249 -0.1514
  522loPI   C3A 8345  12.647   6.018   9.474  0.2358 -0.1121  0.1973
  522loPI   C4A 8346  12.627   6.084   8.948 -0.0500  0.0557  0.2489
  522loPI   C5A 8347  12.657   5.944   8.563  0.1279 -0.1180 -0.0150
  522loPI   C6A 8348  12.732   5.573   8.510 -0.1087 -0.0239 -0.1094
  522loPI   C1B 8349  13.035   5.830   9.972  0.3499  0.0636 -0.1381
  522loPI   C2B 8350  13.023   5.731   9.605  0.0700  0.2626  0.1087
  522loPI   C3B 8351  12.986   5.757   9.123 -0.1653  0.2416  0.0402
  522loPI   C4B 8352  13.112   5.803   8.768 -0.0524  0.0524 -0.0792
  523loPI    C1 8353   6.553  14.500  10.669 -0.0618  0.0583 -0.0977
  523loPI    C2 8354   6.715  14.350  11.002  0.0057  0.0369 -0.1401
  523loPI    C3 8355   6.820  14.714  10.875 -0.0343  0.0528 -0.1276
  523loPI   PO4 8356   6.382  14.415  10.673 -0.2369 -0.0048 -0.0564
  523loPI   GL1 8357   6.197  14.325  10.340  0.1770  0.1603  0.1351
  523loPI   GL2 8358   6.044  14.449  10.246 -0.0298  0.0737 -0.0240
  523loPI   C1A 8359   6.312  14.306   9.850 -0.0409 -0.1197 -0.2132
  523loPI   C2A 8360   6.418  14.455   9.501  0.0297  0.0333 -0.0466
  523loPI   C3A 8361   6.323  14.443   9.138 -0.0147  0.3088 -0.1527
  523loPI   C4A 8362   6.391  14.450   8.761 -0.2748 -0.0004  0.1932
  523loPI   C5A 8363   6.283  14.395   8.321  0.1953  0.1809  0.0936
  523loPI   C6A 8364   6.223  14.454   7.906 -0.0446 -0.2355 -0.1889
  523loPI   C1B 8365   5.971  14.671   9.939  0.1438  0.2926 -0.0660
  523loPI   C2B 8366   5.880  14.808   9.533 -0.5528  0.0672  0.0690
  523loPI   C3B 8367   5.903  14.757   9.211 -0.1938  0.1098  0.1003
  523loPI   C4B 8368   5.996  14.731   8.737  0.1034 -0.0282  0.0645
  524loPI    C1 8369  13.485   9.638  11.019 -0.0134 -0.1656 -0.1171
  524loPI    C2 8370  13.228   9.941  11.060  0.0442 -0.0925 -0.2874
  524loPI    C3 8371  13.486   9.857  11.353 -0.1338 -0.1302 -0.1393
  524loPI   PO4 8372  13.386   9.440  10.779 -0.2155  0.4252 -0.5198
  524loPI   GL1 8373  13.454   9.371  10.464  0.0161  0.2311  0.1291
  524loPI   GL2 8374  13.564   9.160  10.237  0.4043 -0.0510  0.0733
  524loPI   C1A 8375  13.514   9.626  10.114 -0.0047  0.0060  0.2918
  524loPI   C2A 8376  13.516   9.668   9.688  0.1014  0.1219  0.1567
  524loPI   C3A 8377  13.500   9.641   9.196 -0.0688 -0.2540  0.1428
  524loPI   C4A 8378  13.598   9.735   8.818 -0.0393 -0.0376 -0.1138
  524loPI   C5A 8379  13.691   9.697   8.517 -0.0798 -0.4254 -0.0960
  524loPI   C6A 8380  13.684   9.839   8.059  0.2168 -0.0619 -0.0281
  524loPI   C1B 8381  13.438   9.159   9.792 -0.0274 -0.0007 -0.1618
  524loPI   C2B 8382  13.513   9.103   9.366  0.2715 -0.2908  0.0433
  524loPI   C3B 8383  13.594   9.179   8.919  0.0673  0.1092 -0.1240
  524loPI   C4B 8384  13.708   9.185   8.501  0.2697 -0.0915  0.3405
  525loPI    C1 8385   9.643   0.142  10.975  0.2291  0.0369 -0.1091
  525loPI    C2 8386   9.564  -0.250  10.987 -0.2541  0.1334  0.1040
  525loPI    C3 8387   9.620  -0.047  11.327 -0.0565  0.2627 -0.0034
  525loPI   PO4 8388   9.783   0.157  10.783  0.3014  0.1671  0.0266
  525loPI   GL1 8389   9.910   0.105  10.325  0.3172 -0.1571  0.3238
  525loPI   GL2 8390  10.164   0.242  10.142 -0.1054  0.2411 -0.0615
  525loPI   C1A 8391   9.743   0.062   9.911 -0.2457  0.1310 -0.1857
  525loPI   C2A 8392   9.802  -0.291   9.574 -0.1254  0.1918  0.0235
  525loPI   C3A 8393   9.864  -0.238   9.082 -0.1797  0.0024 -0.0092
  525loPI   C4A 8394  10.015   0.082   8.810  0.2919  0.0239 -0.1073
  525loPI   C5A 8395   9.860   0.381   8.523 -0.0660  0.2868 -0.0001
  525loPI   C6A 8396   9.628   0.284   8.138 -0.1790  0.0358 -0.1105
  525loPI   C1B 8397  10.511   0.385   9.857  0.3632 -0.1259  0.0713
  525loPI   C2B 8398  10.509   0.684   9.518  0.0469  0.1498 -0.0920
  525loPI   C3B 8399  10.570   0.849   9.120  0.0570  0.2304  0.1803
  525loPI   C4B 8400  10.533   0.990   8.735  0.0222 -0.2178 -0.2019
  526loPI    C1 8401   5.109   7.277  10.912 -0.0599 -0.1460  0.2550
  526loPI    C2 8402   4.979   7.647  10.991  0.0009 -0.0133 -0.2346
  526loPI    C3 8403   4.890   7.347  11.240 -0.0274  0.3305  0.1824
  526loPI   PO4 8404   4.987   7.250  10.657  0.0398 -0.1488 -0.0543
  526loPI   GL1 8405   4.826   7.346  10.244  0.2292  0.3972  0.4810
  526loPI   GL2 8406   5.012   7.020  10.177  0.1577 -0.6064 -0.0366
  526loPI   C1A 8407   4.969   7.637   9.924  0.1993 -0.1510 -0.0239
  526loPI   C2A 8408   5.016   7.598   9.467  0.1204  0.0573 -0.1549
  526loPI   C3A 8409   4.978   7.564   9.041 -0.0091 -0.0992 -0.2341
  526loPI   C4A 8410   4.986   7.536   8.667  0.0057 -0.2577 -0.0005
  526loPI   C5A 8411   5.037   7.438   8.319  0.1008  0.0087 -0.2316
  526loPI   C6A 8412   5.033   7.175   7.981  0.0113 -0.0719  0.0568
  526loPI   C1B 8413   4.926   7.142   9.738 -0.0142  0.0261 -0.0768
  526loPI   C2B 8414   4.984   7.105   9.318  0.1297  0.2028 -0.0873
  526loPI   C3B 8415   4.980   7.021   8.915  0.0270 -0.0364 -0.1691
  526loPI   C4B 8416   5.065   6.996   8.553 -0.1912  0.0245  0.1458
  527loPI    C1 8417   7.325   8.884  11.293  0.0208  0.0935 -0.1398
  527loPI    C2 8418   7.229   8.505  11.210  0.1756  0.0364 -0.0621
  527loPI    C3 8419   7.156   8.654  11.573  0.1050  0.0845 -0.0960
  527loPI   PO4 8420   7.213   9.004  11.019  0.2450 -0.0492 -0.2587
  527loPI   GL1 8421   7.201   9.134  10.625 -0.1518 -0.3353  0.2183
  527loPI   GL2 8422   7.115   9.420  10.462  0.0447  0.2198 -0.2768
  527loPI   C1A 8423   7.530   8.980  10.420 -0.1121  0.0998  0.1022
  527loPI   C2A 8424   7.786   8.955  10.135  0.0576 -0.1041 -0.1902
  527loPI   C3A 8425   7.797   8.950   9.747 -0.0474  0.3151 -0.1731
  527loPI   C4A 8426   7.775   9.012   9.351  0.1610 -0.0557 -0.3201
  527loPI   C5A 8427   7.733   8.984   8.933 -0.1382 -0.2239  0.1329
  527loPI   C6A 8428   7.476   9.200   8.580  0.0290  0.0142  0.0972
  527loPI   C1B 8429   7.195   9.303  10.057  0.0964  0.3583 -0.0038
  527loPI   C2B 8430   7.399   9.281   9.798  0.2155  0.0506 -0.1421
  527loPI   C3B 8431   7.379   9.238   9.406  0.1630 -0.1820  0.2494
  527loPI   C4B 8432   7.310   9.340   9.016  0.2398  0.0855 -0.0592
  528loPI    C1 8433   3.068   2.267  10.953  0.0717  0.2164  0.0421
  528loPI    C2 8434   3.347   2.199  11.231 -0.1228 -0.2146  0.1405
  528loPI    C3 8435   2.966   2.098  11.300 -0.2540  0.0872 -0.1116
  528loPI   PO4 8436   3.146   2.387  10.781  0.0762  0.1152  0.1468
  528loPI   GL1 8437   3.067   2.469  10.255 -0.0754 -0.0705  0.2989
  528loPI   GL2 8438   2.943   2.193  10.364 -0.0447  0.1348  0.1214
  528loPI   C1A 8439   3.079   2.558   9.829 -0.3107  0.1219 -0.1763
  528loPI   C2A 8440   3.103   2.492   9.365 -0.2565 -0.3787 -0.0267
  528loPI   C3A 8441   3.028   2.521   9.006  0.2465  0.0470  0.1495
  528loPI   C4A 8442   3.049   2.443   8.596 -0.0728  0.0618 -0.0332
  528loPI   C5A 8443   2.985   2.134   8.336 -0.1260  0.0618 -0.0557
  528loPI   C6A 8444   2.692   1.859   8.127  0.1150 -0.1533  0.0452
  528loPI   C1B 8445   3.065   1.891   9.923  0.0471  0.1604 -0.3837
  528loPI   C2B 8446   3.173   1.912   9.645  0.0549 -0.0572 -0.1433
  528loPI   C3B 8447   2.997   1.985   9.276 -0.1381  0.0502 -0.0609
  528loPI   C4B 8448   2.943   1.960   8.803 -0.5545  0.4902  0.0856
  529loPI    C1 8449   0.630   0.578  10.865  0.0453  0.1023 -0.0560
  529loPI    C2 8450   0.925   0.416  11.081  0.0164 -0.0587 -0.1353
  529loPI    C3 8451   0.606   0.573  11.264  0.0247 -0.1303 -0.0584
  529loPI   PO4 8452   0.770   0.794  10.680 -0.0413  0.0967  0.0079
  529loPI   GL1 8453   1.106   0.747  10.247  0.0689  0.2726 -0.1287
  529loPI   GL2 8454   1.200   1.041  10.132 -0.1712  0.4378  0.1516
  529loPI   C1A 8455   1.122   0.600   9.905  0.0550 -0.2483  0.2873
  529loPI   C2A 8456   1.061   0.553   9.488  0.0585  0.0364 -0.0170
  529loPI   C3A 8457   0.962   0.632   9.067  0.0505 -0.0716 -0.1150
  529loPI   C4A 8458   0.991   0.636   8.654  0.0929 -0.1343 -0.1632
  529loPI   C5A 8459   0.807   0.840   8.331 -0.1275 -0.1663 -0.2152
  529loPI   C6A 8460   0.415   0.794   8.301  0.0783  0.1747 -0.3617
  529loPI   C1B 8461   1.302   0.994   9.625 -0.2470 -0.0484 -0.1340
  529loPI   C2B 8462   1.451   0.934   9.260 -0.0451  0.2769 -0.1882
  529loPI   C3B 8463   1.473   0.828   8.875  0.1937  0.0784 -0.2023
  529loPI   C4B 8464   1.365   0.820   8.361  0.0346 -0.3379  0.2102
  530loPI    C1 8465  14.978  14.856  10.891 -0.1697 -0.1303 -0.0088
  530loPI    C2 8466  14.889  15.159  11.137  0.1361 -0.1583  0.1403
  530loPI    C3 8467  15.038  14.818  11.284  0.0860 -0.2680 -0.0593
  530loPI   PO4 8468  15.058  15.086  10.681 -0.0531 -0.0292 -0.1171
  530loPI   GL1 8469  15.178  15.101  10.284  0.0855  0.1168 -0.3410
  530loPI   GL2 8470  15.420  15.332  10.125  0.3916 -0.1025 -0.3221
  530loPI   C1A 8471  15.222  14.827   9.929 -0.1695 -0.2378 -0.2373
  530loPI   C2A 8472  15.236  14.754   9.561  0.2337 -0.0784  0.4107
  530loPI   C3A 8473  15.192  14.802   9.177  0.2491 -0.2026 -0.0308
  530loPI   C4A 8474  15.204  14.735   8.775 -0.2380  0.1758  0.1527
  530loPI   C5A 8475  15.160  14.783   8.364 -0.1904 -0.1705  0.2025
  530loPI   C6A 8476  14.935  14.547   8.020  0.1807 -0.1208 -0.0084
  530loPI   C1B 8477  15.395  15.280   9.713 -0.1243  0.0299  0.1175
  530loPI   C2B 8478  15.376  15.311   9.279  0.1096 -0.0965 -0.3760
  530loPI   C3B 8479  15.436  15.329   8.833 -0.1479  0.2259 -0.0812
  530loPI   C4B 8480  15.444  15.478   8.404  0.1214  0.1027 -0.1513
  531loPI    C1 8481   1.247   0.844  10.898 -0.1829  0.0021 -0.1621
  531loPI    C2 8482   1.242   0.813  11.296 -0.0158 -0.0762 -0.1654
  531loPI    C3 8483   0.952   1.013  11.108 -0.0758 -0.0079 -0.0022
  531loPI   PO4 8484   1.369   0.599  10.790 -0.0053 -0.0689 -0.1258
  531loPI   GL1 8485   1.390   0.360  10.334 -0.0279 -0.0466  0.3031
  531loPI   GL2 8486   1.174   0.106  10.174 -0.1269 -0.0194  0.1278
  531loPI   C1A 8487   1.594   0.502   9.894  0.2689 -0.0465 -0.0167
  531loPI   C2A 8488   1.534   0.374   9.446 -0.1053  0.0323  0.1070
  531loPI   C3A 8489   1.404   0.384   9.060  0.1191 -0.2095 -0.0032
  531loPI   C4A 8490   1.393   0.350   8.600 -0.0701 -0.0720 -0.0803
  531loPI   C5A 8491   1.596   0.083   8.182 -0.0331  0.2043 -0.3290
  531loPI   C6A 8492   1.770  -0.091   7.807 -0.0939  0.0219  0.0017
  531loPI   C1B 8493   1.213   0.151   9.754 -0.0518  0.3228  0.2918
  531loPI   C2B 8494   0.975   0.161   9.271 -0.0246 -0.3489 -0.1631
  531loPI   C3B 8495   0.995   0.174   8.887 -0.0416  0.0821  0.1218
  531loPI   C4B 8496   0.881   0.093   8.454 -0.1127  0.2363 -0.2817
  532loPI    C1 8497   7.814  13.285  10.833 -0.0035 -0.1252  0.1856
  532loPI    C2 8498   7.529  13.268  11.113 -0.0395 -0.1455  0.1480
  532loPI    C3 8499   7.911  13.328  11.218 -0.0870  0.1119  0.1816
  532loPI   PO4 8500   7.811  13.070  10.633 -0.1820  0.1829  0.0704
  532loPI   GL1 8501   7.661  13.213  10.241 -0.0358  0.1830  0.0087
  532loPI   GL2 8502   7.666  12.920  10.102 -0.1962  0.1108 -0.1041
  532loPI   C1A 8503   7.646  13.387   9.785  0.2762 -0.0222  0.1780
  532loPI   C2A 8504   7.624  13.434   9.351  0.2169  0.1958  0.0921
  532loPI   C3A 8505   7.577  13.436   8.957 -0.2242  0.3308 -0.1142
  532loPI   C4A 8506   7.591  13.503   8.524 -0.1659 -0.3812  0.0183
  532loPI   C5A 8507   7.561  13.548   8.087 -0.2063 -0.0239  0.1271
  532loPI   C6A 8508   7.549  13.541   7.614 -0.1547 -0.0193  0.2786
  532loPI   C1B 8509   7.564  12.873   9.722 -0.0819  0.0031 -0.2593
  532loPI   C2B 8510   7.512  12.909   9.325 -0.2522  0.3825 -0.0868
  532loPI   C3B 8511   7.502  12.898   8.899  0.0543 -0.0424  0.0985
  532loPI   C4B 8512   7.542  12.998   8.524  0.1362 -0.3097 -0.0998
  533loPI    C1 8513   7.336   1.087  10.226  0.0455  0.0818 -0.0201
  533loPI    C2 8514   7.589   0.777  10.216  0.1881  0.2010 -0.1509
  533loPI    C3 8515   7.602   1.036  10.521 -0.0105  0.0141  0.0190
  533loPI   PO4 8516   7.155   1.097  10.258  0.0688  0.2779 -0.1589
  533loPI   GL1 8517   6.841   0.921   9.847 -0.1664 -0.0720 -0.0123
  533loPI   GL2 8518   7.060   1.014   9.705 -0.1000 -0.2499 -0.0135
  533loPI   C1A 8519   6.557   0.747   9.550 -0.1062 -0.1451 -0.1520
  533loPI   C2A 8520   6.547   0.801   9.076 -0.0234 -0.1349 -0.4073
  533loPI   C3A 8521   6.481   0.743   8.689 -0.0140 -0.1777  0.2838
  533loPI   C4A 8522   6.396   0.803   8.311 -0.1107  0.0630  0.0170
  533loPI   C5A 8523   6.199   1.186   8.113 -0.0569 -0.2700 -0.2743
  533loPI   C6A 8524   5.777   1.239   8.127 -0.0726 -0.0774  0.1445
  533loPI   C1B 8525   7.088   0.905   9.261  0.1224 -0.0387 -0.1972
  533loPI   C2B 8526   7.009   0.990   8.923  0.2031 -0.0773 -0.3049
  533loPI   C3B 8527   6.885   0.970   8.420 -0.1018  0.0516 -0.2807
  533loPI   C4B 8528   7.035   1.305   8.036  0.1356 -0.0412  0.2127
  534loPI    C1 8529   4.812   6.343  10.979 -0.2779 -0.3297 -0.0154
  534loPI    C2 8530   4.627   6.453  11.316 -0.0033  0.0362  0.0219
  534loPI    C3 8531   5.024   6.404  11.313 -0.0269 -0.1574 -0.2026
  534loPI   PO4 8532   4.686   6.432  10.811  0.1993  0.1079 -0.1928
  534loPI   GL1 8533   4.679   6.375  10.381 -0.1487  0.2091 -0.1089
  534loPI   GL2 8534   4.974   6.521  10.400 -0.1826 -0.2132 -0.1077
  534loPI   C1A 8535   4.464   6.242   9.963  0.1034  0.0400 -0.1321
  534loPI   C2A 8536   4.447   6.351   9.586  0.0617 -0.2353 -0.1582
  534loPI   C3A 8537   4.451   6.319   9.192 -0.0111  0.1963  0.1713
  534loPI   C4A 8538   4.586   6.208   8.754  0.1957 -0.3745 -0.0433
  534loPI   C5A 8539   4.683   6.346   8.313  0.0937  0.0478  0.3204
  534loPI   C6A 8540   4.845   6.711   8.220 -0.3366 -0.0471 -0.3126
  534loPI   C1B 8541   4.919   6.520   9.942  0.2856  0.0393 -0.0099
  534loPI   C2B 8542   4.963   6.460   9.491  0.0847 -0.1069  0.2146
  534loPI   C3B 8543   4.870   6.521   9.099  0.1918  0.0197  0.0482
  534loPI   C4B 8544   4.975   6.492   8.697 -0.1795 -0.1206  0.1077
  535loPI    C1 8545   5.107   6.750  10.867 -0.0012  0.0846 -0.2759
  535loPI    C2 8546   5.193   6.913  11.222  0.1138 -0.4051 -0.0710
  535loPI    C3 8547   4.813   6.841  11.122  0.0721 -0.1430 -0.1064
  535loPI   PO4 8548   5.255   6.817  10.679  0.0065 -0.1095  0.2160
  535loPI   GL1 8549   5.484   6.897  10.296  0.4325  0.2865 -0.0275
  535loPI   GL2 8550   5.361   6.683  10.067 -0.1796  0.2167 -0.0606
  535loPI   C1A 8551   5.730   7.050   9.958  0.2138  0.0783 -0.0396
  535loPI   C2A 8552   5.870   7.011   9.556  0.1553  0.2700  0.1951
  535loPI   C3A 8553   5.900   7.004   9.152  0.0642  0.0598  0.0797
  535loPI   C4A 8554   5.944   7.043   8.732  0.0748  0.0662  0.1190
  535loPI   C5A 8555   6.227   7.162   8.410  0.0396  0.1890  0.2645
  535loPI   C6A 8556   6.385   7.332   7.990 -0.0900 -0.3222 -0.0073
  535loPI   C1B 8557   5.324   6.764   9.640 -0.2681 -0.2739  0.0164
  535loPI   C2B 8558   5.443   6.801   9.255 -0.0387  0.1997 -0.1084
  535loPI   C3B 8559   5.540   6.816   8.865 -0.2303  0.0992 -0.4692
  535loPI   C4B 8560   5.609   6.830   8.498  0.1810 -0.0383 -0.0249
  536loPI    C1 8561  10.769  16.663  10.939 -0.0124 -0.0468  0.0969
  536loPI    C2 8562  10.644  16.286  10.893  0.3166 -0.1145 -0.2938
  536loPI    C3 8563  10.860  16.387  11.214  0.0761 -0.2143 -0.0977
  536loPI   PO4 8564  10.895  16.742  10.662 -0.1276  0.0626  0.0981
  536loPI   GL1 8565  10.604  16.579  10.280 -0.0239 -0.0806  0.0638
  536loPI   GL2 8566  10.777  16.273  10.388 -0.0666  0.1927  0.1019
  536loPI   C1A 8567  10.920  16.684  10.007  0.0119  0.1056  0.0751
  536loPI   C2A 8568  10.966  16.608   9.633 -0.1583 -0.0025  0.3651
  536loPI   C3A 8569  11.094  16.610   9.278 -0.2767  0.0993 -0.3509
  536loPI   C4A 8570  11.037  16.611   8.823 -0.1931  0.2198 -0.2306
  536loPI   C5A 8571  11.128  16.481   8.443  0.2103 -0.0912 -0.2247
  536loPI   C6A 8572  11.415  16.151   8.526 -0.1886 -0.2600  0.0791
  536loPI   C1B 8573  10.746  16.052   9.978  0.0439 -0.1904 -0.4606
  536loPI   C2B 8574  10.807  16.043   9.666  0.1110 -0.0480  0.0382
  536loPI   C3B 8575  10.858  16.077   9.240 -0.0463  0.1715 -0.0099
  536loPI   C4B 8576  11.007  16.117   8.878  0.3181 -0.2297 -0.3204
  537loPI    C1 8577  13.289  10.419  10.886  0.0720  0.0853 -0.0383
  537loPI    C2 8578  13.032  10.726  10.887 -0.0658 -0.0272 -0.2441
  537loPI    C3 8579  13.426  10.795  10.900 -0.1023  0.1477  0.0167
  537loPI   PO4 8580  13.216  10.287  10.653  0.3244 -0.2099  0.0598
  537loPI   GL1 8581  12.937  10.276  10.298  0.0719  0.0678  0.1870
  537loPI   GL2 8582  12.677  10.257  10.189 -0.1640  0.1935 -0.1481
  537loPI   C1A 8583  13.132  10.458   9.965 -0.1012 -0.0975 -0.3680
  537loPI   C2A 8584  13.093  10.467   9.521 -0.1420 -0.1764  0.1591
  537loPI   C3A 8585  13.129  10.463   9.127  0.1683 -0.2805  0.2215
  537loPI   C4A 8586  13.197  10.488   8.726  0.1480 -0.1570  0.0666
  537loPI   C5A 8587  13.263  10.620   8.297  0.2746  0.1445  0.2317
  537loPI   C6A 8588  13.466  11.035   8.248  0.3083 -0.0783 -0.0946
  537loPI   C1B 8589  12.641  10.171   9.715  0.2295 -0.4976  0.1361
  537loPI   C2B 8590  12.722  10.216   9.219 -0.1066 -0.0810 -0.2531
  537loPI   C3B 8591  12.718  10.253   8.756  0.3233  0.1493 -0.0949
  537loPI   C4B 8592  12.593  10.391   8.257 -0.1393  0.3295 -0.1072
  538loPI    C1 8593  14.362  12.612  10.839 -0.1738  0.2246  0.0885
  538loPI    C2 8594  14.084  12.410  11.045  0.0297 -0.0718  0.0795
  538loPI    C3 8595  14.461  12.424  11.178  0.0614  0.1349 -0.0275
  538loPI   PO4 8596  14.140  12.806  10.739  0.1075 -0.1648 -0.0634
  538loPI   GL1 8597  13.937  12.913  10.295  0.0849 -0.0202 -0.0477
  538loPI   GL2 8598  13.849  12.577  10.215  0.1764 -0.2235  0.0568
  538loPI   C1A 8599  14.031  12.969   9.908  0.1355 -0.2012  0.0513
  538loPI   C2A 8600  13.977  12.908   9.443 -0.0799 -0.2515 -0.1686
  538loPI   C3A 8601  13.933  13.011   8.975 -0.2065 -0.0380 -0.1583
  538loPI   C4A 8602  14.060  13.023   8.495 -0.2700 -0.0486 -0.0508
  538loPI   C5A 8603  14.225  13.024   8.098  0.3185 -0.1845  0.0813
  538loPI   C6A 8604  14.285  12.860   7.749 -0.0549 -0.2495 -0.0010
  538loPI   C1B 8605  13.866  12.485   9.694  0.0282  0.0617  0.0144
  538loPI   C2B 8606  13.878  12.487   9.198 -0.0147 -0.1527 -0.1721
  538loPI   C3B 8607  13.869  12.457   8.786 -0.2260  0.0128  0.2994
  538loPI   C4B 8608  13.746  12.675   8.360 -0.1338  0.3758  0.0152
  539loPI    C1 8609   9.782  14.756  10.819  0.0520 -0.1074 -0.0494
  539loPI    C2 8610   9.811  14.993  11.140  0.0587  0.1279 -0.2207
  539loPI    C3 8611   9.850  14.597  11.179 -0.0918  0.1409  0.0904
  539loPI   PO4 8612   9.889  14.829  10.583 -0.1966  0.1867  0.1414
  539loPI   GL1 8613   9.956  14.600  10.193  0.0676  0.0549 -0.0784
  539loPI   GL2 8614  10.268  14.781  10.030 -0.2635  0.0126 -0.0026
  539loPI   C1A 8615  10.007  14.361   9.783 -0.5299  0.0964 -0.1097
  539loPI   C2A 8616  10.026  14.336   9.299 -0.0967  0.1493 -0.1219
  539loPI   C3A 8617  10.082  14.414   8.929  0.2334 -0.0513  0.0621
  539loPI   C4A 8618   9.936  14.419   8.535  0.2099  0.2570  0.0345
  539loPI   C5A 8619   9.792  14.773   8.209 -0.0368 -0.0755  0.1781
  539loPI   C6A 8620   9.821  15.187   8.108 -0.0234  0.1623  0.0581
  539loPI   C1B 8621  10.064  14.868   9.578  0.0921  0.0241  0.0353
  539loPI   C2B 8622  10.230  14.878   9.166 -0.1062  0.3274 -0.1463
  539loPI   C3B 8623  10.162  14.928   8.758 -0.1187  0.3198  0.0053
  539loPI   C4B 8624  10.139  15.057   8.450  0.2135 -0.0274 -0.0874
  540loPI    C1 8625   3.621  12.425  10.496  0.1980  0.0148  0.0352
  540loPI    C2 8626   3.532  12.815  10.508 -0.0162 -0.0343  0.0861
  540loPI    C3 8627   3.491  12.590  10.836  0.0913 -0.1037  0.0526
  540loPI   PO4 8628   3.443  12.292  10.188  0.0902 -0.0059  0.0286
  540loPI   GL1 8629   3.278  12.097   9.842 -0.0079  0.1016 -0.0341
  540loPI   GL2 8630   3.217  11.721   9.860 -0.1359  0.0268  0.0762
  540loPI   C1A 8631   3.221  12.023   9.372  0.1455 -0.1507  0.4120
  540loPI   C2A 8632   3.279  12.118   8.977 -0.3788 -0.2858  0.1950
  540loPI   C3A 8633   3.360  12.307   8.579 -0.1478  0.0996  0.2996
  540loPI   C4A 8634   3.236  12.350   8.185 -0.1536  0.2201  0.1676
  540loPI   C5A 8635   3.335  12.233   7.848  0.2319  0.2324 -0.1381
  540loPI   C6A 8636   3.662  12.207   7.516  0.1722  0.1542 -0.0670
  540loPI   C1B 8637   3.457  11.569   9.483  0.2468  0.1872 -0.0484
  540loPI   C2B 8638   3.400  11.578   9.076  0.0218 -0.3106 -0.1676
  540loPI   C3B 8639   3.390  11.744   8.632 -0.0427 -0.1184 -0.0159
  540loPI   C4B 8640   3.265  11.867   8.249 -0.3069  0.0249 -0.0964
  541loPI    C1 8641   8.521   9.334  10.787  0.0134  0.0603 -0.1591
  541loPI    C2 8642   8.895   9.469  10.830 -0.0720  0.2241  0.0967
  541loPI    C3 8643   8.786   9.124  11.001  0.0238  0.0543 -0.1777
  541loPI   PO4 8644   8.378   9.541  10.901 -0.2311 -0.0102  0.2108
  541loPI   GL1 8645   8.469   9.943  10.639  0.1133  0.0325 -0.0496
  541loPI   GL2 8646   8.152   9.833  10.522  0.2423  0.2222  0.1573
  541loPI   C1A 8647   8.661   9.632  10.307 -0.2688  0.1304 -0.0837
  541loPI   C2A 8648   8.707   9.539   9.843  0.0249 -0.1126  0.0880
  541loPI   C3A 8649   8.736   9.529   9.364 -0.2759  0.3106  0.0494
  541loPI   C4A 8650   8.742   9.486   8.926  0.1001 -0.0783 -0.0547
  541loPI   C5A 8651   8.717   9.435   8.551  0.3008 -0.1422  0.2043
  541loPI   C6A 8652   8.499   9.817   8.289  0.0269 -0.0425  0.2038
  541loPI   C1B 8653   8.249   9.736  10.033  0.2885 -0.1529 -0.1908
  541loPI   C2B 8654   8.272   9.762   9.560  0.1097 -0.0688 -0.1539
  541loPI   C3B 8655   8.242   9.771   9.218 -0.4903  0.1304 -0.4514
  541loPI   C4B 8656   8.277   9.674   8.749  0.1397  0.0744 -0.0969
  542loPI    C1 8657  15.573   6.366  11.071 -0.0710 -0.0282 -0.0071
  542loPI    C2 8658  15.535   6.377  11.469  0.0515 -0.2223  0.0112
  542loPI    C3 8659  15.777   6.108  11.298  0.1840  0.0155 -0.1825
  542loPI   PO4 8660  15.352   6.430  10.950 -0.2721 -0.0055  0.0612
  542loPI   GL1 8661  15.312   6.494  10.557  0.4460  0.0077  0.1598
  542loPI   GL2 8662  15.100   6.259  10.502 -0.2447 -0.0193  0.2906
  542loPI   C1A 8663  15.270   6.558  10.154  0.1229  0.0667  0.2931
  542loPI   C2A 8664  15.199   6.522   9.728  0.2666  0.0938 -0.0308
  542loPI   C3A 8665  15.229   6.433   9.316  0.0692  0.1105 -0.1903
  542loPI   C4A 8666  15.343   6.450   8.883  0.0880  0.0565  0.3308
  542loPI   C5A 8667  15.493   6.435   8.496  0.0369 -0.2173 -0.0762
  542loPI   C6A 8668  15.674   6.280   8.149 -0.1201 -0.1784  0.1413
  542loPI   C1B 8669  15.186   6.079  10.139 -0.0194  0.2518  0.3660
  542loPI   C2B 8670  15.285   5.968   9.764 -0.1076  0.4918  0.4564
  542loPI   C3B 8671  15.238   5.873   9.324  0.3822  0.0694 -0.1843
  542loPI   C4B 8672  15.230   5.987   8.963 -0.1340 -0.1066  0.0532
  543loPI    C1 8673  13.227   1.938  11.196  0.1810  0.0148  0.0328
  543loPI    C2 8674  13.198   1.601  10.983  0.3586  0.0250 -0.0089
  543loPI    C3 8675  13.092   1.603  11.369 -0.0182  0.0205 -0.1078
  543loPI   PO4 8676  13.398   2.046  11.185  0.2077 -0.1355  0.2657
  543loPI   GL1 8677  13.440   2.212  10.823  0.4631  0.0001 -0.1771
  543loPI   GL2 8678  13.182   2.005  10.717  0.0106  0.0401 -0.1852
  543loPI   C1A 8679  13.357   2.456  10.373  0.0072 -0.1106  0.5834
  543loPI   C2A 8680  13.399   2.452   9.921 -0.0849 -0.3856 -0.0137
  543loPI   C3A 8681  13.361   2.350   9.525 -0.1139 -0.0869 -0.0003
  543loPI   C4A 8682  13.328   2.434   9.015 -0.1729  0.2164  0.3626
  543loPI   C5A 8683  13.324   2.594   8.640 -0.1170 -0.0011  0.0035
  543loPI   C6A 8684  13.387   3.014   8.463  0.1309  0.1089  0.0881
  543loPI   C1B 8685  13.358   1.962  10.354 -0.1230 -0.0410  0.1363
  543loPI   C2B 8686  13.369   1.969   9.917  0.1881  0.3072 -0.2461
  543loPI   C3B 8687  13.358   1.834   9.457 -0.0257  0.0684 -0.1332
  543loPI   C4B 8688  13.333   1.868   9.032 -0.1305 -0.1751 -0.1331
  544loPI    C1 8689  14.001  13.206  11.097  0.1171 -0.1683 -0.0732
  544loPI    C2 8690  14.193  12.890  11.250 -0.0888 -0.1921  0.1416
  544loPI    C3 8691  14.199  13.240  11.444  0.0888 -0.0781 -0.0657
  544loPI   PO4 8692  14.070  13.284  10.893 -0.0429  0.1213 -0.0899
  544loPI   GL1 8693  14.171  13.265  10.569  0.3160 -0.0059  0.0098
  544loPI   GL2 8694  13.900  13.505  10.477 -0.1872  0.2529 -0.0443
  544loPI   C1A 8695  14.375  13.187  10.180  0.2749  0.0171  0.2523
  544loPI   C2A 8696  14.501  13.172   9.749 -0.2956  0.4009 -0.3994
  544loPI   C3A 8697  14.438  13.118   9.303  0.2653  0.0919  0.2187
  544loPI   C4A 8698  14.792  12.875   9.056  0.0917 -0.0768 -0.2221
  544loPI   C5A 8699  14.750  12.720   8.702  0.0958 -0.1616  0.1659
  544loPI   C6A 8700  14.760  12.535   8.189 -0.0914  0.0837  0.1990
  544loPI   C1B 8701  14.000  13.470  10.103  0.1070  0.2201 -0.0381
  544loPI   C2B 8702  14.141  13.506   9.642  0.2507 -0.0398 -0.1487
  544loPI   C3B 8703  14.020  13.489   9.206  0.3923 -0.2625 -0.1200
  544loPI   C4B 8704  14.013  13.456   8.774 -0.1523  0.0402 -0.2160
  545loPI    C1 8705   7.597   2.699  10.964 -0.0407  0.2144 -0.0005
  545loPI    C2 8706   7.829   2.941  11.182  0.2756 -0.0582 -0.0266
  545loPI    C3 8707   7.779   2.559  11.291 -0.0938 -0.0272 -0.0721
  545loPI   PO4 8708   7.673   2.649  10.709  0.3424 -0.1636  0.1018
  545loPI   GL1 8709   7.622   2.671  10.275  0.0432  0.4626 -0.2153
  545loPI   GL2 8710   7.613   2.378  10.263 -0.0920  0.0708 -0.5392
  545loPI   C1A 8711   7.544   2.826   9.887 -0.0175  0.1857  0.0229
  545loPI   C2A 8712   7.569   2.885   9.405  0.2245 -0.1795 -0.1196
  545loPI   C3A 8713   7.610   2.820   8.843  0.3800  0.0397 -0.0773
  545loPI   C4A 8714   7.537   2.901   8.383 -0.0124 -0.1559 -0.0771
  545loPI   C5A 8715   7.544   2.572   8.067  0.1973  0.0827  0.5082
  545loPI   C6A 8716   7.487   2.222   7.976  0.1223 -0.0591 -0.0595
  545loPI   C1B 8717   7.594   2.339   9.846  0.3489  0.2471  0.1377
  545loPI   C2B 8718   7.551   2.373   9.386  0.0896  0.0157  0.1254
  545loPI   C3B 8719   7.554   2.291   8.976  0.1350  0.2110 -0.1801
  545loPI   C4B 8720   7.557   2.376   8.519 -0.6101 -0.0524  0.0120
  546loPI    C1 8721  16.388   5.194  11.150 -0.0721 -0.0235 -0.0187
  546loPI    C2 8722  16.015   5.118  11.273 -0.0859 -0.0616 -0.0837
  546loPI    C3 8723  16.318   4.893  11.404 -0.1251 -0.2223 -0.2641
  546loPI   PO4 8724  16.338   5.231  10.842  0.2596 -0.0541  0.0105
  546loPI   GL1 8725  16.127   5.297  10.402 -0.1266  0.0929 -0.1500
  546loPI   GL2 8726  16.128   4.982  10.369  0.1991  0.0897  0.1567
  546loPI   C1A 8727  16.164   5.509  10.018 -0.0865  0.0430  0.3032
  546loPI   C2A 8728  16.142   5.429   9.592 -0.0116  0.0168 -0.1687
  546loPI   C3A 8729  16.177   5.428   9.207  0.0856 -0.3807  0.2121
  546loPI   C4A 8730  16.080   5.441   8.825  0.0478  0.0676 -0.0013
  546loPI   C5A 8731  16.046   5.706   8.566 -0.2099 -0.1954 -0.1114
  546loPI   C6A 8732  16.021   5.918   8.138  0.0962  0.4824  0.0056
  546loPI   C1B 8733  16.091   4.998   9.962  0.0234 -0.0661  0.4855
  546loPI   C2B 8734  16.132   4.896   9.519  0.1493  0.0529  0.1295
  546loPI   C3B 8735  16.068   4.881   9.078 -0.0012 -0.1805  0.1223
  546loPI   C4B 8736  16.226   4.922   8.701  0.1035 -0.0292 -0.3421
  547loPI    C1 8737   6.827  16.932  10.891  0.0368  0.0346  0.0169
  547loPI    C2 8738   6.874  16.737  11.238 -0.1263  0.1747  0.1195
  547loPI    C3 8739   6.625  17.049  11.216  0.1138  0.3581 -0.0489
  547loPI   PO4 8740   6.861  16.758  10.669 -0.3311  0.1647  0.1315
  547loPI   GL1 8741   7.078  16.736  10.314  0.2427  0.1780  0.0089
  547loPI   GL2 8742   6.845  16.804  10.123  0.2174 -0.1036  0.5426
  547loPI   C1A 8743   7.340  16.575  10.020 -0.3133  0.2085 -0.3299
  547loPI   C2A 8744   7.121  16.585   9.556 -0.1765  0.0188 -0.0912
  547loPI   C3A 8745   7.159  16.621   9.088  0.0631  0.0119  0.0241
  547loPI   C4A 8746   7.302  16.606   8.660  0.1036 -0.1137 -0.0880
  547loPI   C5A 8747   7.301  16.666   8.176  0.1368 -0.1686 -0.0426
  547loPI   C6A 8748   7.086  16.372   7.757  0.2384 -0.2165 -0.0806
  547loPI   C1B 8749   6.844  16.999   9.806 -0.1708  0.2781 -0.2173
  547loPI   C2B 8750   6.711  16.933   9.374 -0.2026  0.0009  0.2591
  547loPI   C3B 8751   6.821  16.936   8.918 -0.5330 -0.2395 -0.0256
  547loPI   C4B 8752   6.924  16.907   8.539  0.0239  0.0254 -0.0407
  548loPI    C1 8753   6.243  15.914  10.620 -0.1737  0.0863 -0.0369
  548loPI    C2 8754   6.102  16.164  10.900 -0.1484  0.0784 -0.0170
  548loPI    C3 8755   6.157  15.777  10.986 -0.1964  0.0641 -0.0505
  548loPI   PO4 8756   6.105  15.929  10.450 -0.1649  0.0248  0.2117
  548loPI   GL1 8757   5.905  15.627  10.148 -0.4100  0.0688 -0.0429
  548loPI   GL2 8758   5.883  15.354  10.260 -0.2289 -0.1531 -0.0836
  548loPI   C1A 8759   6.117  15.718   9.775 -0.2848  0.0273 -0.1209
  548loPI   C2A 8760   6.160  15.755   9.331 -0.4720  0.1288  0.0281
  548loPI   C3A 8761   6.123  15.796   8.891 -0.2124  0.2048  0.1477
  548loPI   C4A 8762   6.239  15.776   8.485 -0.2199  0.1713 -0.0947
  548loPI   C5A 8763   6.147  15.540   8.131 -0.0065 -0.0462 -0.1838
  548loPI   C6A 8764   5.811  15.279   7.941 -0.1545 -0.1073  0.3118
  548loPI   C1B 8765   5.886  15.262   9.796 -0.1960 -0.0332  0.1511
  548loPI   C2B 8766   5.997  15.303   9.378 -0.0190 -0.2081  0.3520
  548loPI   C3B 8767   6.077  15.176   9.042 -0.0152  0.0244  0.0532
  548loPI   C4B 8768   6.088  15.213   8.525  0.0537 -0.2672  0.2825
  549loPI    C1 8769   7.618  11.014  11.141 -0.0842  0.1486  0.0109
  549loPI    C2 8770   7.860  11.330  11.094 -0.0608  0.1285 -0.0039
  549loPI    C3 8771   7.472  11.385  11.175 -0.0693  0.1619 -0.0671
  549loPI   PO4 8772   7.653  10.835  10.925  0.0876 -0.1083 -0.1165
  549loPI   GL1 8773   7.638  10.751  10.492  0.0856 -0.2546  0.0044
  549loPI   GL2 8774   7.713  10.963  10.197 -0.2839 -0.1869  0.0895
  549loPI   C1A 8775   7.484  10.365  10.347  0.4287  0.0435 -0.0505
  549loPI   C2A 8776   7.318  10.247   9.954  0.0360  0.0423 -0.1741
  549loPI   C3A 8777   7.299  10.235   9.544 -0.1824 -0.3649  0.0066
  549loPI   C4A 8778   7.355  10.345   9.137 -0.0259  0.3478  0.2797
  549loPI   C5A 8779   7.279  10.510   8.714  0.1242 -0.4590 -0.2508
  549loPI   C6A 8780   7.254  10.232   8.417  0.0867 -0.0766 -0.0474
  549loPI   C1B 8781   7.724  11.019   9.764 -0.1212 -0.0525  0.1876
  549loPI   C2B 8782   7.684  11.028   9.317  0.3025 -0.0397  0.2947
  549loPI   C3B 8783   7.736  11.010   8.843  0.1062  0.0118 -0.0061
  549loPI   C4B 8784   7.980  11.083   8.452  0.0432  0.0258  0.1168
  550loPI    C1 8785   3.636  10.649  10.577 -0.1950  0.1258  0.0451
  550loPI    C2 8786   3.443  10.705  10.923 -0.1501 -0.1114  0.1105
  550loPI    C3 8787   3.838  10.641  10.922 -0.1269  0.0280  0.0034
  550loPI   PO4 8788   3.553  10.486  10.404 -0.2132  0.0568  0.2275
  550loPI   GL1 8789   3.640  10.286   9.995  0.0284 -0.2485  0.2865
  550loPI   GL2 8790   3.818  10.041  10.018  0.2714 -0.2960 -0.2510
  550loPI   C1A 8791   3.726  10.507   9.756  0.3054  0.0591  0.1096
  550loPI   C2A 8792   3.805  10.587   9.419 -0.1671  0.1401  0.3879
  550loPI   C3A 8793   3.748  10.509   8.991 -0.1113 -0.2166 -0.4866
  550loPI   C4A 8794   3.794  10.506   8.592 -0.2045  0.1490  0.1531
  550loPI   C5A 8795   3.724  10.443   8.175  0.2218 -0.1224 -0.0979
  550loPI   C6A 8796   4.013  10.236   7.832  0.2056  0.0123  0.1097
  550loPI   C1B 8797   3.639   9.921   9.620  0.0533 -0.1810  0.2645
  550loPI   C2B 8798   3.635   9.934   9.220 -0.3519 -0.1204 -0.2736
  550loPI   C3B 8799   3.685   9.976   8.795  0.1265 -0.0818 -0.0438
  550loPI   C4B 8800   3.694  10.011   8.389  0.0853  0.2009 -0.2835
  551loPI    C1 8801   1.043   5.044  10.994 -0.1599 -0.0030 -0.0573
  551loPI    C2 8802   1.376   5.194  11.156 -0.1825  0.1174 -0.1212
  551loPI    C3 8803   1.033   5.202  11.362 -0.1288 -0.0855 -0.0207
  551loPI   PO4 8804   0.900   5.225  10.815  0.0660 -0.2312 -0.2063
  551loPI   GL1 8805   0.787   5.274  10.379  0.3569 -0.3470  0.1177
  551loPI   GL2 8806   1.064   5.477  10.272  0.1196 -0.0102  0.0858
  551loPI   C1A 8807   0.739   5.318   9.896 -0.0893 -0.0162 -0.0848
  551loPI   C2A 8808   0.858   5.358   9.413  0.1853 -0.0754 -0.0773
  551loPI   C3A 8809   0.791   5.300   8.952  0.0933  0.0674 -0.0258
  551loPI   C4A 8810   0.591   5.256   8.558  0.2674  0.2160  0.0785
  551loPI   C5A 8811   0.898   5.365   8.139  0.3196 -0.3028 -0.0893
  551loPI   C6A 8812   1.370   5.495   8.028 -0.0300 -0.0586 -0.0301
  551loPI   C1B 8813   1.168   5.570   9.873  0.1466 -0.0155  0.2228
  551loPI   C2B 8814   1.288   5.560   9.444 -0.0956 -0.1132 -0.0825
  551loPI   C3B 8815   1.221   5.571   9.041 -0.2424 -0.2777  0.1662
  551loPI   C4B 8816   1.230   5.652   8.545  0.0014 -0.3018 -0.1369
  552loPI    C1 8817  16.471   7.607  10.720 -0.2982 -0.0898  0.0229
  552loPI    C2 8818  16.669   7.785  11.019 -0.0132 -0.2258 -0.0809
  552loPI    C3 8819  16.424   7.478  11.096  0.0865 -0.2835  0.0089
  552loPI   PO4 8820  16.555   7.911  10.540 -0.2098 -0.0737 -0.0488
  552loPI   GL1 8821  16.644   7.929  10.116 -0.4408 -0.1311  0.0616
  552loPI   GL2 8822  16.980   8.062  10.231 -0.0328 -0.1482  0.1332
  552loPI   C1A 8823  16.583   7.795   9.691 -0.0859  0.0281 -0.0832
  552loPI   C2A 8824  16.643   7.729   9.362  0.2854 -0.1322 -0.0442
  552loPI   C3A 8825  16.723   7.696   8.907  0.1918  0.3028 -0.2224
  552loPI   C4A 8826  16.783   7.663   8.467 -0.0068 -0.1658 -0.2266
  552loPI   C5A 8827  16.913   7.911   8.109 -0.1479  0.1387  0.0773
  552loPI   C6A 8828  17.011   7.684   7.748 -0.2462 -0.0030  0.0562
  552loPI   C1B 8829  17.085   8.081   9.775 -0.2584  0.2253 -0.1542
  552loPI   C2B 8830  17.079   8.029   9.370  0.2430 -0.2379  0.0786
  552loPI   C3B 8831  17.190   7.926   8.915 -0.1998  0.3884  0.0362
  552loPI   C4B 8832  17.261   7.784   8.478  0.2773 -0.0125 -0.0424
  553loPI    C1 8833  10.446   0.173  10.562 -0.0836  0.2415  0.0678
  553loPI    C2 8834  10.287   0.175  10.929  0.0154  0.0354  0.1128
  553loPI    C3 8835  10.637   0.357  10.862 -0.0292  0.1198  0.1083
  553loPI   PO4 8836  10.377  -0.076  10.472 -0.0208  0.1186 -0.0402
  553loPI   GL1 8837  10.347  -0.383  10.131 -0.2837  0.2409 -0.1364
  553loPI   GL2 8838  10.033  -0.308  10.114 -0.1010  0.1683  0.0708
  553loPI   C1A 8839  10.324  -0.549   9.744  0.1408 -0.0863  0.0522
  553loPI   C2A 8840  10.322  -0.408   9.284  0.1125  0.0562  0.0461
  553loPI   C3A 8841  10.443  -0.143   8.899 -0.0036 -0.0143  0.0689
  553loPI   C4A 8842  10.441   0.029   8.535  0.3842  0.1338  0.1557
  553loPI   C5A 8843  10.222   0.267   8.199  0.1293 -0.0502 -0.0919
  553loPI   C6A 8844  10.033   0.244   7.769 -0.3001 -0.0977 -0.0090
  553loPI   C1B 8845  10.186  -0.060   9.746  0.0392  0.2442 -0.0978
  553loPI   C2B 8846  10.199   0.094   9.325  0.2148 -0.0071  0.0305
  553loPI   C3B 8847  10.471   0.306   9.114  0.1696 -0.0612  0.2040
  553loPI   C4B 8848  10.585   0.466   8.695 -0.1765  0.2738 -0.1397
  554loPI    C1 8849  12.358  12.034  10.799 -0.0468  0.3032  0.0930
  554loPI    C2 8850  12.215  11.934  11.159  0.0669 -0.1075  0.0292
  554loPI    C3 8851  12.134  11.705  10.841  0.3125  0.0233 -0.1303
  554loPI   PO4 8852  12.493  12.256  10.867 -0.1862  0.2082 -0.0529
  554loPI   GL1 8853  12.516  12.565  10.637 -0.0443  0.4211 -0.2500
  554loPI   GL2 8854  12.238  12.458  10.524 -0.1333 -0.2487 -0.2993
  554loPI   C1A 8855  12.709  12.822  10.368  0.1229  0.1800  0.0455
  554loPI   C2A 8856  12.637  12.869   9.949 -0.1102  0.0899  0.2067
  554loPI   C3A 8857  12.520  12.855   9.481  0.2935  0.1431  0.1772
  554loPI   C4A 8858  12.587  12.845   9.001 -0.3549 -0.1322 -0.0169
  554loPI   C5A 8859  12.506  12.842   8.609 -0.1320  0.1982  0.1345
  554loPI   C6A 8860  12.282  13.139   8.284  0.0859 -0.1938  0.1354
  554loPI   C1B 8861  12.225  12.696  10.239  0.4058 -0.0161  0.0974
  554loPI   C2B 8862  12.077  12.788   9.796  0.3247  0.0078 -0.3227
  554loPI   C3B 8863  12.073  12.689   9.296 -0.1899 -0.0693 -0.1767
  554loPI   C4B 8864  12.116  12.674   8.856  0.0869  0.2437  0.2345
  555loPI    C1 8865   9.774   0.985  10.743 -0.0251 -0.1592 -0.0102
  555loPI    C2 8866   9.536   0.666  10.781 -0.0645 -0.1198  0.0764
  555loPI    C3 8867   9.413   1.024  10.910  0.0006 -0.0795  0.0275
  555loPI   PO4 8868   9.836   1.039  10.411  0.2550  0.1287 -0.1726
  555loPI   GL1 8869   9.736   0.897  10.060  0.1387  0.0760  0.0363
  555loPI   GL2 8870   9.855   0.567   9.997 -0.1517 -0.2513  0.0085
  555loPI   C1A 8871   9.677   0.875   9.675 -0.0099 -0.3035 -0.4605
  555loPI   C2A 8872   9.627   0.859   9.195  0.1454 -0.0201  0.2338
  555loPI   C3A 8873   9.729   0.924   8.846  0.0460 -0.1907 -0.1627
  555loPI   C4A 8874   9.756   0.923   8.404  0.0010 -0.1482 -0.2107
  555loPI   C5A 8875   9.509   1.096   8.009  0.1849 -0.1183 -0.1151
  555loPI   C6A 8876   9.239   0.812   7.720 -0.1100 -0.4396  0.2395
  555loPI   C1B 8877  10.029   0.436   9.716  0.1868  0.0202 -0.3171
  555loPI   C2B 8878  10.002   0.592   9.338 -0.1594  0.2946  0.1650
  555loPI   C3B 8879  10.114   0.659   8.891  0.0172 -0.0941  0.0086
  555loPI   C4B 8880  10.280   0.720   8.421 -0.0960 -0.2593 -0.1991
  556loPI    C1 8881   9.117   1.806  10.557  0.1233  0.0338 -0.0922
  556loPI    C2 8882   8.967   2.084  10.802 -0.0292  0.0353 -0.1858
  556loPI    C3 8883   9.031   1.713  10.936  0.0004  0.0671 -0.1114
  556loPI   PO4 8884   8.956   1.831  10.353  0.3307  0.0108  0.0255
  556loPI   GL1 8885   8.813   1.912   9.987 -0.2541 -0.0253 -0.0651
  556loPI   GL2 8886   8.463   1.903   9.823  0.2580  0.2132 -0.0547
  556loPI   C1A 8887   8.893   2.013   9.587 -0.0958 -0.2416 -0.2757
  556loPI   C2A 8888   8.878   2.020   9.138  0.0638 -0.0198 -0.3746
  556loPI   C3A 8889   8.836   1.994   8.803  0.2997  0.0536  0.1797
  556loPI   C4A 8890   8.931   2.137   8.348  0.1359 -0.1208  0.0112
  556loPI   C5A 8891   8.878   2.359   8.084  0.3472 -0.1564  0.0160
  556loPI   C6A 8892   8.810   2.732   7.897  0.1851 -0.2831  0.3649
  556loPI   C1B 8893   8.371   1.752   9.422  0.1435 -0.1350  0.1473
  556loPI   C2B 8894   8.337   1.686   8.941 -0.2171 -0.3525  0.2166
  556loPI   C3B 8895   8.406   1.845   8.535  0.2025 -0.3971  0.1326
  556loPI   C4B 8896   8.545   1.881   8.099  0.1649  0.0580  0.1470
  557loPI    C1 8897   8.221  13.589  10.896 -0.2139 -0.2905  0.0465
  557loPI    C2 8898   8.124  13.772  11.238  0.0033 -0.2631  0.0949
  557loPI    C3 8899   8.417  13.500  11.233  0.3294  0.0819 -0.1573
  557loPI   PO4 8900   8.273  13.776  10.709 -0.3962  0.1659  0.1765
  557loPI   GL1 8901   8.193  13.973  10.343 -0.3292 -0.0536 -0.3198
  557loPI   GL2 8902   8.252  13.702  10.056 -0.2259 -0.2114 -0.0108
  557loPI   C1A 8903   8.182  14.121   9.836 -0.2464  0.0686 -0.0217
  557loPI   C2A 8904   8.097  14.138   9.417  0.0087 -0.1084  0.2572
  557loPI   C3A 8905   8.183  14.195   9.044  0.0341  0.0907 -0.0365
  557loPI   C4A 8906   8.095  14.159   8.626 -0.1322  0.1303  0.0263
  557loPI   C5A 8907   8.112  14.085   8.171 -0.1563 -0.0373 -0.0623
  557loPI   C6A 8908   7.946  13.904   7.777  0.2027 -0.2137 -0.0364
  557loPI   C1B 8909   8.112  13.626   9.709  0.0614 -0.1480  0.0051
  557loPI   C2B 8910   8.026  13.630   9.280 -0.0292  0.0323 -0.0832
  557loPI   C3B 8911   8.050  13.668   8.857 -0.2143 -0.2774  0.2740
  557loPI   C4B 8912   8.164  13.698   8.423 -0.0666 -0.0288  0.2389
  558loPI    C1 8913   4.472  16.066  11.138  0.2407 -0.3087  0.2403
  558loPI    C2 8914   4.141  16.252  11.264  0.1823 -0.1899 -0.0780
  558loPI    C3 8915   4.501  16.415  11.331  0.1571 -0.1632 -0.0061
  558loPI   PO4 8916   4.362  16.031  10.892  0.1978  0.1586  0.2180
  558loPI   GL1 8917   4.345  16.226  10.415  0.0876 -0.1234  0.0924
  558loPI   GL2 8918   4.498  16.537  10.418  0.0676 -0.0288  0.2413
  558loPI   C1A 8919   4.298  16.052  10.004  0.3461  0.1115 -0.1296
  558loPI   C2A 8920   4.242  15.981   9.524 -0.3029  0.0375  0.2169
  558loPI   C3A 8921   4.369  16.085   9.109 -0.3295 -0.1036 -0.1947
  558loPI   C4A 8922   4.497  16.018   8.702  0.1037  0.1248 -0.1710
  558loPI   C5A 8923   4.352  16.205   8.302  0.1973  0.0224  0.1987
  558loPI   C6A 8924   4.593  16.670   8.168  0.2328 -0.0132  0.2919
  558loPI   C1B 8925   4.409  16.559   9.946 -0.1630  0.0378 -0.5135
  558loPI   C2B 8926   4.416  16.605   9.497 -0.2471 -0.1106 -0.1850
  558loPI   C3B 8927   4.439  16.641   9.028  0.0029 -0.1364 -0.3265
  558loPI   C4B 8928   4.492  16.534   8.650  0.0400  0.1606  0.0163
  559loPI    C1 8929  10.191   4.341  11.158 -0.0466 -0.0186  0.1112
  559loPI    C2 8930   9.837   4.472  11.292 -0.1402 -0.1358 -0.0195
  559loPI    C3 8931  10.064   4.239  11.524 -0.0626  0.0926  0.1373
  559loPI   PO4 8932  10.146   4.319  10.865 -0.1965 -0.0230  0.2644
  559loPI   GL1 8933  10.350   4.553  10.589  0.2382 -0.0833 -0.0696
  559loPI   GL2 8934  10.295   4.821  10.571 -0.0194 -0.1504 -0.2948
  559loPI   C1A 8935  10.371   4.256  10.280  0.1924  0.4400  0.0351
  559loPI   C2A 8936  10.326   4.149   9.934 -0.2166 -0.2433 -0.2341
  559loPI   C3A 8937  10.329   4.260   9.477  0.0021 -0.0036 -0.3238
  559loPI   C4A 8938  10.341   4.346   9.104  0.0107  0.2749  0.0779
  559loPI   C5A 8939  10.299   4.437   8.627  0.1189  0.1167 -0.0405
  559loPI   C6A 8940  10.319   4.769   8.373  0.0647  0.1918 -0.0226
  559loPI   C1B 8941  10.303   4.761  10.148 -0.2298 -0.0029 -0.2537
  559loPI   C2B 8942  10.294   4.692   9.772 -0.0736  0.0856  0.2641
  559loPI   C3B 8943  10.350   4.895   9.383 -0.1626 -0.0232  0.1757
  559loPI   C4B 8944  10.407   4.834   8.976 -0.0158 -0.0768  0.1464
  560loPI    C1 8945   3.839   4.087  10.910 -0.0236 -0.1817  0.0522
  560loPI    C2 8946   3.987   4.259  11.240  0.2092  0.0809 -0.1831
  560loPI    C3 8947   3.755   3.934  11.270  0.0619  0.2189  0.2483
  560loPI   PO4 8948   3.788   4.365  10.786 -0.0606  0.1378  0.2945
  560loPI   GL1 8949   3.832   4.509  10.312 -0.1933  0.0171 -0.0574
  560loPI   GL2 8950   3.990   4.775  10.441 -0.0466 -0.0490 -0.2341
  560loPI   C1A 8951   3.971   4.466   9.974 -0.0289 -0.1210  0.2430
  560loPI   C2A 8952   4.022   4.404   9.533 -0.0080  0.2743 -0.1107
  560loPI   C3A 8953   3.929   4.471   9.132  0.2140 -0.0591 -0.2587
  560loPI   C4A 8954   3.970   4.517   8.605  0.1774 -0.1564  0.2158
  560loPI   C5A 8955   4.278   4.521   8.318  0.1670 -0.0852  0.0105
  560loPI   C6A 8956   4.802   4.442   8.169 -0.2589 -0.0317 -0.0440
  560loPI   C1B 8957   3.929   5.011  10.057  0.0802 -0.0761  0.1734
  560loPI   C2B 8958   4.061   4.914   9.651  0.0991 -0.0434  0.2355
  560loPI   C3B 8959   3.948   4.945   9.242  0.0396 -0.1841 -0.0475
  560loPI   C4B 8960   3.957   5.015   8.763  0.0410  0.0946 -0.0101
  561loPI    C1 8961  17.086   6.679  10.965  0.0535 -0.0890 -0.0240
  561loPI    C2 8962  17.031   6.676  11.361  0.1034 -0.3679 -0.0167
  561loPI    C3 8963  17.401   6.653  11.211  0.1061  0.0116 -0.0798
  561loPI   PO4 8964  16.900   6.809  10.899  0.1229 -0.0901  0.0096
  561loPI   GL1 8965  16.962   6.972  10.513  0.1280  0.2104  0.2319
  561loPI   GL2 8966  16.773   6.693  10.456 -0.0763  0.1035  0.1466
  561loPI   C1A 8967  17.054   7.103  10.153  0.0257 -0.0403 -0.0756
  561loPI   C2A 8968  17.029   6.980   9.736 -0.0733  0.4497  0.1179
  561loPI   C3A 8969  17.015   6.849   9.325 -0.3304 -0.2165 -0.3099
  561loPI   C4A 8970  17.079   6.926   8.867 -0.3014  0.3328  0.2332
  561loPI   C5A 8971  17.230   6.990   8.469 -0.1280  0.3245 -0.0020
  561loPI   C6A 8972  17.409   6.818   8.101  0.4214  0.3006 -0.1193
  561loPI   C1B 8973  16.636   6.810  10.054  0.0195 -0.1832  0.2130
  561loPI   C2B 8974  16.596   6.681   9.578  0.1616  0.3832  0.3372
  561loPI   C3B 8975  16.639   6.625   9.080 -0.0236  0.0628 -0.1462
  561loPI   C4B 8976  16.621   6.655   8.584  0.0933  0.0788 -0.1429
  562loPI    C1 8977   0.040   4.587  11.350  0.1953 -0.1143 -0.1539
  562loPI    C2 8978   0.071   4.345  11.667  0.0253  0.0374 -0.0195
  562loPI    C3 8979   0.029   4.739  11.719 -0.0438  0.0593 -0.2304
  562loPI   PO4 8980   0.112   4.506  11.070  0.1205 -0.2229  0.0744
  562loPI   GL1 8981   0.171   4.604  10.618 -0.1416  0.3978 -0.0755
  562loPI   GL2 8982  -0.043   4.474  10.489  0.1583 -0.3022 -0.0122
  562loPI   C1A 8983   0.353   4.620  10.244  0.0981  0.1772 -0.0072
  562loPI   C2A 8984   0.348   4.638   9.746  0.0513 -0.3639 -0.0034
  562loPI   C3A 8985   0.313   4.526   9.295  0.0833  0.0459  0.1496
  562loPI   C4A 8986   0.328   4.461   8.873  0.1992  0.0903 -0.1365
  562loPI   C5A 8987   0.213   4.306   8.433  0.1469  0.3490  0.2914
  562loPI   C6A 8988  -0.179   4.027   8.373 -0.1825 -0.1484  0.1868
  562loPI   C1B 8989  -0.096   4.411   9.979 -0.0929  0.1428  0.0687
  562loPI   C2B 8990  -0.063   4.284   9.647  0.0317 -0.2236  0.0239
  562loPI   C3B 8991  -0.137   4.338   9.276  0.1074 -0.1804 -0.0196
  562loPI   C4B 8992  -0.190   4.257   8.863  0.0192  0.0805  0.1740
  563loPI    C1 8993   0.789   5.784  10.964 -0.1318 -0.0060  0.0192
  563loPI    C2 8994   1.086   5.665  11.204 -0.0512 -0.1754 -0.1613
  563loPI    C3 8995   0.938   6.035  11.237  0.1892 -0.0844 -0.0787
  563loPI   PO4 8996   0.862   5.734  10.715  0.0188 -0.1222  0.0382
  563loPI   GL1 8997   0.699   5.809  10.318 -0.0497  0.0371  0.1647
  563loPI   GL2 8998   0.401   5.638  10.166 -0.1033  0.0079 -0.2850
  563loPI   C1A 8999   0.746   5.825   9.886 -0.0877 -0.0496  0.0972
  563loPI   C2A 9000   0.871   5.895   9.526  0.0331  0.2206  0.0362
  563loPI   C3A 9001   0.765   5.823   9.041 -0.2252  0.0427 -0.1935
  563loPI   C4A 9002   0.793   5.761   8.711  0.0365  0.1076 -0.0746
  563loPI   C5A 9003   0.640   5.763   8.204  0.0987 -0.1442  0.1363
  563loPI   C6A 9004   0.421   5.986   7.742  0.0093  0.5259 -0.0290
  563loPI   C1B 9005   0.282   5.599   9.766 -0.0480  0.1094 -0.0218
  563loPI   C2B 9006   0.373   5.498   9.379 -0.0605  0.0466 -0.0748
  563loPI   C3B 9007   0.345   5.540   8.948  0.1929  0.3457  0.0412
  563loPI   C4B 9008   0.307   5.645   8.535 -0.1536 -0.1261  0.0901
  564loPI    C1 9009  13.417  13.310  11.294 -0.1418  0.0294  0.1211
  564loPI    C2 9010  13.717  13.203  11.537 -0.0897 -0.0973  0.0024
  564loPI    C3 9011  13.468  13.498  11.643  0.1624  0.1055  0.0381
  564loPI   PO4 9012  13.534  13.383  11.056  0.0416 -0.3528  0.1759
  564loPI   GL1 9013  13.389  13.454  10.634 -0.0903 -0.1473  0.2803
  564loPI   GL2 9014  13.162  13.613  10.484 -0.0602 -0.2101  0.2265
  564loPI   C1A 9015  13.507  13.337  10.188 -0.0089  0.1608 -0.1966
  564loPI   C2A 9016  13.580  13.346   9.735 -0.0950  0.2555 -0.3234
  564loPI   C3A 9017  13.562  13.297   9.304  0.1006 -0.2101 -0.0656
  564loPI   C4A 9018  13.503  13.258   8.918  0.1711 -0.0867 -0.2452
  564loPI   C5A 9019  13.559  13.147   8.556  0.1082  0.1747  0.0991
  564loPI   C6A 9020  13.642  13.131   8.136  0.1188  0.0133 -0.1765
  564loPI   C1B 9021  13.128  13.626  10.000 -0.0987  0.1633  0.0002
  564loPI   C2B 9022  13.133  13.568   9.509  0.1091 -0.0006  0.0209
  564loPI   C3B 9023  13.139  13.597   9.074  0.2494  0.0640 -0.1320
  564loPI   C4B 9024  13.079  13.518   8.661  0.1401 -0.0207 -0.0900
  565loPI    C1 9025  12.129  15.528  10.877 -0.1141 -0.1033 -0.0305
  565loPI    C2 9026  12.204  15.372  11.238 -0.0551 -0.1848 -0.0778
  565loPI    C3 9027  11.897  15.623  11.189 -0.0043 -0.0968  0.0501
  565loPI   PO4 9028  12.304  15.554  10.725 -0.2194 -0.0531  0.2878
  565loPI   GL1 9029  12.334  15.338  10.385  0.0697  0.0997 -0.2627
  565loPI   GL2 9030  12.115  15.079  10.349 -0.1621 -0.2201  0.1271
  565loPI   C1A 9031  12.550  15.221   9.959 -0.0858 -0.0140  0.0015
  565loPI   C2A 9032  12.506  15.183   9.502 -0.0871  0.1996  0.5106
  565loPI   C3A 9033  12.574  15.186   9.073  0.0584  0.2591  0.1210
  565loPI   C4A 9034  12.563  15.145   8.631 -0.1537  0.0178 -0.0529
  565loPI   C5A 9035  12.454  14.865   8.170  0.3378 -0.0984 -0.2432
  565loPI   C6A 9036  12.251  14.605   7.918  0.2233 -0.0188 -0.2023
  565loPI   C1B 9037  12.051  15.049   9.956  0.4344 -0.1757  0.0087
  565loPI   C2B 9038  12.023  15.001   9.524  0.0084  0.2471 -0.3423
  565loPI   C3B 9039  12.092  15.086   9.073 -0.2472  0.0861 -0.0465
  565loPI   C4B 9040  12.079  15.011   8.559 -0.0754 -0.3704  0.1361
  566loPI    C1 9041   1.593  11.808  10.241  0.1659  0.0080 -0.0573
  566loPI    C2 9042   1.390  11.820  10.585  0.2888  0.1106  0.0127
  566loPI    C3 9043   1.789  11.842  10.588  0.3055 -0.1420 -0.1201
  566loPI   PO4 9044   1.509  11.584  10.138 -0.0276 -0.2860 -0.0553
  566loPI   GL1 9045   1.273  11.542   9.792  0.1391  0.3751 -0.1066
  566loPI   GL2 9046   0.936  11.510   9.745 -0.2025  0.1286  0.0598
  566loPI   C1A 9047   1.375  11.339   9.499 -0.1992  0.1867 -0.1004
  566loPI   C2A 9048   1.386  11.304   9.113 -0.0639  0.0958 -0.0749
  566loPI   C3A 9049   1.494  11.258   8.698 -0.1973 -0.2565  0.0413
  566loPI   C4A 9050   1.664  11.373   8.317  0.0706 -0.2353 -0.0967
  566loPI   C5A 9051   1.487  11.393   7.885  0.2217 -0.0664 -0.1090
  566loPI   C6A 9052   1.182  11.543   7.499 -0.1352  0.1914 -0.0609
  566loPI   C1B 9053   0.936  11.594   9.267 -0.1402  0.1185 -0.3254
  566loPI   C2B 9054   0.776  11.669   8.850 -0.2493 -0.1135  0.2762
  566loPI   C3B 9055   0.821  11.752   8.391 -0.1197 -0.0103  0.3061
  566loPI   C4B 9056   0.578  11.833   8.023 -0.1543 -0.3166 -0.0514
  567loPI    C1 9057  10.323   2.271  11.008 -0.1478 -0.1290 -0.0509
  567loPI    C2 9058  10.435   2.584  11.231 -0.1720  0.0140 -0.2371
  567loPI    C3 9059  10.588   2.221  11.304 -0.0823  0.0839 -0.0721
  567loPI   PO4 9060  10.392   2.338  10.735  0.2556  0.2950 -0.1434
  567loPI   GL1 9061  10.517   2.076  10.383 -0.1053  0.1798 -0.0923
  567loPI   GL2 9062  10.772   2.088  10.345 -0.0519 -0.1512  0.0428
  567loPI   C1A 9063  10.280   2.075  10.051  0.0302  0.0227 -0.2831
  567loPI   C2A 9064  10.206   2.167   9.613 -0.2418  0.0005 -0.2979
  567loPI   C3A 9065  10.212   2.222   9.205 -0.0893 -0.1672 -0.0587
  567loPI   C4A 9066  10.161   2.192   8.817  0.1485 -0.2032  0.4581
  567loPI   C5A 9067  10.303   2.246   8.425 -0.0445 -0.0665  0.1305
  567loPI   C6A 9068  10.226   2.514   8.088  0.2603 -0.0548 -0.0269
  567loPI   C1B 9069  10.751   2.336  10.007 -0.1343  0.1123  0.0288
  567loPI   C2B 9070  10.659   2.383   9.583 -0.0434  0.1911 -0.0317
  567loPI   C3B 9071  10.701   2.453   9.157  0.0280 -0.0224 -0.2214
  567loPI   C4B 9072  10.682   2.416   8.779 -0.1433  0.1535 -0.0667
  568loPI    C1 9073  10.958   3.223  11.068 -0.1602 -0.2003  0.2115
  568loPI    C2 9074  10.722   3.453  11.295  0.0995  0.1671  0.1193
  568loPI    C3 9075  11.083   3.343  11.429 -0.0212 -0.1903  0.1608
  568loPI   PO4 9076  10.942   3.317  10.887 -0.0733 -0.0801  0.2617
  568loPI   GL1 9077  10.986   3.214  10.477 -0.1885  0.1687  0.2138
  568loPI   GL2 9078  10.843   3.399  10.411  0.1004  0.0323 -0.2749
  568loPI   C1A 9079  11.150   3.034  10.130  0.0344 -0.0398 -0.0897
  568loPI   C2A 9080  11.249   3.240   9.634 -0.3956 -0.1329 -0.1084
  568loPI   C3A 9081  11.179   3.199   9.200 -0.2553  0.0597 -0.2126
  568loPI   C4A 9082  11.218   3.237   8.708 -0.0532  0.3123  0.0669
  568loPI   C5A 9083  10.947   3.274   8.360  0.0168 -0.1395  0.2329
  568loPI   C6A 9084  10.625   3.569   8.277  0.0613  0.2496 -0.1033
  568loPI   C1B 9085  10.727   3.398  10.043  0.0665  0.0898 -0.0917
  568loPI   C2B 9086  10.795   3.462   9.638  0.0552 -0.0543 -0.0187
  568loPI   C3B 9087  10.699   3.469   9.272 -0.0123  0.0485 -0.0668
  568loPI   C4B 9088  10.652   3.544   8.863 -0.2113  0.1049  0.1547
  569loPI    C1 9089   4.286   9.431  10.596 -0.1301  0.1552 -0.1519
  569loPI    C2 9090   4.470   9.595  10.911 -0.0058  0.1151 -0.2029
  569loPI    C3 9091   4.087   9.682  10.835 -0.0358  0.1263 -0.0421
  569loPI   PO4 9092   4.528   9.475  10.330 -0.0795 -0.2200  0.0922
  569loPI   GL1 9093   4.564   9.458   9.879 -0.0029  0.0583 -0.2652
  569loPI   GL2 9094   4.851   9.599   9.923  0.1724  0.0839 -0.0418
  569loPI   C1A 9095   4.595   9.366   9.464  0.0635  0.0967  0.1585
  569loPI   C2A 9096   4.701   9.348   9.115  0.3005  0.0017  0.0103
  569loPI   C3A 9097   4.629   9.337   8.635 -0.0304  0.0033  0.1991
  569loPI   C4A 9098   4.799   9.209   8.258 -0.1893  0.3762  0.0096
  569loPI   C5A 9099   4.509   9.229   7.877 -0.1665 -0.2417  0.3617
  569loPI   C6A 9100   4.326   9.086   7.515 -0.0043  0.0462  0.1323
  569loPI   C1B 9101   5.039   9.645   9.624  0.0779  0.1051 -0.0356
  569loPI   C2B 9102   5.165   9.586   9.225  0.0076  0.1355  0.0431
  569loPI   C3B 9103   5.084   9.576   8.788  0.3467  0.3885 -0.0475
  569loPI   C4B 9104   5.020   9.673   8.429  0.1559  0.4526 -0.2828
  570loPI    C1 9105   3.576   1.370  10.843 -0.2675  0.1306 -0.1067
  570loPI    C2 9106   3.803   1.689  10.761 -0.1957  0.0972 -0.0388
  570loPI    C3 9107   3.606   1.668  11.108 -0.3166  0.1337 -0.1044
  570loPI   PO4 9108   3.436   1.325  10.649 -0.0775 -0.2407  0.0055
  570loPI   GL1 9109   3.397   1.147  10.232 -0.0839  0.0212 -0.2820
  570loPI   GL2 9110   3.169   1.375  10.219  0.2369 -0.2233 -0.2722
  570loPI   C1A 9111   3.419   1.054   9.845  0.3897  0.1759  0.0405
  570loPI   C2A 9112   3.360   1.169   9.464  0.2643  0.0645  0.2389
  570loPI   C3A 9113   3.328   1.160   9.062  0.0972  0.2312  0.3354
  570loPI   C4A 9114   3.293   1.073   8.583 -0.0937  0.2426  0.4745
  570loPI   C5A 9115   3.220   0.904   8.146 -0.2691  0.1312 -0.1077
  570loPI   C6A 9116   3.230   0.749   7.742  0.1610  0.0491  0.2068
  570loPI   C1B 9117   2.953   1.427   9.782  0.1156  0.0734  0.1079
  570loPI   C2B 9118   2.974   1.486   9.323 -0.0594 -0.0055  0.2946
  570loPI   C3B 9119   2.857   1.410   8.950 -0.0234  0.0103  0.2461
  570loPI   C4B 9120   2.784   1.564   8.513  0.1365 -0.0311 -0.0450
  571loPI    C1 9121   3.005  12.996  10.558  0.1382  0.2648  0.0282
  571loPI    C2 9122   2.929  13.264  10.845 -0.2137 -0.1950  0.3820
  571loPI    C3 9123   3.210  12.986  10.902 -0.0697 -0.1009  0.1471
  571loPI   PO4 9124   2.961  13.162  10.328 -0.3072 -0.5902  0.1645
  571loPI   GL1 9125   3.043  13.536  10.172  0.2338  0.0365 -0.0949
  571loPI   GL2 9126   2.815  13.400   9.920 -0.2271  0.1984  0.1727
  571loPI   C1A 9127   3.092  13.869   9.833  0.2686 -0.0428 -0.0198
  571loPI   C2A 9128   3.095  14.144   9.523 -0.3959  0.0246  0.2395
  571loPI   C3A 9129   3.091  14.119   9.085 -0.0634  0.2129 -0.0629
  571loPI   C4A 9130   3.109  14.113   8.716 -0.0505  0.0026 -0.3392
  571loPI   C5A 9131   3.186  14.210   8.371 -0.2164  0.0381  0.1681
  571loPI   C6A 9132   3.459  14.415   8.101 -0.0301 -0.1505  0.1028
  571loPI   C1B 9133   2.971  13.426   9.544 -0.2099 -0.1957 -0.0201
  571loPI   C2B 9134   2.984  13.684   9.225 -0.1192  0.3503  0.1679
  571loPI   C3B 9135   2.985  13.607   8.823 -0.1204  0.0807  0.0247
  571loPI   C4B 9136   2.973  13.638   8.463  0.0688  0.0053  0.2426
  572loPI    C1 9137   1.019   2.501  11.114 -0.0315  0.2552  0.0562
  572loPI    C2 9138   1.115   2.163  11.306 -0.0226  0.0759 -0.2581
  572loPI    C3 9139   1.096   2.508  11.507 -0.0218 -0.1078  0.0645
  572loPI   PO4 9140   0.833   2.401  10.915 -0.0134  0.0488  0.0859
  572loPI   GL1 9141   0.729   2.338  10.530  0.1554 -0.3963  0.0982
  572loPI   GL2 9142   0.697   2.071  10.408  0.0135 -0.2068  0.6474
  572loPI   C1A 9143   1.109   2.456  10.211 -0.0528 -0.0859  0.2531
  572loPI   C2A 9144   1.107   2.420   9.723  0.0599 -0.2854 -0.0971
  572loPI   C3A 9145   1.139   2.483   9.331  0.0345 -0.0863 -0.2938
  572loPI   C4A 9146   1.182   2.277   8.881 -0.1950  0.0083  0.0908
  572loPI   C5A 9147   1.372   2.247   8.556  0.1520 -0.2623 -0.1564
  572loPI   C6A 9148   1.808   2.116   8.413  0.1196  0.0416 -0.2822
  572loPI   C1B 9149   0.696   2.179   9.935  0.2898 -0.0824 -0.1225
  572loPI   C2B 9150   0.732   2.181   9.441 -0.0330  0.2345  0.0719
  572loPI   C3B 9151   0.754   2.045   9.064  0.3834 -0.0265 -0.0063
  572loPI   C4B 9152   0.806   1.939   8.650  0.3803 -0.1139 -0.1260
  573loPI    C1 9153  13.902   7.640  11.016  0.3183 -0.0930 -0.2018
  573loPI    C2 9154  13.681   7.430  11.275  0.1506  0.0557 -0.2225
  573loPI    C3 9155  14.004   7.629  11.402 -0.0254  0.2644 -0.0934
  573loPI   PO4 9156  13.829   7.422  10.740 -0.0943 -0.1546 -0.2360
  573loPI   GL1 9157  13.860   7.272  10.228 -0.0983 -0.0771 -0.1330
  573loPI   GL2 9158  13.586   7.029  10.387 -0.1056 -0.0389 -0.1582
  573loPI   C1A 9159  13.923   7.351   9.792  0.1536  0.2522  0.2665
  573loPI   C2A 9160  13.939   7.385   9.354  0.0593  0.2759  0.1441
  573loPI   C3A 9161  14.018   7.286   8.957  0.0146  0.1379 -0.1115
  573loPI   C4A 9162  13.978   7.269   8.544 -0.1106  0.0223  0.0747
  573loPI   C5A 9163  13.560   7.358   8.230 -0.1256 -0.0990  0.0256
  573loPI   C6A 9164  13.151   7.106   8.117  0.0883  0.0689  0.1652
  573loPI   C1B 9165  13.421   7.080   9.937  0.0187 -0.2117  0.0538
  573loPI   C2B 9166  13.466   7.073   9.594  0.1299 -0.0831  0.0129
  573loPI   C3B 9167  13.524   7.040   9.252 -0.2556 -0.0301  0.1660
  573loPI   C4B 9168  13.632   7.068   8.824  0.3028  0.1046  0.0352
  574loPI    C1 9169  12.889  17.851  11.192 -0.0953  0.2407 -0.2829
  574loPI    C2 9170  13.192  18.043  11.369  0.0527 -0.1425 -0.1095
  574loPI    C3 9171  12.815  18.159  11.436  0.1351  0.0368  0.0525
  574loPI   PO4 9172  12.904  17.853  10.939 -0.4276 -0.1780  0.1920
  574loPI   GL1 9173  13.090  17.929  10.525  0.0507 -0.1505 -0.0366
  574loPI   GL2 9174  13.163  18.244  10.484 -0.2467  0.1976 -0.0518
  574loPI   C1A 9175  13.093  17.748  10.061 -0.0762 -0.1227  0.0135
  574loPI   C2A 9176  13.101  17.800   9.636 -0.0277 -0.2700  0.2539
  574loPI   C3A 9177  13.059  17.816   9.174 -0.3205 -0.1620 -0.3221
  574loPI   C4A 9178  13.058  17.904   8.766  0.2207 -0.1554 -0.2722
  574loPI   C5A 9179  13.275  18.008   8.428  0.0121  0.0081  0.1658
  574loPI   C6A 9180  13.509  18.342   8.340 -0.0473  0.0156  0.0888
  574loPI   C1B 9181  13.142  18.268  10.060 -0.0065  0.1372 -0.1666
  574loPI   C2B 9182  13.258  18.336   9.641  0.1507 -0.2354 -0.1564
  574loPI   C3B 9183  13.237  18.358   9.274  0.0663 -0.1057 -0.5077
  574loPI   C4B 9184  13.206  18.404   8.781 -0.0579 -0.1651  0.0272
  575loPI    C1 9185   9.844   2.252  10.961 -0.1537 -0.0717 -0.1281
  575loPI    C2 9186   9.846   2.616  11.126 -0.1927 -0.0926 -0.0815
  575loPI    C3 9187   9.984   2.302  11.332 -0.0920 -0.0925 -0.1486
  575loPI   PO4 9188   9.765   2.392  10.671  0.2480  0.0436 -0.3158
  575loPI   GL1 9189   9.963   2.376  10.341 -0.1182  0.0799  0.2966
  575loPI   GL2 9190  10.186   2.481  10.262 -0.1139 -0.2299 -0.0799
  575loPI   C1A 9191   9.820   2.376   9.897 -0.0639  0.0935  0.1686
  575loPI   C2A 9192   9.759   2.441   9.594 -0.2957 -0.0066 -0.0696
  575loPI   C3A 9193   9.776   2.473   9.212 -0.0145  0.4015 -0.1995
  575loPI   C4A 9194   9.810   2.554   8.807 -0.2786 -0.0879  0.2377
  575loPI   C5A 9195   9.835   2.504   8.387 -0.1542  0.1253  0.0352
  575loPI   C6A 9196   9.716   2.769   8.083  0.0607  0.0772  0.4198
  575loPI   C1B 9197  10.350   2.585   9.886 -0.1112  0.0449 -0.0065
  575loPI   C2B 9198  10.315   2.675   9.437 -0.2701 -0.3307  0.0630
  575loPI   C3B 9199  10.183   2.724   9.076  0.0056  0.1286 -0.2012
  575loPI   C4B 9200  10.303   2.687   8.689  0.0434 -0.0800 -0.1027
  576loPI    C1 9201  12.722  15.271  10.846 -0.2017 -0.1520  0.0009
  576loPI    C2 9202  13.003  15.249  11.129 -0.0285  0.1854 -0.1401
  576loPI    C3 9203  12.650  15.069  11.184  0.1111 -0.0052  0.1588
  576loPI   PO4 9204  12.829  15.322  10.612 -0.3032 -0.1258  0.0712
  576loPI   GL1 9205  12.957  15.679  10.344  0.2046 -0.3022 -0.0384
  576loPI   GL2 9206  12.665  15.614  10.242 -0.0325 -0.1517 -0.0565
  576loPI   C1A 9207  13.079  15.425   9.987 -0.0939 -0.0685  0.2723
  576loPI   C2A 9208  12.964  15.408   9.602 -0.0707 -0.0947 -0.0668
  576loPI   C3A 9209  13.011  15.462   9.184  0.2056 -0.0616  0.0298
  576loPI   C4A 9210  13.011  15.521   8.747 -0.0575 -0.3000  0.1709
  576loPI   C5A 9211  13.000  15.362   8.384  0.0527  0.2286 -0.0008
  576loPI   C6A 9212  13.070  15.037   8.011  0.2296  0.0076 -0.0496
  576loPI   C1B 9213  12.675  15.724   9.838  0.0151  0.1733 -0.2721
  576loPI   C2B 9214  12.626  15.680   9.424  0.0061 -0.1370  0.0254
  576loPI   C3B 9215  12.642  15.732   8.990  0.0787 -0.1436 -0.1270
  576loPI   C4B 9216  12.613  15.725   8.546 -0.0225  0.3450  0.0864
  577loPI    C1 9217   8.463   3.983  10.595  0.3809 -0.2418 -0.0651
  577loPI    C2 9218   8.495   3.728  10.902 -0.0794 -0.0576  0.1447
  577loPI    C3 9219   8.445   4.119  10.971  0.1010  0.0247 -0.1712
  577loPI   PO4 9220   8.676   4.062  10.487 -0.2689  0.1989  0.1195
  577loPI   GL1 9221   8.922   3.958  10.142  0.0092 -0.1552  0.3522
  577loPI   GL2 9222   8.631   3.870  10.007  0.0212  0.0898  0.2655
  577loPI   C1A 9223   8.971   4.029   9.658 -0.0033  0.2027  0.0296
  577loPI   C2A 9224   9.050   4.086   9.244  0.2955  0.1365  0.0875
  577loPI   C3A 9225   8.941   4.130   8.827 -0.2360 -0.2095  0.2101
  577loPI   C4A 9226   8.989   4.152   8.372 -0.0811 -0.0313  0.1160
  577loPI   C5A 9227   8.930   3.740   8.049 -0.1619 -0.0693  0.0789
  577loPI   C6A 9228   8.616   3.632   7.903  0.1651  0.1248 -0.0135
  577loPI   C1B 9229   8.546   3.777   9.687  0.0290  0.0715  0.3874
  577loPI   C2B 9230   8.579   3.896   9.266 -0.0326  0.1782  0.1537
  577loPI   C3B 9231   8.426   3.828   8.861  0.1719  0.0440  0.2242
  577loPI   C4B 9232   8.444   3.817   8.416 -0.0167  0.0348 -0.0707
  578loPI    C1 9233  17.766  11.905  10.350  0.0106  0.2820 -0.1724
  578loPI    C2 9234  17.719  11.626  10.633 -0.1891  0.0849 -0.3950
  578loPI    C3 9235  17.903  11.971  10.720  0.1408 -0.1494 -0.1391
  578loPI   PO4 9236  17.753  11.818  10.164 -0.0603  0.4924  0.2268
  578loPI   GL1 9237  17.702  11.977   9.814 -0.1738  0.0812  0.2819
  578loPI   GL2 9238  17.807  12.281   9.684 -0.0484 -0.2508  0.0051
  578loPI   C1A 9239  17.529  11.882   9.370 -0.2357 -0.1108  0.0668
  578loPI   C2A 9240  17.363  11.769   8.917 -0.1963 -0.1176 -0.1901
  578loPI   C3A 9241  17.209  11.531   8.654  0.2503  0.2227  0.0967
  578loPI   C4A 9242  17.117  11.433   8.326  0.0239  0.2798 -0.0200
  578loPI   C5A 9243  17.308  11.398   7.947 -0.0286 -0.1884  0.0400
  578loPI   C6A 9244  17.356  11.027   7.666  0.2812 -0.4085  0.1148
  578loPI   C1B 9245  17.581  12.378   9.395 -0.0216  0.3055 -0.1418
  578loPI   C2B 9246  17.321  12.292   9.056  0.3528 -0.2126  0.3591
  578loPI   C3B 9247  16.979  12.231   8.714 -0.0082 -0.2364  0.1314
  578loPI   C4B 9248  16.777  11.867   8.443  0.1690 -0.0085  0.0997
  579loPI    C1 9249   3.138   5.370  11.224 -0.1508 -0.0498  0.0951
  579loPI    C2 9250   2.744   5.362  11.289 -0.1440 -0.2403  0.1186
  579loPI    C3 9251   2.995   5.220  11.566 -0.0354  0.2198  0.2645
  579loPI   PO4 9252   3.087   5.248  10.911  0.1880 -0.2138 -0.0408
  579loPI   GL1 9253   3.216   5.286  10.487 -0.0294  0.3837 -0.0956
  579loPI   GL2 9254   3.456   5.423  10.288 -0.1251 -0.1471 -0.0847
  579loPI   C1A 9255   3.037   5.109  10.089  0.0741 -0.0023  0.3318
  579loPI   C2A 9256   3.104   5.006   9.640 -0.0395  0.0639 -0.0053
  579loPI   C3A 9257   3.050   5.005   9.306  0.3011 -0.6262 -0.1109
  579loPI   C4A 9258   3.099   4.980   8.887  0.0259  0.0799 -0.1538
  579loPI   C5A 9259   3.052   5.060   8.418  0.1544  0.0433 -0.2108
  579loPI   C6A 9260   3.248   5.185   8.057  0.0845  0.1933  0.0120
  579loPI   C1B 9261   3.493   5.312   9.899  0.1714 -0.3836  0.0430
  579loPI   C2B 9262   3.520   5.206   9.403 -0.1612  0.1374 -0.0627
  579loPI   C3B 9263   3.527   5.236   9.020 -0.3050 -0.1186  0.1524
  579loPI   C4B 9264   3.568   5.233   8.520  0.0231 -0.0385  0.1961
  580loPI    C1 9265   1.791   0.344  10.891 -0.0313 -0.0735  0.1848
  580loPI    C2 9266   2.184   0.416  10.905 -0.0120 -0.1536  0.0693
  580loPI    C3 9267   1.967   0.423  11.241  0.0442  0.1329  0.1022
  580loPI   PO4 9268   1.769   0.378  10.620 -0.1995 -0.1299  0.0727
  580loPI   GL1 9269   1.857   0.207  10.234 -0.0913 -0.4117  0.0761
  580loPI   GL2 9270   1.675  -0.060  10.274  0.0829 -0.0131 -0.0878
  580loPI   C1A 9271   1.996  -0.056   9.836  0.0647  0.1998  0.0362
  580loPI   C2A 9272   1.927   0.022   9.488  0.1468 -0.0256 -0.2663
  580loPI   C3A 9273   1.937  -0.029   9.092  0.1149  0.0772  0.0287
  580loPI   C4A 9274   1.835   0.056   8.626 -0.1238  0.1319 -0.0931
  580loPI   C5A 9275   2.224   0.138   8.263  0.1836 -0.1049  0.0798
  580loPI   C6A 9276   2.551   0.261   7.871  0.2607  0.0802 -0.1382
  580loPI   C1B 9277   1.503  -0.235   9.903  0.0747  0.2504  0.1449
  580loPI   C2B 9278   1.517  -0.194   9.443  0.2879  0.0428 -0.2225
  580loPI   C3B 9279   1.458  -0.133   8.955 -0.3153 -0.1848  0.1760
  580loPI   C4B 9280   1.380  -0.201   8.611  0.0225 -0.3520 -0.2403
  581loPI    C1 9281  14.677   9.112  11.302 -0.0191  0.0183 -0.0674
  581loPI    C2 9282  14.668   9.452  11.513 -0.1304  0.0331 -0.0950
  581loPI    C3 9283  14.500   9.121  11.661  0.1125 -0.0505 -0.0002
  581loPI   PO4 9284  14.784   9.225  10.996  0.1391 -0.0736 -0.1171
  581loPI   GL1 9285  14.742   9.078  10.560  0.2047 -0.0821 -0.0446
  581loPI   GL2 9286  14.740   8.732  10.498  0.1135  0.2561  0.0718
  581loPI   C1A 9287  14.768   9.362  10.240  0.1271  0.2232 -0.0184
  581loPI   C2A 9288  14.871   9.459   9.763  0.2328 -0.0200  0.0416
  581loPI   C3A 9289  14.813   9.391   9.413 -0.2204 -0.2226  0.0308
  581loPI   C4A 9290  14.900   9.379   8.977 -0.2096 -0.0413  0.1206
  581loPI   C5A 9291  14.879   9.284   8.482 -0.3426  0.4250  0.2123
  581loPI   C6A 9292  14.674   9.312   8.252  0.3248  0.0674 -0.2635
  581loPI   C1B 9293  14.562   8.695  10.055 -0.1500 -0.0475 -0.2906
  581loPI   C2B 9294  14.414   8.625   9.758 -0.1392 -0.2740  0.1195
  581loPI   C3B 9295  14.388   8.586   9.391 -0.0899  0.0916  0.1542
  581loPI   C4B 9296  14.481   8.656   9.002 -0.0638 -0.3857  0.3406
  582loPI    C1 9297  14.330   8.939  11.012 -0.0126  0.1860 -0.0517
  582loPI    C2 9298  13.987   8.834  11.190  0.0748 -0.1234 -0.0598
  582loPI    C3 9299  14.144   9.197  11.255 -0.1413 -0.0589  0.1135
  582loPI   PO4 9300  14.331   8.840  10.800 -0.1307  0.0633  0.1544
  582loPI   GL1 9301  14.267   8.983  10.331 -0.1158 -0.1225 -0.0713
  582loPI   GL2 9302  13.946   8.843  10.328  0.1225 -0.0349  0.0541
  582loPI   C1A 9303  14.417   9.159   9.900 -0.0487  0.0677  0.0666
  582loPI   C2A 9304  14.360   9.169   9.493  0.0531 -0.1373  0.4767
  582loPI   C3A 9305  14.473   9.137   9.146  0.1076 -0.0574  0.2177
  582loPI   C4A 9306  14.484   9.154   8.776  0.2604  0.0487  0.3180
  582loPI   C5A 9307  14.210   9.097   8.282  0.3389 -0.2005 -0.2698
  582loPI   C6A 9308  13.851   9.054   8.052 -0.2533 -0.1715  0.0904
  582loPI   C1B 9309  13.980   8.961   9.877 -0.0520 -0.3615 -0.1701
  582loPI   C2B 9310  13.940   8.915   9.529 -0.1848 -0.1684 -0.2343
  582loPI   C3B 9311  13.937   8.863   9.120 -0.1158  0.0905 -0.0050
  582loPI   C4B 9312  14.065   8.897   8.672 -0.0279  0.2169 -0.1447
  583loPI    C1 9313  14.399   7.534  10.949  0.1456 -0.0243 -0.3452
  583loPI    C2 9314  14.608   7.865  10.870  0.2526 -0.0185 -0.0503
  583loPI    C3 9315  14.357   7.857  11.181  0.1438 -0.1694 -0.1410
  583loPI   PO4 9316  14.350   7.487  10.685 -0.0353 -0.0259 -0.2352
  583loPI   GL1 9317  14.232   7.606  10.266 -0.1885  0.0271 -0.2355
  583loPI   GL2 9318  14.538   7.789  10.373  0.0120  0.2624 -0.0147
  583loPI   C1A 9319  14.286   7.670   9.879  0.1358  0.0661  0.0951
  583loPI   C2A 9320  14.363   7.577   9.448 -0.0920 -0.3639  0.3120
  583loPI   C3A 9321  14.509   7.565   9.010 -0.1846  0.1809  0.1779
  583loPI   C4A 9322  14.402   7.481   8.623 -0.1046 -0.0063  0.2638
  583loPI   C5A 9323  14.259   7.403   8.134  0.1579  0.1049  0.0564
  583loPI   C6A 9324  14.227   7.421   7.729 -0.0850 -0.1006 -0.0508
  583loPI   C1B 9325  14.792   7.796  10.008  0.1477  0.1933 -0.1819
  583loPI   C2B 9326  14.834   7.778   9.584 -0.3308 -0.0400 -0.2894
  583loPI   C3B 9327  14.972   7.803   9.127  0.1480  0.0606 -0.1166
  583loPI   C4B 9328  14.877   7.766   8.718 -0.0937  0.0658  0.1581
  584loPI    C1 9329   4.281  14.136  10.455 -0.4806 -0.0582  0.0137
  584loPI    C2 9330   4.191  14.113  10.844 -0.0366  0.1263  0.1335
  584loPI    C3 9331   4.283  14.466  10.681  0.0323  0.0117 -0.0803
  584loPI   PO4 9332   4.161  14.067  10.290  0.2212  0.0470  0.1086
  584loPI   GL1 9333   4.250  14.263   9.925 -0.0088 -0.1132 -0.2006
  584loPI   GL2 9334   4.399  13.964   9.791 -0.1529 -0.3601  0.1232
  584loPI   C1A 9335   4.126  14.520   9.532  0.1251 -0.0027 -0.1983
  584loPI   C2A 9336   4.092  14.476   9.109 -0.1062 -0.1008  0.0907
  584loPI   C3A 9337   4.067  14.572   8.643  0.2038 -0.0637  0.0675
  584loPI   C4A 9338   4.027  14.713   8.186  0.1057 -0.0630  0.0583
  584loPI   C5A 9339   3.880  15.131   7.896 -0.0968 -0.3452  0.1382
  584loPI   C6A 9340   3.699  15.130   7.511 -0.1392  0.2721  0.1999
  584loPI   C1B 9341   4.407  14.090   9.331  0.0999 -0.0438 -0.1873
  584loPI   C2B 9342   4.486  14.259   8.985  0.0512  0.0313  0.0668
  584loPI   C3B 9343   4.560  14.201   8.616  0.0624 -0.2175 -0.1103
  584loPI   C4B 9344   4.399  14.139   8.221  0.3217 -0.1566  0.0659
  585loPI    C1 9345   9.078  12.699  10.552 -0.1168 -0.5621 -0.1681
  585loPI    C2 9346   9.051  12.601  10.939  0.1542 -0.2822 -0.0745
  585loPI    C3 9347   8.737  12.764  10.751  0.1371 -0.0776  0.1271
  585loPI   PO4 9348   9.138  12.471  10.410 -0.1355  0.0273 -0.1302
  585loPI   GL1 9349   9.192  12.385  10.001  0.0615  0.1428  0.1676
  585loPI   GL2 9350   8.876  12.352   9.914  0.2093  0.1329  0.2414
  585loPI   C1A 9351   9.330  12.595   9.616  0.3342  0.0339  0.1406
  585loPI   C2A 9352   9.360  12.661   9.147 -0.0244  0.2292  0.1464
  585loPI   C3A 9353   9.344  12.850   8.824  0.0079  0.0354 -0.1861
  585loPI   C4A 9354   9.378  12.924   8.380 -0.3570  0.0994 -0.1972
  585loPI   C5A 9355   9.231  12.612   8.039  0.4383 -0.0471  0.0039
  585loPI   C6A 9356   9.194  12.313   7.773 -0.0893 -0.0982 -0.1072
  585loPI   C1B 9357   8.846  12.442   9.516 -0.0362  0.2263  0.0425
  585loPI   C2B 9358   8.865  12.394   9.151  0.1258 -0.1895 -0.0084
  585loPI   C3B 9359   8.887  12.587   8.864  0.1366  0.2485  0.1878
  585loPI   C4B 9360   8.827  12.595   8.542  0.3278  0.0822 -0.0573
  586loPI    C1 9361  17.624  10.024  10.769 -0.1098  0.1854 -0.1031
  586loPI    C2 9362  17.579  10.273  11.079 -0.0178 -0.0336  0.0897
  586loPI    C3 9363  17.404   9.914  11.084  0.0154 -0.0539 -0.0970
  586loPI   PO4 9364  17.673  10.164  10.601  0.3186 -0.1960 -0.1406
  586loPI   GL1 9365  17.564  10.298  10.179 -0.1116 -0.0276 -0.1866
  586loPI   GL2 9366  17.391  10.181  10.208 -0.0705  0.0308 -0.1517
  586loPI   C1A 9367  17.669  10.319   9.789  0.1477 -0.0265 -0.4899
  586loPI   C2A 9368  17.530  10.243   9.426 -0.0268  0.0090 -0.0931
  586loPI   C3A 9369  17.714  10.253   9.036 -0.1093 -0.1752  0.1945
  586loPI   C4A 9370  17.737  10.266   8.603  0.1058 -0.1873  0.2457
  586loPI   C5A 9371  17.761  10.180   8.280  0.0937  0.0975  0.0477
  586loPI   C6A 9372  17.658   9.718   8.204  0.0289 -0.1429  0.0820
  586loPI   C1B 9373  17.174  10.153   9.766 -0.0832 -0.1770 -0.0040
  586loPI   C2B 9374  17.077  10.099   9.319 -0.3492 -0.1855 -0.2377
  586loPI   C3B 9375  17.212  10.020   8.990 -0.0618  0.2542 -0.2489
  586loPI   C4B 9376  17.227   9.904   8.605 -0.2736 -0.0367  0.0135
  587loPI    C1 9377   3.669  15.593  10.755  0.1736  0.2290 -0.0247
  587loPI    C2 9378   3.730  15.204  10.688  0.0662  0.2219 -0.0838
  587loPI    C3 9379   3.600  15.327  11.046 -0.0667  0.1857 -0.1188
  587loPI   PO4 9380   3.524  15.653  10.616 -0.0204 -0.2649 -0.0922
  587loPI   GL1 9381   3.411  15.868  10.328  0.1732 -0.2384 -0.0762
  587loPI   GL2 9382   3.446  16.107  10.160 -0.1814  0.0757  0.0543
  587loPI   C1A 9383   3.320  15.639   9.945  0.1747 -0.1265 -0.0868
  587loPI   C2A 9384   3.330  15.534   9.600  0.2756  0.0652  0.1687
  587loPI   C3A 9385   3.381  15.609   9.213 -0.0498 -0.1728 -0.0516
  587loPI   C4A 9386   3.381  15.705   8.799  0.1224  0.1578  0.2451
  587loPI   C5A 9387   3.315  15.776   8.296 -0.1722 -0.1474  0.1151
  587loPI   C6A 9388   3.107  15.731   7.889 -0.0742 -0.0872  0.1431
  587loPI   C1B 9389   3.404  16.160   9.691 -0.0357 -0.1982 -0.0156
  587loPI   C2B 9390   3.494  16.200   9.270  0.3116 -0.1256  0.2040
  587loPI   C3B 9391   3.452  16.227   8.827  0.0250  0.3315 -0.2375
  587loPI   C4B 9392   3.415  16.459   8.433 -0.1943  0.2649 -0.2111
  588loPI    C1 9393  10.959   2.584  11.157  0.1076 -0.1534  0.0574
  588loPI    C2 9394  11.212   2.848  11.320  0.0044 -0.0389  0.0337
  588loPI    C3 9395  11.029   2.577  11.550  0.0619 -0.0488  0.0678
  588loPI   PO4 9396  10.853   2.729  10.974 -0.2899  0.0656  0.0944
  588loPI   GL1 9397  10.934   2.589  10.570  0.2442 -0.2566 -0.0509
  588loPI   GL2 9398  10.634   2.619  10.461  0.0710  0.1320  0.0212
  588loPI   C1A 9399  11.169   2.527  10.173  0.3738  0.0687 -0.2527
  588loPI   C2A 9400  11.179   2.639   9.753 -0.1107 -0.1713  0.3278
  588loPI   C3A 9401  11.115   2.620   9.373  0.3495  0.0684  0.0643
  588loPI   C4A 9402  11.118   2.720   8.954 -0.3864  0.1925 -0.0303
  588loPI   C5A 9403  11.211   2.757   8.576  0.1235 -0.1514  0.0764
  588loPI   C6A 9404  11.143   2.937   8.104 -0.3590  0.2007 -0.1349
  588loPI   C1B 9405  10.675   2.872  10.130 -0.3103 -0.0728 -0.0864
  588loPI   C2B 9406  10.752   2.927   9.668  0.2874 -0.4203  0.0869
  588loPI   C3B 9407  10.670   2.948   9.157  0.0825  0.0673 -0.3071
  588loPI   C4B 9408  10.781   2.997   8.730 -0.1184 -0.2272 -0.0235
  589loPI    C1 9409   1.831   7.548  10.846  0.0236 -0.0698 -0.1662
  589loPI    C2 9410   2.136   7.741  11.020 -0.0586  0.0301 -0.1316
  589loPI    C3 9411   1.824   7.621  11.239 -0.0208 -0.1182 -0.1579
  589loPI   PO4 9412   1.771   7.749  10.693 -0.3300  0.2348 -0.0029
  589loPI   GL1 9413   1.785   8.072  10.453 -0.2392 -0.3095  0.0747
  589loPI   GL2 9414   2.003   7.942  10.269 -0.0797 -0.2091 -0.2349
  589loPI   C1A 9415   1.741   8.415  10.076 -0.1327 -0.2744  0.1263
  589loPI   C2A 9416   1.864   8.487   9.626  0.0915 -0.0679 -0.2157
  589loPI   C3A 9417   1.847   8.536   9.258 -0.3809 -0.0867 -0.2662
  589loPI   C4A 9418   1.946   8.472   8.841  0.0806  0.1327  0.2584
  589loPI   C5A 9419   1.898   8.507   8.391  0.1603 -0.0509 -0.0517
  589loPI   C6A 9420   1.655   8.522   7.954 -0.1657 -0.0124  0.0366
  589loPI   C1B 9421   1.846   8.013   9.852 -0.0340  0.1881 -0.3586
  589loPI   C2B 9422   1.791   7.978   9.461 -0.0037 -0.1533 -0.2458
  589loPI   C3B 9423   1.831   7.984   9.047  0.0168 -0.1960 -0.1421
  589loPI   C4B 9424   1.813   7.948   8.594  0.2445  0.0242 -0.2551
  590loPI    C1 9425  11.345   0.436  10.811  0.1813  0.1565 -0.0762
  590loPI    C2 9426  11.330   0.796  10.986 -0.0564  0.1286 -0.0362
  590loPI    C3 9427  11.094   0.500  11.116  0.0343 -0.0006 -0.1624
  590loPI   PO4 9428  11.684   0.449  10.763 -0.3213 -0.2078 -0.0282
  590loPI   GL1 9429  11.900   0.392  10.410 -0.1869 -0.0048  0.2800
  590loPI   GL2 9430  11.658   0.331  10.260 -0.1633  0.0319  0.1541
  590loPI   C1A 9431  12.143   0.067  10.174  0.2999 -0.0636  0.1112
  590loPI   C2A 9432  12.205   0.016   9.721 -0.3546 -0.0535  0.0073
  590loPI   C3A 9433  12.289   0.039   9.259 -0.1866 -0.1681 -0.0474
  590loPI   C4A 9434  12.235  -0.053   8.850  0.1214  0.0685 -0.0142
  590loPI   C5A 9435  12.526  -0.054   8.609 -0.0804  0.1971  0.1090
  590loPI   C6A 9436  12.740   0.349   8.548  0.1286 -0.1302 -0.0010
  590loPI   C1B 9437  11.792   0.310   9.766  0.0722  0.0364 -0.0444
  590loPI   C2B 9438  11.863   0.246   9.348  0.2544  0.1787 -0.2597
  590loPI   C3B 9439  11.909   0.323   9.001  0.1136  0.1438 -0.0409
  590loPI   C4B 9440  11.829   0.667   8.816 -0.2740 -0.0547 -0.0198
  591loPI    C1 9441  12.354   5.456  11.089  0.0393  0.0385  0.0974
  591loPI    C2 9442  12.086   5.195  11.228 -0.2132  0.1320 -0.2017
  591loPI    C3 9443  12.051   5.584  11.316  0.0879  0.0879  0.1348
  591loPI   PO4 9444  12.340   5.432  10.872 -0.2319 -0.1271 -0.1138
  591loPI   GL1 9445  12.217   5.708  10.522 -0.3825 -0.1006  0.1925
  591loPI   GL2 9446  11.937   5.875  10.585 -0.2260  0.0224  0.0293
  591loPI   C1A 9447  12.133   5.768  10.058 -0.1447 -0.1661  0.0537
  591loPI   C2A 9448  12.158   5.724   9.579  0.4011  0.0624 -0.0912
  591loPI   C3A 9449  12.213   5.811   9.201 -0.2306 -0.1497 -0.0611
  591loPI   C4A 9450  12.211   5.785   8.759  0.1571 -0.0290  0.0415
  591loPI   C5A 9451  11.726   5.725   8.568 -0.2298  0.1252 -0.1847
  591loPI   C6A 9452  11.292   5.534   8.473  0.1214 -0.1311  0.2353
  591loPI   C1B 9453  11.736   5.656  10.352 -0.1963  0.1426 -0.1354
  591loPI   C2B 9454  11.681   5.423   9.979 -0.2472  0.0904  0.0105
  591loPI   C3B 9455  11.737   5.495   9.582 -0.0827 -0.1842 -0.0471
  591loPI   C4B 9456  11.714   5.566   9.246  0.1879  0.2138  0.2032
  592loPI    C1 9457   6.364  16.842  10.645 -0.0488 -0.0413  0.3472
  592loPI    C2 9458   6.387  17.241  10.641 -0.1433 -0.0361  0.2225
  592loPI    C3 9459   6.185  17.055  10.932 -0.2746  0.0176  0.1665
  592loPI   PO4 9460   6.434  16.836  10.378 -0.0429  0.0877  0.2673
  592loPI   GL1 9461   6.350  16.851   9.887  0.0049 -0.0839  0.2633
  592loPI   GL2 9462   6.288  16.554   9.970 -0.1483  0.3283  0.0311
  592loPI   C1A 9463   6.212  16.763   9.514  0.0510  0.3329  0.0554
  592loPI   C2A 9464   6.325  16.817   9.079  0.1186 -0.0493 -0.0185
  592loPI   C3A 9465   6.424  16.710   8.637  0.1285 -0.0677  0.1647
  592loPI   C4A 9466   6.547  16.779   8.202  0.0074 -0.1444  0.2631
  592loPI   C5A 9467   6.892  16.943   7.936  0.0335  0.1124 -0.0573
  592loPI   C6A 9468   7.276  17.033   7.656 -0.1294 -0.1707  0.2342
  592loPI   C1B 9469   6.236  16.218   9.639  0.0432 -0.2666  0.0168
  592loPI   C2B 9470   6.249  16.290   9.183 -0.2186  0.1257 -0.0378
  592loPI   C3B 9471   6.298  16.253   8.719 -0.1492 -0.2006  0.1872
  592loPI   C4B 9472   6.326  16.254   8.258 -0.1371 -0.0505  0.1854
  593loPI    C1 9473  16.938   5.253  11.094  0.0131  0.1329  0.1335
  593loPI    C2 9474  16.785   5.098  11.429 -0.0141 -0.0099  0.0558
  593loPI    C3 9475  16.775   5.493  11.369 -0.0613  0.0109  0.1965
  593loPI   PO4 9476  16.819   5.148  10.898  0.2564  0.1445  0.1253
  593loPI   GL1 9477  16.708   5.097  10.510  0.2839  0.0225  0.0565
  593loPI   GL2 9478  16.953   4.865  10.414 -0.1945  0.1253 -0.0168
  593loPI   C1A 9479  16.550   5.193  10.126  0.0784 -0.0655 -0.1394
  593loPI   C2A 9480  16.598   5.105   9.653  0.2456  0.3857  0.1911
  593loPI   C3A 9481  16.552   5.131   9.151  0.1042  0.2241  0.1304
  593loPI   C4A 9482  16.618   5.218   8.755 -0.1904  0.1381  0.1239
  593loPI   C5A 9483  16.742   5.065   8.318 -0.0226  0.1524  0.0505
  593loPI   C6A 9484  16.610   4.818   7.977  0.0952  0.2599 -0.1154
  593loPI   C1B 9485  16.959   4.889   9.976  0.0235  0.0418  0.2514
  593loPI   C2B 9486  17.073   4.852   9.607  0.0425 -0.1312 -0.0994
  593loPI   C3B 9487  17.011   4.812   9.159 -0.1329 -0.1407  0.0046
  593loPI   C4B 9488  16.987   4.873   8.727 -0.1946 -0.0680 -0.1496
  594loPI    C1 9489   9.973  16.788  10.557  0.3753  0.3150 -0.3083
  594loPI    C2 9490  10.348  16.725  10.682  0.2886  0.3893 -0.0017
  594loPI    C3 9491  10.098  16.946  10.903 -0.1287 -0.1832  0.1218
  594loPI   PO4 9492   9.966  16.576  10.374 -0.3350  0.1168  0.1723
  594loPI   GL1 9493   9.841  16.527  10.007 -0.3169  0.2910  0.1028
  594loPI   GL2 9494   9.535  16.417  10.022 -0.1290 -0.1049 -0.1812
  594loPI   C1A 9495   9.936  16.752   9.675  0.3376  0.1175 -0.2177
  594loPI   C2A 9496  10.080  16.721   9.192 -0.3052  0.1484  0.3215
  594loPI   C3A 9497  10.155  16.842   8.736 -0.0120 -0.1275  0.0274
  594loPI   C4A 9498  10.000  17.070   8.400  0.0367  0.1669 -0.0023
  594loPI   C5A 9499   9.977  17.402   8.103  0.2086  0.0102  0.1150
  594loPI   C6A 9500   9.774  17.788   7.915 -0.0363  0.0868 -0.2985
  594loPI   C1B 9501   9.438  16.480   9.636 -0.1280 -0.4031 -0.0438
  594loPI   C2B 9502   9.524  16.528   9.204 -0.2743 -0.2191  0.5632
  594loPI   C3B 9503   9.739  16.543   8.845  0.0553 -0.3672 -0.0430
  594loPI   C4B 9504   9.705  16.466   8.319  0.1822  0.0305  0.0798
  595loPI    C1 9505  14.467  17.508  11.355  0.1228  0.0808 -0.0628
  595loPI    C2 9506  14.725  17.410  11.645  0.0912  0.1388 -0.0147
  595loPI    C3 9507  14.335  17.329  11.687  0.1683 -0.4417 -0.3176
  595loPI   PO4 9508  14.629  17.491  11.092  0.1011 -0.2909 -0.1468
  595loPI   GL1 9509  14.680  17.626  10.691 -0.0568  0.1390 -0.2568
  595loPI   GL2 9510  14.809  17.381  10.450 -0.0663 -0.2053  0.0509
  595loPI   C1A 9511  14.496  17.812  10.305 -0.2758 -0.1373 -0.2963
  595loPI   C2A 9512  14.512  17.796   9.886  0.0814  0.2654 -0.1041
  595loPI   C3A 9513  14.475  17.786   9.427 -0.1784 -0.1542 -0.0466
  595loPI   C4A 9514  14.519  17.997   8.989  0.1080 -0.1118 -0.1691
  595loPI   C5A 9515  14.550  18.114   8.580 -0.3986 -0.1518  0.1524
  595loPI   C6A 9516  14.396  18.540   8.309 -0.1925 -0.3837  0.1216
  595loPI   C1B 9517  14.901  17.518  10.024 -0.2053  0.0960  0.0676
  595loPI   C2B 9518  14.858  17.440   9.572 -0.0612 -0.0702 -0.2437
  595loPI   C3B 9519  14.849  17.475   9.043 -0.0813  0.0033  0.0392
  595loPI   C4B 9520  14.752  17.603   8.584 -0.0941 -0.0816  0.3732
  596loPI    C1 9521  12.814   4.451  11.144  0.0963  0.1138  0.1232
  596loPI    C2 9522  12.719   4.726  11.418 -0.0817  0.2119 -0.0349
  596loPI    C3 9523  12.445   4.460  11.298  0.0129  0.1317 -0.0744
  596loPI   PO4 9524  12.904   4.604  10.963 -0.1022 -0.0667 -0.0358
  596loPI   GL1 9525  12.697   4.770  10.617  0.4083  0.1277 -0.2053
  596loPI   GL2 9526  13.063   4.729  10.501 -0.0088 -0.2006  0.4143
  596loPI   C1A 9527  12.545   4.889  10.244  0.1730 -0.0472 -0.3690
  596loPI   C2A 9528  12.559   4.876   9.866 -0.1193  0.0496  0.0088
  596loPI   C3A 9529  12.532   5.020   9.434 -0.3883 -0.0446  0.0177
  596loPI   C4A 9530  12.511   5.033   9.052  0.0203 -0.0135 -0.1104
  596loPI   C5A 9531  12.471   5.159   8.656 -0.3099 -0.1295 -0.1655
  596loPI   C6A 9532  12.165   5.320   8.407 -0.0828 -0.1567 -0.1031
  596loPI   C1B 9533  12.995   4.757  10.135  0.0475  0.0775 -0.0650
  596loPI   C2B 9534  12.998   4.634   9.673  0.1260  0.2492 -0.1686
  596loPI   C3B 9535  12.898   4.729   9.200 -0.0948 -0.0286 -0.2205
  596loPI   C4B 9536  12.901   4.824   8.794 -0.3827  0.0327 -0.1551
  597loPI    C1 9537   9.459  11.708  10.826 -0.1973 -0.2661  0.2605
  597loPI    C2 9538   9.367  11.851  11.188  0.2618 -0.0906  0.3140
  597loPI    C3 9539   9.668  11.591  11.147  0.2388 -0.0779  0.0532
  597loPI   PO4 9540   9.376  11.636  10.590  0.2098  0.0881  0.0518
  597loPI   GL1 9541   9.209  11.440  10.092  0.4922 -0.4708 -0.1018
  597loPI   GL2 9542   9.522  11.637  10.129  0.0601  0.0845 -0.2899
  597loPI   C1A 9543   9.034  11.417   9.709  0.3164 -0.0413 -0.1201
  597loPI   C2A 9544   9.111  11.345   9.265  0.1077 -0.1533  0.0913
  597loPI   C3A 9545   9.353  11.543   8.956  0.2546  0.1317  0.2852
  597loPI   C4A 9546   9.380  11.889   8.613  0.0440  0.3683 -0.2717
  597loPI   C5A 9547   9.374  11.982   8.132 -0.1681  0.0435 -0.0026
  597loPI   C6A 9548   9.373  11.813   7.777  0.2815  0.0860  0.0943
  597loPI   C1B 9549   9.556  11.494   9.761  0.2109 -0.1211  0.2927
  597loPI   C2B 9550   9.634  11.353   9.370  0.0934 -0.3686 -0.0512
  597loPI   C3B 9551   9.698  11.215   8.986 -0.1309 -0.2182  0.0500
  597loPI   C4B 9552   9.564  11.093   8.658 -0.0741 -0.2463  0.2761
  598loPI    C1 9553  13.618  12.262  11.145  0.0722 -0.1876  0.0243
  598loPI    C2 9554  13.362  12.446  11.391  0.0138 -0.1774 -0.0438
  598loPI    C3 9555  13.658  12.223  11.541  0.1948  0.1160  0.0452
  598loPI   PO4 9556  13.406  12.143  10.922  0.1002  0.1571 -0.0715
  598loPI   GL1 9557  13.320  12.256  10.528 -0.1452  0.2266 -0.0652
  598loPI   GL2 9558  13.020  12.437  10.531  0.0783 -0.1286  0.2076
  598loPI   C1A 9559  13.453  12.329  10.036  0.2296 -0.2569  0.1193
  598loPI   C2A 9560  13.399  12.347   9.547 -0.2073  0.0164  0.0097
  598loPI   C3A 9561  13.425  12.273   9.113  0.1798  0.1833  0.0869
  598loPI   C4A 9562  13.460  12.163   8.707 -0.4145 -0.0015 -0.2139
  598loPI   C5A 9563  13.338  12.289   8.294  0.0768  0.1134 -0.1832
  598loPI   C6A 9564  13.415  12.665   8.015  0.0122  0.3779 -0.0698
  598loPI   C1B 9565  12.964  12.485  10.170 -0.3154  0.3161 -0.4369
  598loPI   C2B 9566  13.077  12.592   9.793  0.0178 -0.2308  0.1206
  598loPI   C3B 9567  12.921  12.590   9.347 -0.0524  0.1298 -0.2460
  598loPI   C4B 9568  13.034  12.452   8.895  0.1119  0.2348 -0.0008
  599loPI    C1 9569  11.473   8.544  11.207 -0.0539 -0.0108 -0.1819
  599loPI    C2 9570  11.383   8.759  11.532  0.0004 -0.2818  0.0159
  599loPI    C3 9571  11.439   8.365  11.563  0.0801 -0.2987 -0.3114
  599loPI   PO4 9572  11.379   8.575  11.049  0.0675 -0.2255  0.2618
  599loPI   GL1 9573  11.537   8.754  10.682  0.2098  0.0743  0.0540
  599loPI   GL2 9574  11.489   9.090  10.512 -0.0259  0.1246  0.1756
  599loPI   C1A 9575  11.711   8.624  10.292  0.1441 -0.2109  0.1062
  599loPI   C2A 9576  11.673   8.668   9.869 -0.0143  0.0877 -0.1244
  599loPI   C3A 9577  11.735   8.621   9.424  0.1621  0.0373  0.0541
  599loPI   C4A 9578  11.676   8.559   8.978 -0.0744  0.0862 -0.0851
  599loPI   C5A 9579  11.614   8.564   8.545  0.0483  0.1678  0.2396
  599loPI   C6A 9580  11.858   8.540   8.188 -0.0271 -0.3532  0.0455
  599loPI   C1B 9581  11.282   8.879  10.127 -0.3829  0.1215 -0.1587
  599loPI   C2B 9582  11.244   8.896   9.681  0.0008  0.0134  0.1018
  599loPI   C3B 9583  11.325   8.904   9.321 -0.1361 -0.0391 -0.1303
  599loPI   C4B 9584  11.272   8.802   8.797  0.0076 -0.3075 -0.1481
  600loPI    C1 9585  12.086  12.453  11.051  0.0373 -0.0444  0.0722
  600loPI    C2 9586  12.008  12.533  11.435  0.1331 -0.0492  0.0932
  600loPI    C3 9587  12.358  12.368  11.333  0.2020  0.1643 -0.0209
  600loPI   PO4 9588  11.935  12.272  10.880  0.0255  0.1708 -0.0169
  600loPI   GL1 9589  11.898  12.010  10.504 -0.1986 -0.1193 -0.1569
  600loPI   GL2 9590  11.632  12.001  10.468  0.0484  0.1347  0.0203
  600loPI   C1A 9591  12.037  12.223  10.109 -0.0389 -0.2251 -0.1747
  600loPI   C2A 9592  12.003  12.214   9.706  0.0922 -0.0794 -0.2338
  600loPI   C3A 9593  12.027  12.229   9.261 -0.0276  0.0286 -0.0859
  600loPI   C4A 9594  12.043  12.192   8.814  0.0349  0.0086  0.1954
  600loPI   C5A 9595  12.112  12.363   8.462  0.3967  0.1201  0.3238
  600loPI   C6A 9596  12.242  12.613   8.145 -0.1065  0.1898  0.2452
  600loPI   C1B 9597  11.685  11.903   9.964  0.2435  0.0389  0.3145
  600loPI   C2B 9598  11.590  11.962   9.451 -0.1908  0.0834 -0.0106
  600loPI   C3B 9599  11.484  11.975   8.946  0.1642  0.2001 -0.0574
  600loPI   C4B 9600  11.646  11.933   8.477 -0.1041  0.1102 -0.1069
  601loPI    C1 9601  16.072   8.089  10.747 -0.1447 -0.0841 -0.1024
  601loPI    C2 9602  16.074   8.296  11.089  0.1891  0.0370 -0.1738
  601loPI    C3 9603  16.175   7.909  11.089 -0.2654 -0.0874 -0.0673
  601loPI   PO4 9604  15.923   8.074  10.630  0.2114 -0.1372 -0.0511
  601loPI   GL1 9605  15.673   8.139  10.267  0.1107 -0.2096  0.0249
  601loPI   GL2 9606  15.619   7.818  10.211  0.0308  0.2524  0.2784
  601loPI   C1A 9607  15.809   8.351   9.905  0.1794  0.1240  0.0646
  601loPI   C2A 9608  15.750   8.291   9.489  0.2118 -0.3327  0.1255
  601loPI   C3A 9609  15.822   8.221   9.010 -0.2245  0.2041  0.2326
  601loPI   C4A 9610  15.680   8.340   8.576  0.2125  0.0457  0.2113
  601loPI   C5A 9611  15.660   8.474   8.203  0.1490  0.1218 -0.3826
  601loPI   C6A 9612  15.935   8.739   8.025 -0.3681 -0.1378  0.0651
  601loPI   C1B 9613  15.780   7.844   9.776  0.1395 -0.2475  0.0918
  601loPI   C2B 9614  15.763   7.825   9.367  0.0313 -0.0261  0.0387
  601loPI   C3B 9615  15.730   7.688   9.031 -0.0013 -0.2229  0.3386
  601loPI   C4B 9616  15.716   7.782   8.637  0.1202  0.0996 -0.1367
  602loPI    C1 9617  10.311   9.368  11.274  0.1487 -0.1192  0.1465
  602loPI    C2 9618  10.215   9.102  11.557 -0.0667 -0.0849  0.1070
  602loPI    C3 9619  10.126   9.488  11.608 -0.0209 -0.0645  0.0340
  602loPI   PO4 9620  10.539   9.174  11.136  0.2440 -0.0694 -0.1697
  602loPI   GL1 9621  10.432   9.138  10.751  0.0359  0.0046  0.0551
  602loPI   GL2 9622  10.197   9.122  10.648  0.1557 -0.0634  0.1285
  602loPI   C1A 9623  10.400   9.468  10.399 -0.1487  0.0082  0.1376
  602loPI   C2A 9624  10.338   9.478   9.972 -0.2710 -0.2711  0.0038
  602loPI   C3A 9625  10.426   9.446   9.501  0.2964  0.0519  0.0167
  602loPI   C4A 9626  10.429   9.560   9.060  0.2194  0.0683 -0.1206
  602loPI   C5A 9627  10.475   9.514   8.630 -0.1439  0.1215  0.1759
  602loPI   C6A 9628  10.706   9.500   8.306  0.4427 -0.2969  0.1068
  602loPI   C1B 9629  10.341   8.947  10.269  0.2628  0.2174  0.0111
  602loPI   C2B 9630  10.351   8.982   9.773 -0.2670 -0.1034 -0.2886
  602loPI   C3B 9631  10.355   8.996   9.357  0.2963 -0.0150 -0.0652
  602loPI   C4B 9632  10.398   9.058   8.956 -0.1012  0.0967 -0.0672
  603loPI    C1 9633   6.729  11.905  11.006 -0.0839 -0.2412  0.0329
  603loPI    C2 9634   7.018  12.177  11.060 -0.1242 -0.1700 -0.1063
  603loPI    C3 9635   7.107  11.787  11.068 -0.1067 -0.1624  0.3415
  603loPI   PO4 9636   6.655  11.992  10.722 -0.1961  0.0357 -0.1200
  603loPI   GL1 9637   6.720  11.878  10.258 -0.0866  0.2153  0.2027
  603loPI   GL2 9638   6.885  11.625  10.199  0.0819 -0.2136  0.0376
  603loPI   C1A 9639   6.508  11.886   9.943 -0.1636  0.3081  0.1102
  603loPI   C2A 9640   6.527  11.897   9.480 -0.1353 -0.0058  0.2953
  603loPI   C3A 9641   6.512  11.988   9.057 -0.1000  0.0208 -0.1310
  603loPI   C4A 9642   6.474  11.999   8.650  0.0082  0.0564 -0.0864
  603loPI   C5A 9643   6.496  11.900   8.242  0.1905 -0.0516  0.3888
  603loPI   C6A 9644   6.390  11.845   7.970  0.1840  0.1473 -0.0757
  603loPI   C1B 9645   6.958  11.640   9.707 -0.1257  0.1487 -0.1468
  603loPI   C2B 9646   6.958  11.615   9.247 -0.0365 -0.0306  0.2019
  603loPI   C3B 9647   6.926  11.651   8.882 -0.0938 -0.1071 -0.0485
  603loPI   C4B 9648   6.928  11.753   8.503 -0.1619  0.0781  0.1673
  604loPI    C1 9649  14.183  14.712  11.002 -0.0507  0.2437  0.0640
  604loPI    C2 9650  14.455  14.933  11.195  0.0961 -0.1665  0.3407
  604loPI    C3 9651  14.215  14.687  11.399 -0.0865 -0.2419  0.0425
  604loPI   PO4 9652  14.286  14.653  10.721 -0.6280 -0.3076  0.0057
  604loPI   GL1 9653  14.371  14.256  10.486  0.0081  0.0074 -0.3990
  604loPI   GL2 9654  14.113  14.428  10.348 -0.0259  0.1584 -0.0824
  604loPI   C1A 9655  14.589  14.139  10.151 -0.0172  0.2706  0.3002
  604loPI   C2A 9656  14.633  14.169   9.775  0.0017 -0.1227 -0.2742
  604loPI   C3A 9657  14.570  14.156   9.348  0.0449 -0.3501 -0.1552
  604loPI   C4A 9658  14.647  14.072   8.964 -0.1489  0.2376 -0.0011
  604loPI   C5A 9659  14.640  13.898   8.622  0.3549 -0.0939  0.0694
  604loPI   C6A 9660  14.518  13.478   8.437 -0.0706  0.0079  0.1531
  604loPI   C1B 9661  14.228  14.478   9.941  0.0630 -0.1221 -0.1576
  604loPI   C2B 9662  14.231  14.464   9.479  0.0865 -0.2317  0.0414
  604loPI   C3B 9663  14.251  14.371   9.052  0.0909  0.0710  0.1780
  604loPI   C4B 9664  14.355  14.327   8.645  0.0805  0.1139  0.3346
  605loPI    C1 9665  17.834   6.813  10.894 -0.2640 -0.0507 -0.1559
  605loPI    C2 9666  17.701   7.084  11.157 -0.1486 -0.1082 -0.0372
  605loPI    C3 9667  17.894   6.758  11.286  0.3588  0.1098 -0.2183
  605loPI   PO4 9668  17.671   6.691  10.787 -0.0608  0.2203 -0.2366
  605loPI   GL1 9669  17.319   6.566  10.539  0.0922 -0.2472  0.1556
  605loPI   GL2 9670  17.450   6.839  10.339 -0.1040 -0.1240  0.1690
  605loPI   C1A 9671  17.062   6.497  10.126  0.2428 -0.2037  0.3619
  605loPI   C2A 9672  17.039   6.470   9.661  0.0406 -0.1069  0.1281
  605loPI   C3A 9673  17.090   6.339   9.219  0.0440 -0.2783  0.1165
  605loPI   C4A 9674  17.097   6.415   8.687 -0.0575  0.0166  0.1744
  605loPI   C5A 9675  17.187   6.435   8.346  0.1401  0.1641 -0.0339
  605loPI   C6A 9676  17.183   6.397   7.912 -0.2398  0.2038  0.2409
  605loPI   C1B 9677  17.450   6.783   9.907 -0.0173  0.2578  0.0791
  605loPI   C2B 9678  17.448   6.731   9.456 -0.1188  0.0378 -0.0626
  605loPI   C3B 9679  17.486   6.605   9.018  0.0132 -0.1747 -0.1136
  605loPI   C4B 9680  17.677   6.669   8.574 -0.0318  0.1808 -0.2950
  606loPI    C1 9681   2.904  17.759  11.192 -0.0527  0.0275  0.0844
  606loPI    C2 9682   2.801  18.126  11.312  0.1656  0.0938  0.0732
  606loPI    C3 9683   3.067  17.915  11.523  0.1506  0.0002 -0.0012
  606loPI   PO4 9684   3.000  17.777  10.980  0.1786  0.2685 -0.0228
  606loPI   GL1 9685   3.160  17.914  10.561  0.1219 -0.1243 -0.2266
  606loPI   GL2 9686   2.780  17.789  10.513 -0.1198 -0.2520  0.2067
  606loPI   C1A 9687   3.294  18.130  10.125 -0.1803 -0.1491  0.0039
  606loPI   C2A 9688   3.234  18.023   9.755 -0.0642 -0.0829  0.0742
  606loPI   C3A 9689   3.264  18.071   9.399 -0.1044  0.0761 -0.1366
  606loPI   C4A 9690   3.253  18.148   9.004 -0.3205 -0.2130  0.2607
  606loPI   C5A 9691   3.266  18.097   8.566 -0.1225  0.0518  0.1194
  606loPI   C6A 9692   3.058  18.174   8.113  0.0143 -0.1004 -0.3789
  606loPI   C1B 9693   2.758  17.825  10.066 -0.2903 -0.3185 -0.2281
  606loPI   C2B 9694   2.844  17.786   9.622  0.1833 -0.1640  0.1849
  606loPI   C3B 9695   2.812  17.886   9.201 -0.2913  0.1783  0.0251
  606loPI   C4B 9696   2.842  17.881   8.809 -0.1743  0.0701 -0.2354
  607loPI    C1 9697   6.052   7.179  11.186  0.1238 -0.2377 -0.0055
  607loPI    C2 9698   6.041   6.898  11.470  0.0167 -0.3667 -0.1354
  607loPI    C3 9699   5.727   7.139  11.416  0.1916 -0.0739  0.1205
  607loPI   PO4 9700   6.073   7.069  10.947  0.0377 -0.0415 -0.2538
  607loPI   GL1 9701   6.053   7.227  10.551  0.2292  0.0407 -0.1505
  607loPI   GL2 9702   5.915   7.021  10.488  0.2667 -0.0163  0.0177
  607loPI   C1A 9703   6.282   7.173  10.150  0.1833  0.0725  0.1038
  607loPI   C2A 9704   6.309   7.157   9.739  0.0456 -0.1755  0.0808
  607loPI   C3A 9705   6.367   7.216   9.298  0.0468 -0.0098 -0.0182
  607loPI   C4A 9706   6.439   7.243   8.866 -0.1775 -0.1738 -0.1851
  607loPI   C5A 9707   6.663   7.447   8.519  0.1444 -0.4030  0.0087
  607loPI   C6A 9708   7.117   7.458   8.433 -0.0854  0.1809 -0.0571
  607loPI   C1B 9709   6.060   6.715  10.220  0.1917  0.1107  0.3640
  607loPI   C2B 9710   6.314   6.676   9.815  0.1077 -0.0556  0.3194
  607loPI   C3B 9711   6.345   6.682   9.342  0.2473  0.4270  0.2982
  607loPI   C4B 9712   6.367   6.791   8.979  0.1325 -0.2511  0.2725
  608loPI    C1 9713   3.309   9.469  10.590  0.1432  0.2266  0.1361
  608loPI    C2 9714   3.555   9.697  10.807  0.2095  0.0757  0.2213
  608loPI    C3 9715   3.242   9.519  10.981  0.0725  0.2201  0.1250
  608loPI   PO4 9716   3.384   9.280  10.468 -0.2171  0.1468  0.0661
  608loPI   GL1 9717   3.635   9.253  10.158  0.2025 -0.1873  0.0221
  608loPI   GL2 9718   3.552   9.517   9.928  0.3218  0.1523  0.0447
  608loPI   C1A 9719   3.694   9.000   9.828  0.2380 -0.2395  0.1439
  608loPI   C2A 9720   3.722   8.917   9.395  0.0530 -0.1037  0.2193
  608loPI   C3A 9721   3.721   8.966   8.990 -0.0016  0.0471  0.1596
  608loPI   C4A 9722   3.688   8.811   8.677 -0.3222  0.0649  0.0964
  608loPI   C5A 9723   3.806   8.898   8.274 -0.2733  0.2987 -0.0071
  608loPI   C6A 9724   4.126   8.864   8.004 -0.0134 -0.0747  0.4313
  608loPI   C1B 9725   3.713   9.402   9.470  0.0188 -0.1736 -0.0963
  608loPI   C2B 9726   3.744   9.427   9.043  0.1492 -0.0752  0.2104
  608loPI   C3B 9727   3.675   9.295   8.658  0.0180  0.1014  0.3623
  608loPI   C4B 9728   3.731   9.373   8.159 -0.0750  0.0695  0.1920
  609POPI    C1 9729  12.367  17.771  11.282  0.0385 -0.2562  0.1615
  609POPI    C2 9730  12.330  18.032  11.583 -0.2809 -0.0908 -0.0160
  609POPI    C3 9731  12.531  17.690  11.638  0.0328  0.1312  0.2567
  609POPI   PO4 9732  12.405  17.944  11.064 -0.0730 -0.3585  0.0155
  609POPI   GL1 9733  12.341  17.801  10.616  0.1651  0.1486 -0.0138
  609POPI   GL2 9734  12.630  17.984  10.561  0.2506 -0.0687  0.1872
  609POPI   C1A 9735  12.437  17.678  10.199 -0.1948 -0.2348 -0.0945
  609POPI   D2A 9736  12.678  17.649   9.843  0.0452  0.2024  0.0427
  609POPI   C3A 9737  12.554  17.702   9.413  0.3012  0.1633 -0.2677
  609POPI   C4A 9738  12.622  17.611   8.994  0.1406 -0.0336 -0.1069
  609POPI   C1B 9739  12.676  18.133  10.171  0.1802  0.1117  0.3087
  609POPI   C2B 9740  12.720  18.118   9.733  0.3003  0.3023  0.0525
  609POPI   C3B 9741  12.807  18.224   9.468  0.3014 -0.2113  0.1304
  609POPI   C4B 9742  12.777  18.193   9.065 -0.0518  0.1765  0.0536
  610POPI    C1 9743  15.954  10.826  10.747 -0.0146 -0.1008 -0.0715
  610POPI    C2 9744  15.794  10.609  11.043 -0.1235 -0.0903 -0.1222
  610POPI    C3 9745  15.717  11.001  11.017 -0.2875 -0.1314 -0.2857
  610POPI   PO4 9746  15.891  10.723  10.580 -0.2292 -0.0618  0.0451
  610POPI   GL1 9747  16.061  10.863  10.251 -0.1855  0.4467 -0.2610
  610POPI   GL2 9748  15.815  11.013  10.125 -0.1248  0.2292  0.4284
  610POPI   C1A 9749  16.225  10.607   9.906 -0.1029 -0.1343  0.2082
  610POPI   D2A 9750  16.249  10.553   9.414  0.1734 -0.0563 -0.2037
  610POPI   C3A 9751  16.234  10.580   9.006  0.0189  0.1222  0.0331
  610POPI   C4A 9752  16.372  10.597   8.616  0.1136  0.0020 -0.0845
  610POPI   C1B 9753  15.957  10.955   9.667 -0.0006 -0.1371  0.1688
  610POPI   C2B 9754  16.019  10.960   9.311 -0.1267  0.0652  0.1546
  610POPI   C3B 9755  15.818  10.855   8.948  0.3507  0.3560 -0.4159
  610POPI   C4B 9756  15.981  10.842   8.520 -0.3249  0.0114 -0.0133
  611POPI    C1 9757  13.411   2.524  11.304 -0.0226  0.2259  0.0524
  611POPI    C2 9758  13.069   2.715  11.385 -0.1379 -0.0150  0.1460
  611POPI    C3 9759  13.272   2.535  11.679 -0.0444 -0.0588  0.0552
  611POPI   PO4 9760  13.431   2.694  11.006  0.2212 -0.3236  0.0946
  611POPI   GL1 9761  13.762   2.570  10.663 -0.0632  0.1324 -0.1024
  611POPI   GL2 9762  13.590   2.921  10.602 -0.0067 -0.1211  0.0173
  611POPI   C1A 9763  13.874   2.679  10.253 -0.1465  0.1693 -0.0380
  611POPI   D2A 9764  13.889   2.586   9.886  0.0008 -0.2147 -0.0778
  611POPI   C3A 9765  13.768   2.684   9.387 -0.0708  0.0882  0.1773
  611POPI   C4A 9766  13.761   2.648   8.849 -0.0484  0.1671  0.2218
  611POPI   C1B 9767  13.378   2.992  10.217 -0.2206 -0.0097 -0.1583
  611POPI   C2B 9768  13.426   2.939   9.840 -0.3876 -0.2373 -0.2082
  611POPI   C3B 9769  13.333   2.930   9.458  0.0471 -0.1591 -0.1836
  611POPI   C4B 9770  13.390   2.970   9.052 -0.2790 -0.0423  0.1037
  612POPI    C1 9771  16.779   4.683  11.116 -0.3032 -0.0780  0.0194
  612POPI    C2 9772  16.467   4.446  11.198 -0.2984 -0.0702  0.0602
  612POPI    C3 9773  16.710   4.567  11.493 -0.3717  0.0850  0.0576
  612POPI   PO4 9774  16.860   4.535  10.837  0.0598 -0.0459 -0.2891
  612POPI   GL1 9775  17.062   4.325  10.465  0.0636 -0.2381 -0.0228
  612POPI   GL2 9776  17.080   3.973  10.336 -0.0334 -0.0930 -0.1163
  612POPI   C1A 9777  16.937   4.411  10.069 -0.1017 -0.0038 -0.0607
  612POPI   D2A 9778  17.085   4.345   9.633 -0.3763 -0.1798  0.0735
  612POPI   C3A 9779  17.025   4.285   9.168 -0.2488  0.1197 -0.0880
  612POPI   C4A 9780  16.973   4.299   8.692  0.0797 -0.1334 -0.2737
  612POPI   C1B 9781  16.979   3.821   9.838  0.3018 -0.3371  0.1229
  612POPI   C2B 9782  17.081   3.823   9.401 -0.2206 -0.1717 -0.0835
  612POPI   C3B 9783  17.013   3.865   8.946 -0.0417 -0.4244 -0.0068
  612POPI   C4B 9784  16.915   3.782   8.535  0.1052 -0.1002 -0.2215
  613POPI    C1 9785   8.440  14.646  10.882  0.0018 -0.0794 -0.1621
  613POPI    C2 9786   8.764  14.789  11.068 -0.1083  0.0226 -0.0463
  613POPI    C3 9787   8.512  14.547  11.263 -0.1538  0.0224 -0.1052
  613POPI   PO4 9788   8.527  14.520  10.683 -0.1521  0.1604 -0.1489
  613POPI   GL1 9789   8.374  14.390  10.211  0.0914  0.1079 -0.0685
  613POPI   GL2 9790   8.509  14.758  10.136  0.0735  0.1054  0.2371
  613POPI   C1A 9791   8.647  14.408   9.799 -0.1130 -0.0393 -0.2735
  613POPI   D2A 9792   8.596  14.309   9.396  0.2049 -0.1321  0.0990
  613POPI   C3A 9793   8.709  14.369   9.054  0.2073 -0.0012  0.0903
  613POPI   C4A 9794   8.639  14.404   8.595  0.1544  0.1814 -0.0510
  613POPI   C1B 9795   8.630  14.894   9.722 -0.0033  0.1181  0.0059
  613POPI   C2B 9796   8.786  14.801   9.320  0.2405  0.0695 -0.1329
  613POPI   C3B 9797   8.784  14.884   8.903 -0.0326 -0.0355  0.2331
  613POPI   C4B 9798   9.089  15.023   8.666  0.1652 -0.1512 -0.2012
  614POPI    C1 9799   4.574  10.874  10.475  0.0294 -0.1387  0.0792
  614POPI    C2 9800   4.488  11.119  10.779 -0.0418 -0.0848  0.0161
  614POPI    C3 9801   4.869  11.055  10.675 -0.0136 -0.1608  0.1631
  614POPI   PO4 9802   4.406  10.895  10.219 -0.0787 -0.0701 -0.1725
  614POPI   GL1 9803   4.157  10.863   9.869 -0.2446  0.3261  0.2058
  614POPI   GL2 9804   4.350  11.179   9.729  0.2513 -0.1769 -0.2211
  614POPI   C1A 9805   4.279  10.767   9.458  0.5287  0.0750  0.3882
  614POPI   D2A 9806   4.347  10.620   8.949 -0.1023  0.1918  0.1585
  614POPI   C3A 9807   4.212  10.821   8.549  0.0600  0.1322  0.1594
  614POPI   C4A 9808   4.178  10.690   8.080  0.0434 -0.0108 -0.0834
  614POPI   C1B 9809   4.264  11.203   9.259 -0.2030  0.0745 -0.0425
  614POPI   C2B 9810   4.230  11.212   8.857  0.1098 -0.0167 -0.0908
  614POPI   C3B 9811   4.045  11.417   8.423 -0.2491  0.0327  0.2355
  614POPI   C4B 9812   4.224  11.653   8.032 -0.2215  0.0056 -0.1815
  615POPI    C1 9813   8.545  11.847  10.377  0.1958 -0.0187 -0.0269
  615POPI    C2 9814   8.168  11.889  10.252  0.1883 -0.3023 -0.1087
  615POPI    C3 9815   8.247  11.674  10.580  0.2452  0.1016  0.1501
  615POPI   PO4 9816   8.649  11.899  10.094  0.2143  0.3383 -0.1625
  615POPI   GL1 9817   8.613  11.924   9.727 -0.2286 -0.1081  0.2557
  615POPI   GL2 9818   8.292  11.790   9.721 -0.3214 -0.2074  0.0689
  615POPI   C1A 9819   8.772  11.936   9.379  0.1655  0.0786  0.1418
  615POPI   D2A 9820   8.756  11.910   9.046  0.1015 -0.0978 -0.1206
  615POPI   C3A 9821   8.827  12.099   8.677 -0.0818 -0.0629  0.1939
  615POPI   C4A 9822   8.930  12.103   8.267  0.0236  0.1593  0.0312
  615POPI   C1B 9823   8.274  11.815   9.265 -0.0302  0.3282 -0.2129
  615POPI   C2B 9824   8.294  11.743   8.889  0.1454  0.1237 -0.0493
  615POPI   C3B 9825   8.341  11.965   8.490 -0.3211  0.0895 -0.2533
  615POPI   C4B 9826   8.429  12.001   8.067 -0.0219  0.0028 -0.0660
  616POPI    C1 9827   0.179   8.894  11.007 -0.0385  0.0303  0.0180
  616POPI    C2 9828  -0.182   8.869  11.178 -0.0420  0.0738  0.0174
  616POPI    C3 9829   0.148   8.826  11.400 -0.0476  0.0062  0.0132
  616POPI   PO4 9830   0.163   8.847  10.832 -0.0742  0.3328 -0.2330
  616POPI   GL1 9831   0.074   8.741  10.408  0.2096 -0.0669  0.2137
  616POPI   GL2 9832   0.019   9.107  10.366  0.1125 -0.0390  0.1218
  616POPI   C1A 9833  -0.052   8.502  10.047  0.1954  0.0823  0.1162
  616POPI   D2A 9834   0.010   8.496   9.642  0.2576  0.1951  0.2798
  616POPI   C3A 9835  -0.016   8.497   9.203 -0.0907 -0.3799 -0.0735
  616POPI   C4A 9836  -0.039   8.406   8.800  0.0715 -0.1270 -0.3008
  616POPI   C1B 9837  -0.048   9.077   9.928  0.3037 -0.0927 -0.2812
  616POPI   C2B 9838   0.027   9.015   9.473 -0.0018  0.3126  0.0966
  616POPI   C3B 9839   0.035   8.974   9.097 -0.1400  0.0788  0.2857
  616POPI   C4B 9840  -0.009   8.977   8.669 -0.0187  0.1424  0.1289
  617POPI    C1 9841   0.528  11.815  10.204  0.0384  0.0632 -0.1140
  617POPI    C2 9842   0.200  12.036  10.144 -0.0074  0.0156 -0.0397
  617POPI    C3 9843   0.487  12.167  10.390  0.0220  0.0492 -0.0914
  617POPI   PO4 9844   0.596  11.788  10.010 -0.1099  0.3293  0.2901
  617POPI   GL1 9845   0.507  11.881   9.650  0.1398  0.2336 -0.2216
  617POPI   GL2 9846   0.376  12.133   9.617  0.2175 -0.0399 -0.0676
  617POPI   C1A 9847   0.506  11.873   9.198  0.0712  0.3955 -0.0038
  617POPI   D2A 9848   0.393  12.055   8.811  0.0968 -0.0176 -0.3274
  617POPI   C3A 9849   0.403  12.151   8.397 -0.0014  0.1561 -0.0227
  617POPI   C4A 9850   0.609  12.342   7.979 -0.2242 -0.1107  0.1661
  617POPI   C1B 9851   0.076  12.230   9.253 -0.1228  0.0975  0.2636
  617POPI   C2B 9852  -0.179  12.192   8.907  0.1439 -0.4197  0.1960
  617POPI   C3B 9853  -0.250  11.910   8.547  0.1262 -0.0680  0.2204
  617POPI   C4B 9854  -0.259  11.573   8.312 -0.2498 -0.2499  0.1046
  618POPI    C1 9855   1.613   9.818  10.547 -0.1229 -0.0340 -0.0057
  618POPI    C2 9856   1.646   9.931  10.929  0.1552 -0.0776 -0.0148
  618POPI    C3 9857   1.971   9.816  10.726  0.0737  0.3112 -0.3785
  618POPI   PO4 9858   1.486   9.569  10.581 -0.1052  0.2299 -0.0707
  618POPI   GL1 9859   1.632   9.331  10.152 -0.4828  0.0513 -0.1823
  618POPI   GL2 9860   1.322   9.262  10.199  0.1246 -0.4169  0.0392
  618POPI   C1A 9861   1.810   9.477   9.679 -0.0732 -0.1068  0.0884
  618POPI   D2A 9862   1.926   9.595   9.314 -0.2897  0.1773  0.0202
  618POPI   C3A 9863   1.845   9.518   8.906 -0.0468  0.3043 -0.2745
  618POPI   C4A 9864   1.783   9.427   8.476  0.1811 -0.0215  0.0079
  618POPI   C1B 9865   1.318   9.269   9.757 -0.1051  0.1921 -0.0955
  618POPI   C2B 9866   1.488   9.283   9.284 -0.1318  0.2207  0.2666
  618POPI   C3B 9867   1.375   9.210   8.873  0.0546 -0.0409 -0.0717
  618POPI   C4B 9868   1.337   9.147   8.408  0.1752 -0.1254 -0.1203
  619POPI    C1 9869  12.941   5.066  11.137  0.1632 -0.0158  0.0127
  619POPI    C2 9870  13.269   4.911  10.969  0.0135 -0.2888 -0.0346
  619POPI    C3 9871  13.220   4.895  11.366  0.1803 -0.0048  0.0002
  619POPI   PO4 9872  12.923   5.287  11.062  0.3825  0.0470  0.0774
  619POPI   GL1 9873  12.743   5.254  10.701  0.2017 -0.3086  0.1470
  619POPI   GL2 9874  13.025   5.281  10.561  0.1369  0.0120 -0.1931
  619POPI   C1A 9875  12.573   5.390  10.248 -0.1370  0.0798  0.0680
  619POPI   D2A 9876  12.635   5.450   9.799  0.2346  0.0809 -0.1374
  619POPI   C3A 9877  12.579   5.505   9.449  0.2094  0.0220  0.1196
  619POPI   C4A 9878  12.607   5.562   9.017  0.1060  0.1487 -0.0012
  619POPI   C1B 9879  13.033   5.259  10.083  0.2505 -0.1993 -0.2013
  619POPI   C2B 9880  12.986   5.155   9.598  0.2040 -0.2999  0.4597
  619POPI   C3B 9881  12.994   5.183   9.213 -0.1502 -0.0300 -0.0229
  619POPI   C4B 9882  13.021   5.341   8.840 -0.0485 -0.1161  0.2459
  620POPI    C1 9883   7.623   7.014  11.078 -0.3041  0.2068  0.0893
  620POPI    C2 9884   7.793   6.758  11.333 -0.1698  0.3305  0.1255
  620POPI    C3 9885   7.641   6.625  10.988  0.1590  0.2408  0.0116
  620POPI   PO4 9886   7.818   7.201  11.072  0.3178 -0.0216 -0.3583
  620POPI   GL1 9887   7.900   7.369  10.727 -0.2466 -0.1707  0.0270
  620POPI   GL2 9888   7.570   7.418  10.723 -0.0822 -0.1355  0.2084
  620POPI   C1A 9889   8.132   7.686  10.354  0.2501 -0.2975 -0.0761
  620POPI   D2A 9890   8.099   7.713   9.870 -0.0076 -0.0413 -0.3358
  620POPI   C3A 9891   8.194   7.767   9.299  0.1425  0.2769 -0.0420
  620POPI   C4A 9892   8.298   7.833   8.882 -0.2693  0.0579  0.0134
  620POPI   C1B 9893   7.696   7.440  10.205 -0.0236  0.1189 -0.2928
  620POPI   C2B 9894   7.681   7.478   9.707  0.1227  0.0907  0.1183
  620POPI   C3B 9895   7.769   7.394   9.326  0.0803  0.1388 -0.1143
  620POPI   C4B 9896   7.799   7.639   8.995 -0.1735  0.0687  0.1866
  621POPI    C1 9897  16.566  16.563  11.044  0.0756  0.0976  0.0928
  621POPI    C2 9898  16.397  16.300  11.293  0.1148  0.1487  0.1737
  621POPI    C3 9899  16.795  16.337  11.281  0.1253 -0.0148 -0.0602
  621POPI   PO4 9900  16.575  16.548  10.862  0.0724  0.3997 -0.0463
  621POPI   GL1 9901  16.538  16.448  10.508 -0.3220  0.5202 -0.1084
  621POPI   GL2 9902  16.419  16.145  10.358 -0.0891 -0.0559 -0.0972
  621POPI   C1A 9903  16.533  16.685  10.088  0.1222 -0.0807  0.0462
  621POPI   D2A 9904  16.468  16.668   9.724  0.0056  0.2402  0.0628
  621POPI   C3A 9905  16.578  16.669   9.258  0.0998 -0.1351  0.0645
  621POPI   C4A 9906  16.429  16.599   8.792  0.3921  0.0862  0.0809
  621POPI   C1B 9907  16.461  16.139   9.909  0.0926  0.0465 -0.2713
  621POPI   C2B 9908  16.436  16.139   9.383  0.2677 -0.1269 -0.0829
  621POPI   C3B 9909  16.434  16.137   8.936  0.0486  0.0577 -0.1037
  621POPI   C4B 9910  16.496  16.201   8.478 -0.2619 -0.1833 -0.0322
  622POPI    C1 9911  13.101   6.173  11.059 -0.0792  0.2349 -0.0221
  622POPI    C2 9912  13.419   6.137  11.299 -0.1253 -0.2426 -0.0220
  622POPI    C3 9913  13.050   6.124  11.453 -0.1517  0.0918 -0.0485
  622POPI   PO4 9914  13.226   6.140  10.801 -0.1874  0.2037  0.0572
  622POPI   GL1 9915  13.020   6.256  10.436  0.1591  0.0245 -0.1257
  622POPI   GL2 9916  12.758   6.384  10.726  0.0177  0.0053 -0.2498
  622POPI   C1A 9917  12.982   6.340  10.020  0.2394 -0.0263 -0.2757
  622POPI   D2A 9918  13.003   6.307   9.654 -0.1571 -0.0205 -0.0485
  622POPI   C3A 9919  12.992   6.287   9.268 -0.2771  0.1138 -0.0786
  622POPI   C4A 9920  13.034   6.336   8.786  0.0054 -0.4081  0.0433
  622POPI   C1B 9921  12.549   6.494  10.376  0.0334 -0.1479  0.0342
  622POPI   C2B 9922  12.519   6.483   9.922 -0.2438  0.0905  0.0158
  622POPI   C3B 9923  12.608   6.560   9.502  0.0506  0.1218 -0.1150
  622POPI   C4B 9924  12.645   6.604   9.065 -0.1856 -0.0966  0.3255
  623POPI    C1 9925   8.336   0.480  10.325  0.1493 -0.1257 -0.0434
  623POPI    C2 9926   8.605   0.394  10.609 -0.1561 -0.1197  0.2536
  623POPI    C3 9927   8.249   0.546  10.709 -0.3061 -0.2069 -0.1272
  623POPI   PO4 9928   8.380   0.617  10.162  0.0884 -0.2484  0.1292
  623POPI   GL1 9929   8.632   0.699   9.780 -0.0106  0.1031  0.1766
  623POPI   GL2 9930   8.753   0.912   9.615  0.3405 -0.1046  0.0062
  623POPI   C1A 9931   8.449   0.520   9.384 -0.2789  0.2510 -0.1211
  623POPI   D2A 9932   8.418   0.514   8.979 -0.2524 -0.1049  0.0829
  623POPI   C3A 9933   8.344   0.743   8.594  0.4384 -0.0647  0.1134
  623POPI   C4A 9934   8.453   0.872   8.166 -0.0367  0.0739  0.3765
  623POPI   C1B 9935   8.762   0.917   9.205  0.1128 -0.0871  0.1083
  623POPI   C2B 9936   8.766   0.853   8.815 -0.1655  0.0822  0.1522
  623POPI   C3B 9937   8.913   1.058   8.427  0.3622 -0.1856 -0.4070
  623POPI   C4B 9938   8.878   1.078   8.005  0.0466 -0.2499  0.1596
  624POPI    C1 9939  10.118  13.336  10.913 -0.2127 -0.1768  0.0092
  624POPI    C2 9940   9.864  13.639  10.975 -0.0318 -0.0161 -0.0257
  624POPI    C3 9941   9.792  13.281  11.139 -0.2547  0.0403  0.0034
  624POPI   PO4 9942  10.196  13.444  10.637 -0.0820  0.1882 -0.3951
  624POPI   GL1 9943  10.263  13.442  10.243  0.0574  0.0173 -0.0088
  624POPI   GL2 9944   9.916  13.549  10.193 -0.0051 -0.3612  0.2803
  624POPI   C1A 9945  10.338  13.468   9.803 -0.1053  0.3917 -0.1094
  624POPI   D2A 9946  10.432  13.521   9.382  0.0909 -0.0831  0.2924
  624POPI   C3A 9947  10.370  13.567   8.939  0.0186  0.2329  0.1006
  624POPI   C4A 9948  10.521  13.563   8.545  0.0720 -0.1344  0.0274
  624POPI   C1B 9949   9.900  13.761   9.691  0.2610 -0.1026 -0.1061
  624POPI   C2B 9950   9.924  13.808   9.296 -0.4045 -0.0372  0.1830
  624POPI   C3B 9951   9.996  13.862   8.863  0.0780 -0.0350 -0.0138
  624POPI   C4B 9952  10.021  13.588   8.497 -0.2926 -0.1249  0.0601
  625DPPI    C1 9953   6.524   8.163  10.905 -0.1469 -0.0355  0.1464
  625DPPI    C2 9954   6.720   7.825  10.991 -0.0473  0.0112  0.1051
  625DPPI    C3 9955   6.760   8.145  11.228 -0.2561 -0.0497  0.2260
  625DPPI   PO4 9956   6.555   8.172  10.661  0.1856  0.1950 -0.2662
  625DPPI   GL1 9957   6.858   8.244  10.349  0.1070 -0.1585  0.0232
  625DPPI   GL2 9958   6.681   8.007  10.182 -0.2780 -0.0190  0.1935
  625DPPI   C1A 9959   6.815   8.511   9.974 -0.2168 -0.1206  0.0033
  625DPPI   C2A 9960   6.860   8.512   9.551  0.0443 -0.2044 -0.1185
  625DPPI   C3A 9961   6.834   8.608   9.141  0.1377  0.1580 -0.1363
  625DPPI   C4A 9962   6.781   8.598   8.771  0.2355 -0.0779 -0.1572
  625DPPI   C1B 9963   6.892   7.999   9.810  0.0379  0.0610  0.0927
  625DPPI   C2B 9964   6.766   8.067   9.368 -0.0461  0.0014 -0.1018
  625DPPI   C3B 9965   6.812   7.954   9.016  0.0254  0.1931 -0.1763
  625DPPI   C4B 9966   6.955   7.874   8.543 -0.0352 -0.1054 -0.0772
  626DPPI    C1 9967   2.036  12.898   9.845 -0.2316  0.0588 -0.1701
  626DPPI    C2 9968   2.079  12.689  10.183 -0.0493  0.2678 -0.0620
  626DPPI    C3 9969   2.113  12.506   9.830  0.1644  0.1237  0.0314
  626DPPI   PO4 9970   2.189  13.086   9.917 -0.0484 -0.1509 -0.0110
  626DPPI   GL1 9971   2.288  13.502   9.697  0.0842  0.2226 -0.4174
  626DPPI   GL2 9972   2.149  13.729   9.607 -0.0991 -0.1204 -0.0228
  626DPPI   C1A 9973   2.429  13.430   9.272 -0.1784  0.1514 -0.0925
  626DPPI   C2A 9974   2.568  13.367   8.918  0.0054 -0.0426 -0.1027
  626DPPI   C3A 9975   2.544  13.416   8.542  0.1450  0.3856  0.1282
  626DPPI   C4A 9976   2.641  13.556   8.149 -0.2443 -0.0049  0.1199
  626DPPI   C1B 9977   2.139  13.818   9.173  0.3154 -0.1366 -0.3351
  626DPPI   C2B 9978   2.125  13.781   8.755 -0.0663  0.3559 -0.3267
  626DPPI   C3B 9979   2.271  13.802   8.348  0.2813  0.0554  0.1551
  626DPPI   C4B 9980   2.285  13.949   7.938 -0.1293 -0.3796 -0.1217
  627DPPI    C1 9981   5.761   3.549  11.220  0.2905  0.0833 -0.0397
  627DPPI    C2 9982   5.491   3.254  11.206  0.0445  0.2988  0.0654
  627DPPI    C3 9983   5.882   3.169  11.193 -0.0273 -0.0105 -0.1920
  627DPPI   PO4 9984   5.637   3.704  10.999 -0.0247  0.1481  0.0750
  627DPPI   GL1 9985   5.389   3.718  10.561  0.0482  0.0759 -0.1600
  627DPPI   GL2 9986   5.626   3.851  10.494  0.0882 -0.0657  0.2629
  627DPPI   C1A 9987   5.310   4.110  10.219  0.0962 -0.0321  0.1551
  627DPPI   C2A 9988   5.353   4.250   9.811 -0.0973 -0.2705 -0.1913
  627DPPI   C3A 9989   5.384   4.210   9.363  0.1317 -0.1602  0.0085
  627DPPI   C4A 9990   5.382   4.227   8.885  0.0541 -0.2262 -0.1814
  627DPPI   C1B 9991   5.726   3.933  10.022 -0.0255  0.3546 -0.3180
  627DPPI   C2B 9992   5.785   4.024   9.566 -0.0051  0.2562 -0.1066
  627DPPI   C3B 9993   5.924   3.967   9.187 -0.1071  0.0580  0.2779
  627DPPI   C4B 9994   5.788   3.924   8.817 -0.0412 -0.0041  0.2650
  628DPPI    C1 9995   9.119  14.742  10.721 -0.1633 -0.1545  0.3026
  628DPPI    C2 9996   9.336  14.872  11.031 -0.0024  0.0387  0.1121
  628DPPI    C3 9997   9.090  15.123  10.841 -0.1505 -0.0965  0.1238
  628DPPI   PO4 9998   9.299  14.648  10.562  0.0225  0.1225 -0.3089
  628DPPI   GL1 9999   9.485  14.752  10.296  0.1788 -0.0271 -0.3210
  628DPPI   GL210000   9.347  14.354  10.136  0.0893 -0.1291 -0.2819
  628DPPI   C1A10001   9.616  14.694   9.837  0.1851  0.3327  0.2464
  628DPPI   C2A10002   9.609  14.704   9.412 -0.1878  0.3210 -0.1331
  628DPPI   C3A10003   9.782  14.754   8.999  0.2942  0.1511 -0.1652
  628DPPI   C4A10004   9.572  14.887   8.683 -0.2470 -0.1149  0.0407
  628DPPI   C1B10005   9.116  14.706   9.980  0.1719 -0.3129  0.1083
  628DPPI   C2B10006   9.136  14.964   9.694 -0.0626 -0.0553  0.0822
  628DPPI   C3B10007   9.192  15.080   9.378 -0.1553  0.0635  0.0717
  628DPPI   C4B10008   9.361  15.121   9.061 -0.0126  0.0948 -0.1000
  629DPPI    C110009   7.878  11.931  10.715 -0.0929  0.0035  0.0577
  629DPPI    C210010   8.070  11.828  11.051 -0.0518 -0.1115 -0.0004
  629DPPI    C310011   8.027  12.214  10.955  0.1399 -0.0838  0.0193
  629DPPI   PO410012   7.646  11.692  10.726 -0.2102 -0.3153 -0.0571
  629DPPI   GL110013   7.230  11.807  10.571 -0.0021  0.2146  0.2956
  629DPPI   GL210014   7.084  12.168  10.533 -0.2538 -0.0631  0.3755
  629DPPI   C1A10015   7.352  11.882  10.074  0.0199  0.1081 -0.2144
  629DPPI   C2A10016   7.433  11.936   9.589 -0.0457 -0.2001 -0.0883
  629DPPI   C3A10017   7.441  11.909   9.153 -0.2701 -0.1449 -0.2426
  629DPPI   C4A10018   7.383  11.966   8.754 -0.3048 -0.2606  0.1131
  629DPPI   C1B10019   6.862  12.352  10.087  0.1976 -0.0175 -0.1362
  629DPPI   C2B10020   6.967  12.127   9.789  0.0087  0.1950 -0.2546
  629DPPI   C3B10021   7.003  12.061   9.395 -0.0035  0.0631  0.0698
  629DPPI   C4B10022   7.025  12.243   8.942 -0.0195 -0.1696  0.1904
  630DPPI    C110023  17.191  10.974  10.441  0.1968  0.0963  0.1119
  630DPPI    C210024  16.917  11.265  10.444  0.1382  0.0441 -0.0456
  630DPPI    C310025  16.909  10.979  10.724  0.0442  0.0537 -0.0382
  630DPPI   PO410026  17.390  11.051  10.314 -0.2788  0.1204  0.3108
  630DPPI   GL110027  17.568  10.791   9.973 -0.0220  0.1445 -0.1201
  630DPPI   GL210028  17.258  10.686   9.919  0.0571 -0.0966 -0.2814
  630DPPI   C1A10029  17.653  10.900   9.597  0.0058 -0.1718  0.2430
  630DPPI   C2A10030  17.658  10.778   9.107  0.0543 -0.1749  0.0508
  630DPPI   C3A10031  17.636  10.797   8.675  0.1480 -0.1102  0.2329
  630DPPI   C4A10032  17.621  10.686   8.297 -0.0709  0.3068 -0.0276
  630DPPI   C1B10033  17.171  10.595   9.431  0.3108  0.0388  0.0221
  630DPPI   C2B10034  17.192  10.520   9.077  0.5156  0.2571  0.0523
  630DPPI   C3B10035  17.286  10.426   8.656 -0.0387 -0.2067  0.2117
  630DPPI   C4B10036  17.201  10.325   8.272  0.0287 -0.0150 -0.1815
  631DPPI    C110037   0.980   9.341  10.839  0.1484 -0.0854 -0.0795
  631DPPI    C210038   1.297   9.499  11.025  0.0922  0.0795 -0.1225
  631DPPI    C310039   0.937   9.510  11.199  0.0881 -0.0016 -0.1256
  631DPPI   PO410040   0.998   9.369  10.635  0.0713  0.2516 -0.0936
  631DPPI   GL110041   0.855   9.459  10.260  0.0768 -0.0770 -0.3583
  631DPPI   GL210042   1.161   9.742  10.198  0.2863  0.1226 -0.0685
  631DPPI   C1A10043   0.887   9.593   9.810 -0.0167 -0.0104 -0.0892
  631DPPI   C2A10044   0.896   9.488   9.394 -0.0598  0.3460 -0.0597
  631DPPI   C3A10045   0.928   9.479   8.973  0.0441  0.1597 -0.1243
  631DPPI   C4A10046   0.931   9.385   8.602 -0.0538 -0.2134  0.0327
  631DPPI   C1B10047   1.388   9.820   9.787  0.0169 -0.0094 -0.0707
  631DPPI   C2B10048   1.365   9.720   9.422  0.5423  0.1432  0.1189
  631DPPI   C3B10049   1.391   9.737   9.080  0.0059 -0.3375 -0.1210
  631DPPI   C4B10050   1.360   9.698   8.567 -0.3056  0.1752 -0.0725
  632DPPI    C110051   3.143   4.023  11.188  0.1957 -0.1847  0.0645
  632DPPI    C210052   3.386   4.301  11.343  0.0306 -0.0343  0.0564
  632DPPI    C310053   3.296   3.974  11.555  0.0731  0.0101  0.1438
  632DPPI   PO410054   3.324   4.013  10.925 -0.2461 -0.2280  0.0629
  632DPPI   GL110055   3.410   3.886  10.533  0.0305  0.0061 -0.1305
  632DPPI   GL210056   3.479   4.164  10.464 -0.2131 -0.4988 -0.1417
  632DPPI   C1A10057   3.493   3.802  10.062 -0.0022  0.1778 -0.0072
  632DPPI   C2A10058   3.462   3.824   9.607 -0.0048 -0.0056  0.0102
  632DPPI   C3A10059   3.618   3.734   9.078  0.1839 -0.0116 -0.1250
  632DPPI   C4A10060   3.514   3.737   8.580 -0.4086 -0.1142 -0.1428
  632DPPI   C1B10061   3.482   4.275  10.035 -0.1189  0.3343 -0.3325
  632DPPI   C2B10062   3.526   4.270   9.747 -0.2314  0.0067  0.2743
  632DPPI   C3B10063   3.523   4.213   9.248  0.2884  0.1415  0.3385
  632DPPI   C4B10064   3.537   4.288   8.862  0.2189 -0.0739 -0.2043
  633DPPI    C110065  11.150  17.576  10.784 -0.2329 -0.1681  0.1184
  633DPPI    C210066  10.978  17.217  10.748 -0.1643 -0.1900  0.0003
  633DPPI    C310067  10.926  17.432  11.081 -0.2914 -0.2640  0.0287
  633DPPI   PO410068  11.383  17.551  10.726 -0.1327 -0.1382  0.3613
  633DPPI   GL110069  11.766  17.686  10.476 -0.2813  0.0778  0.1657
  633DPPI   GL210070  11.557  17.393  10.272  0.0624  0.3793  0.0264
  633DPPI   C1A10071  11.711  17.800  10.045  0.2260 -0.0052  0.0142
  633DPPI   C2A10072  11.671  17.655   9.655 -0.3421  0.0396  0.3113
  633DPPI   C3A10073  11.686  17.792   9.313  0.0849  0.1411  0.1899
  633DPPI   C4A10074  11.756  17.794   8.907  0.2538 -0.1553 -0.0056
  633DPPI   C1B10075  11.635  17.206   9.849 -0.0040  0.0020  0.2684
  633DPPI   C2B10076  11.640  17.281   9.312  0.1498 -0.1855  0.3747
  633DPPI   C3B10077  11.524  17.343   8.919  0.1489 -0.0698  0.3046
  633DPPI   C4B10078  11.687  17.272   8.612 -0.1054 -0.1352  0.1744
  634DPPI    C110079   7.623   6.220  11.371 -0.3645  0.1992  0.1430
  634DPPI    C210080   7.724   5.970  11.666  0.0641  0.0439 -0.1254
  634DPPI    C310081   7.742   6.365  11.725  0.2650  0.0146  0.0200
  634DPPI   PO410082   7.680   6.032  11.169  0.2873  0.4526 -0.3409
  634DPPI   GL110083   7.638   6.211  10.724  0.0280  0.0546 -0.2253
  634DPPI   GL210084   7.599   5.927  10.542  0.0683 -0.0353  0.1849
  634DPPI   C1A10085   7.559   6.384  10.342  0.0465 -0.1002 -0.0308
  634DPPI   C2A10086   7.622   6.380   9.874 -0.2536 -0.0358 -0.0334
  634DPPI   C3A10087   7.700   6.480   9.494 -0.0057 -0.0583  0.0365
  634DPPI   C4A10088   7.655   6.480   8.988 -0.0806 -0.0702 -0.1124
  634DPPI   C1B10089   7.548   5.892  10.034  0.1015 -0.1139  0.0469
  634DPPI   C2B10090   7.650   5.916   9.627 -0.1907 -0.1332  0.0607
  634DPPI   C3B10091   7.702   5.940   9.118 -0.1807  0.2910  0.1120
  634DPPI   C4B10092   7.772   6.099   8.713 -0.0766 -0.1986 -0.1442
  635PYPI    C110093   7.775   0.655  10.799  0.1008  0.2340  0.0701
  635PYPI    C210094   7.424   0.794  10.932 -0.1392 -0.2311 -0.0580
  635PYPI    C310095   7.675   0.610  11.184 -0.0746 -0.0761 -0.0084
  635PYPI   PO410096   7.739   0.506  10.604  0.2555 -0.0272 -0.0740
  635PYPI   GL110097   7.810   0.350  10.131  0.1304 -0.0413  0.0051
  635PYPI   GL210098   7.823   0.022  10.074 -0.5438  0.3944  0.0882
  635PYPI   C1A10099   7.557   0.600   9.780  0.0451 -0.0571  0.2201
  635PYPI   C2A10100   7.461   0.587   9.377  0.1622 -0.0713 -0.2216
  635PYPI   D3A10101   7.446   0.650   8.934 -0.1824  0.1771  0.3608
  635PYPI   C4A10102   7.427   0.674   8.571 -0.3422 -0.1785  0.1527
  635PYPI   C1B10103   7.903  -0.208   9.765  0.0982 -0.1071  0.4637
  635PYPI   C2B10104   7.892  -0.175   9.265 -0.3888 -0.1358 -0.1525
  635PYPI   C3B10105   7.852  -0.036   8.785 -0.1849 -0.0657  0.0668
  635PYPI   C4B10106   7.748   0.041   8.340  0.1210  0.2996  0.0578
  636PYPI    C110107   7.734   2.122  10.700 -0.1577  0.0917 -0.0121
  636PYPI    C210108   7.901   2.057  11.058 -0.0650  0.2802 -0.0202
  636PYPI    C310109   7.531   2.208  11.033 -0.0900  0.2219 -0.0040
  636PYPI   PO410110   7.736   1.892  10.497  0.1703  0.0833  0.0686
  636PYPI   GL110111   7.644   1.894  10.022  0.0194 -0.1161  0.0797
  636PYPI   GL210112   7.965   2.025  10.044  0.2099 -0.3305  0.1620
  636PYPI   C1A10113   7.460   1.871   9.604 -0.3283  0.0755  0.0495
  636PYPI   C2A10114   7.399   1.842   9.158  0.1242  0.1514  0.0030
  636PYPI   D3A10115   7.406   1.706   8.739  0.3245 -0.3021 -0.0132
  636PYPI   C4A10116   7.558   1.847   8.326 -0.0767  0.2206 -0.1021
  636PYPI   C1B10117   7.993   2.102   9.551 -0.1046  0.3058  0.2174
  636PYPI   C2B10118   7.905   2.037   9.144  0.0218 -0.0725  0.0695
  636PYPI   C3B10119   7.910   2.046   8.690  0.3199  0.0805 -0.0699
  636PYPI   C4B10120   7.969   2.182   8.241 -0.1609  0.1644  0.1937
  637PYPI    C110121   6.202   9.186  10.804 -0.0182 -0.0550  0.2029
  637PYPI    C210122   6.450   9.210  11.117  0.2103  0.1327  0.0122
  637PYPI    C310123   6.369   9.536  10.901  0.2090 -0.0323 -0.2414
  637PYPI   PO410124   6.233   8.951  10.689  0.0600  0.1082  0.4436
  637PYPI   GL110125   6.400   8.926  10.347  0.1274 -0.1285  0.0547
  637PYPI   GL210126   6.464   8.574  10.351 -0.1315 -0.0834 -0.3526
  637PYPI   C1A10127   6.392   8.821   9.859 -0.0770  0.0505  0.1207
  637PYPI   C2A10128   6.394   8.783   9.269  0.1636  0.0351  0.1617
  637PYPI   D3A10129   6.443   8.935   8.819  0.1822  0.1075  0.4649
  637PYPI   C4A10130   6.385   8.775   8.428 -0.1278  0.2451  0.1673
  637PYPI   C1B10131   6.403   8.321   9.940 -0.3405  0.4807  0.0245
  637PYPI   C2B10132   6.283   8.288   9.444 -0.0841  0.0586 -0.1376
  637PYPI   C3B10133   6.438   8.238   9.049 -0.0347 -0.3317  0.0068
  637PYPI   C4B10134   6.476   8.175   8.658  0.0738  0.1261 -0.0051
  638PYPI    C110135   0.909  17.136  11.043 -0.0736 -0.1259 -0.0589
  638PYPI    C210136   1.166  17.013  10.763 -0.0314 -0.0635 -0.0476
  638PYPI    C310137   1.280  17.030  11.145 -0.0018  0.1159 -0.0631
  638PYPI   PO410138   0.769  17.331  11.000 -0.0614  0.0720  0.1936
  638PYPI   GL110139   0.480  17.484  10.592  0.0449  0.1548 -0.2416
  638PYPI   GL210140   0.588  17.196  10.525 -0.1215  0.0782 -0.0183
  638PYPI   C1A10141   0.578  17.480  10.130  0.2144  0.1671 -0.0912
  638PYPI   C2A10142   0.487  17.445   9.672 -0.1179  0.1463  0.0875
  638PYPI   D3A10143   0.531  17.474   9.266  0.0031 -0.0191 -0.2461
  638PYPI   C4A10144   0.404  17.485   8.871 -0.4400  0.0678 -0.0405
  638PYPI   C1B10145   0.519  16.973  10.134  0.0249  0.0827 -0.2803
  638PYPI   C2B10146   0.448  16.960   9.747  0.0112  0.3869 -0.1417
  638PYPI   C3B10147   0.384  16.999   9.324 -0.0884 -0.1573 -0.1492
  638PYPI   C4B10148   0.321  16.911   8.815  0.0708  0.1422  0.1489
  639PYPI    C110149   0.580  13.296  10.411  0.0189  0.0842  0.2507
  639PYPI    C210150   0.743  13.495  10.717 -0.1158  0.1282  0.2944
  639PYPI    C310151   0.346  13.501  10.663 -0.0751  0.3041 -0.0096
  639PYPI   PO410152   0.743  13.259  10.246  0.0288 -0.0905 -0.0365
  639PYPI   GL110153   0.741  13.320   9.820  0.0587 -0.0360  0.0361
  639PYPI   GL210154   0.846  13.626   9.828 -0.1701  0.1971  0.0170
  639PYPI   C1A10155   0.615  13.235   9.355 -0.0755 -0.0046 -0.0264
  639PYPI   C2A10156   0.779  13.005   8.965  0.2223  0.0102 -0.0264
  639PYPI   D3A10157   0.729  12.684   8.575  0.0321 -0.0429  0.0919
  639PYPI   C4A10158   0.514  12.809   8.219  0.0296  0.4811  0.0103
  639PYPI   C1B10159   0.802  13.733   9.413 -0.2053 -0.1867  0.1405
  639PYPI   C2B10160   0.755  13.788   8.962 -0.0347  0.2612  0.3295
  639PYPI   C3B10161   0.710  13.758   8.600 -0.0274  0.1101  0.0035
  639PYPI   C4B10162   0.778  13.700   8.216 -0.2089 -0.0611 -0.0820
  640PYPI    C110163   4.023  17.368  10.968  0.0335 -0.1187  0.0130
  640PYPI    C210164   4.372  17.203  11.074  0.0964  0.0230  0.0291
  640PYPI    C310165   4.120  17.336  11.355  0.0139 -0.1091  0.0187
  640PYPI   PO410166   4.091  17.534  10.769  0.0490 -0.1234 -0.0575
  640PYPI   GL110167   4.334  17.513  10.357 -0.4308  0.1293  0.0831
  640PYPI   GL210168   4.080  17.414  10.272  0.1908  0.1875  0.0292
  640PYPI   C1A10169   4.479  17.561   9.882 -0.0726 -0.2726 -0.1013
  640PYPI   C2A10170   4.570  17.744   9.471  0.0911  0.0694 -0.1531
  640PYPI   D3A10171   4.626  17.859   9.070 -0.1365  0.2540  0.1546
  640PYPI   C4A10172   4.990  17.615   8.842 -0.1314  0.0487  0.1724
  640PYPI   C1B10173   4.023  17.357   9.924 -0.1288 -0.1550  0.0657
  640PYPI   C2B10174   4.136  17.416   9.578  0.0237  0.2919  0.2585
  640PYPI   C3B10175   4.149  17.493   9.084 -0.1353 -0.0921 -0.0725
  640PYPI   C4B10176   4.431  17.539   8.710  0.1794  0.3748  0.0035
  641ERGO   ROH10177   1.766  11.721   9.689 -0.3087  0.0879 -0.0371
  641ERGO    R110178   1.896  11.677   9.441 -0.0853  0.2595  0.0475
  641ERGO    R210179   1.777  11.537   9.234  0.2333  0.1128 -0.0293
  641ERGO    R310180   1.836  11.762   9.093  0.0406  0.1883  0.0046
  641ERGO    R410181   1.815  11.552   8.891  0.6112  0.0882  0.0057
  641ERGO    R510182   1.982  11.687   8.919  0.3755  0.3729  0.1861
  641ERGO    C110183   1.892  11.772   8.559  0.6503  0.1446  0.0581
  641ERGO    C210184   1.898  11.774   8.141 -0.0564 -0.1101 -0.0301
  642ERGO   ROH10185   5.359  13.593   9.764 -0.2367 -0.0785  0.0986
  642ERGO    R110186   5.290  13.481   9.514 -0.0641  0.0339 -0.0006
  642ERGO    R210187   5.184  13.632   9.307  0.0177  0.1127  0.0193
  642ERGO    R310188   5.392  13.526   9.167  0.1236  0.2387  0.0771
  642ERGO    R410189   5.186  13.583   8.965 -0.0041 -0.2004  0.0605
  642ERGO    R510190   5.286  13.392   8.998  0.2450 -0.0535  0.2204
  642ERGO    C110191   5.382  13.455   8.634  0.0826 -0.2646  0.1387
  642ERGO    C210192   5.240  13.527   8.335 -0.0990  0.5343 -0.0102
  643ERGO   ROH10193   8.058   6.863  10.718 -0.1654 -0.1085  0.0599
  643ERGO    R110194   8.091   6.682  10.503 -0.0456 -0.0971  0.0686
  643ERGO    R210195   7.935   6.691  10.275  0.0203 -0.1439  0.0236
  643ERGO    R310196   8.176   6.703  10.150  0.0534 -0.0708  0.0928
  643ERGO    R410197   7.980   6.671   9.933  0.1406 -0.4095  0.0525
  643ERGO    R510198   8.156   6.547   9.969  0.2274 -0.2479  0.2201
  643ERGO    C110199   8.232   6.670   9.616  0.2418 -0.4956  0.1345
  643ERGO    C210200   8.186   6.773   9.304 -0.1432 -0.1132  0.0462
  644ERGO   ROH10201  16.232   6.251  10.412 -0.0746  0.1690 -0.1310
  644ERGO    R110202  16.244   6.072  10.194 -0.1869  0.1065 -0.0857
  644ERGO    R210203  16.035   6.040  10.016 -0.1265  0.3536 -0.2012
  644ERGO    R310204  16.226   6.095   9.831  0.0607  0.0561 -0.1032
  644ERGO    R410205  16.011   5.967   9.679 -0.1261  0.4998 -0.2339
  644ERGO    R510206  16.220   5.907   9.682 -0.2285  0.1048 -0.1616
  644ERGO    C110207  16.177   5.976   9.309  0.0499  0.3057 -0.1609
  644ERGO    C210208  16.148   5.922   9.006 -0.3203 -0.3480  0.1155
  645ERGO   ROH10209  14.241   8.585   6.335  0.0076  0.0958  0.0400
  645ERGO    R110210  14.185   8.662   6.602 -0.0838  0.0241  0.0422
  645ERGO    R210211  14.352   8.601   6.813 -0.0899  0.0790  0.0651
  645ERGO    R310212  14.343   8.869   6.856 -0.2403  0.0681  0.1043
  645ERGO    R410213  14.351   8.749   7.125  0.2024  0.0449  0.0854
  645ERGO    R510214  14.203   8.892   7.050 -0.0077 -0.0599  0.2912
  645ERGO    C110215  14.341   9.088   7.347  0.2315  0.0148  0.1342
  645ERGO    C210216  14.156   9.050   7.686 -0.0309  0.1262 -0.1277
  646ERGO   ROH10217  13.591   1.580  10.646 -0.0140  0.2908  0.1291
  646ERGO    R110218  13.715   1.653  10.402 -0.1442  0.3700  0.0862
  646ERGO    R210219  13.842   1.469  10.239  0.0601  0.4772  0.1273
  646ERGO    R310220  13.675   1.570  10.050 -0.0971  0.2073  0.1173
  646ERGO    R410221  13.893   1.447   9.898  0.0217  0.3865  0.1270
  646ERGO    R510222  13.821   1.651   9.878 -0.2182  0.3024  0.0536
  646ERGO    C110223  13.765   1.528   9.522 -0.1480  0.0803  0.1175
  646ERGO    C210224  13.784   1.608   9.255  0.0816 -0.1655  0.0694
  647ERGO   ROH10225   9.301  10.350  10.224 -0.1093 -0.1157  0.0028
  647ERGO    R110226   9.136  10.319   9.996 -0.0612 -0.2079 -0.0195
  647ERGO    R210227   9.134  10.501   9.788 -0.2110 -0.1521  0.0300
  647ERGO    R310228   9.185  10.281   9.638  0.0075 -0.0666 -0.0260
  647ERGO    R410229   9.120  10.488   9.443 -0.1037 -0.0587  0.0211
  647ERGO    R510230   9.028  10.292   9.458  0.0481 -0.1380 -0.0659
  647ERGO    C110231   9.160  10.273   9.101  0.1639  0.0762 -0.0366
  647ERGO    C210232   9.207  10.214   8.693  0.3704  0.1855  0.1017
  648ERGO   ROH10233   8.101   2.500   9.952  0.0872  0.0935  0.0772
  648ERGO    R110234   7.984   2.540   9.698  0.1545  0.3900  0.0884
  648ERGO    R210235   8.083   2.723   9.515  0.6713  0.0797  0.0325
  648ERGO    R310236   8.088   2.507   9.350  0.0114  0.0113  0.0791
  648ERGO    R410237   8.047   2.735   9.171  0.6892  0.1065  0.0324
  648ERGO    R510238   7.924   2.556   9.183  0.1407  0.4681  0.0787
  648ERGO    C110239   8.031   2.540   8.817  0.0803  0.0580  0.0761
  648ERGO    C210240   8.009   2.604   8.484  0.1736 -0.4418  0.4492
  649ERGO   ROH10241   3.600   7.781  10.017  0.0400 -0.2788 -0.1091
  649ERGO    R110242   3.552   7.920   9.775  0.0228 -0.0848  0.0022
  649ERGO    R210243   3.732   7.918   9.565  0.0047  0.0754 -0.0196
  649ERGO    R310244   3.517   7.833   9.423 -0.0105  0.1927 -0.0638
  649ERGO    R410245   3.722   7.888   9.221  0.0327  0.1415 -0.0257
  649ERGO    R510246   3.519   7.968   9.225  0.0697  0.2242 -0.0381
  649ERGO    C110247   3.514   7.790   8.887  0.0348  0.2900 -0.0707
  649ERGO    C210248   3.718   7.802   8.688 -0.0989  0.0959 -0.2713
  650ERGO   ROH10249  10.269  16.870  10.083  0.1674  0.3393  0.0650
  650ERGO    R110250  10.312  17.019   9.846  0.1591  0.2938  0.0347
  650ERGO    R210251  10.550  17.013   9.707  0.1041  0.1554 -0.0523
  650ERGO    R310252  10.390  16.947   9.498 -0.0059  0.2200  0.0113
  650ERGO    R410253  10.659  16.972   9.382  0.0084 -0.1084 -0.0531
  650ERGO    R510254  10.478  17.073   9.314  0.0947  0.0481 -0.0651
  650ERGO    C110255  10.571  16.886   8.996 -0.1506 -0.2017  0.0063
  650ERGO    C210256  10.630  16.986   8.623 -0.0465  0.1609  0.1286
  651ERGO   ROH10257   0.400   8.206  10.149  0.0658 -0.0673 -0.1091
  651ERGO    R110258   0.373   8.306   9.886  0.0372 -0.0419 -0.0978
  651ERGO    R210259   0.570   8.275   9.694  0.0344  0.0082 -0.1150
  651ERGO    R310260   0.367   8.167   9.549  0.0418 -0.0080 -0.1108
  651ERGO    R410261   0.568   8.249   9.350 -0.0352  0.1344 -0.1238
  651ERGO    R510262   0.356   8.304   9.353 -0.0510  0.0584 -0.0567
  651ERGO    C110263   0.376   8.132   9.013 -0.0689  0.1926 -0.1249
  651ERGO    C210264   0.523   8.218   8.729  0.1080 -0.2343  0.0661
  652ERGO   ROH10265  16.962  16.183  10.335  0.0185  0.0797 -0.0313
  652ERGO    R110266  16.872  16.314  10.100  0.0449  0.0747 -0.0458
  652ERGO    R210267  17.045  16.432   9.920  0.0739  0.0062 -0.0730
  652ERGO    R310268  16.917  16.273   9.741  0.0227  0.0127 -0.0399
  652ERGO    R410269  17.077  16.455   9.576 -0.0433  0.0173 -0.0822
  652ERGO    R510270  16.863  16.419   9.559 -0.0414  0.0123 -0.0151
  652ERGO    C110271  16.974  16.318   9.209 -0.1597  0.0295 -0.0565
  652ERGO    C210272  16.887  16.292   8.795 -0.2258 -0.0595  0.0676
  653ERGO   ROH10273   4.056   6.108  10.114 -0.1005 -0.0281  0.0655
  653ERGO    R110274   3.983   5.982   9.871  0.0357  0.0048  0.0069
  653ERGO    R210275   3.860   6.117   9.665 -0.0490 -0.0170  0.0450
  653ERGO    R310276   4.066   6.018   9.519  0.0526  0.2102  0.0303
  653ERGO    R410277   3.889   6.146   9.322 -0.3001 -0.2995 -0.0046
  653ERGO    R510278   3.964   5.940   9.316  0.0709 -0.1795  0.1617
  653ERGO    C110279   4.101   6.069   8.985 -0.3510 -0.2506 -0.0473
  653ERGO    C210280   4.100   5.964   8.693 -0.0629 -0.1261  0.0085
  654ERGO   ROH10281  12.881   1.529  10.609  0.1091  0.3145  0.0371
  654ERGO    R110282  12.894   1.647  10.352  0.1035  0.1473 -0.0387
  654ERGO    R210283  13.072   1.563  10.159 -0.0599 -0.1270 -0.0590
  654ERGO    R310284  12.847   1.538  10.009 -0.1432 -0.0145  0.0406
  654ERGO    R410285  13.051   1.633   9.821 -0.1774 -0.0324 -0.0347
  654ERGO    R510286  12.855   1.722   9.856 -0.1415  0.0313  0.0819
  654ERGO    C110287  12.827   1.649   9.483 -0.3240  0.1284  0.0729
  654ERGO    C210288  12.824   1.730   9.123  0.1588 -0.0434 -0.0880
  655ERGO   ROH10289   1.713   6.935  10.011 -0.0417 -0.2434  0.1194
  655ERGO    R110290   1.633   6.877   9.745  0.0160 -0.2020  0.0935
  655ERGO    R210291   1.648   7.064   9.542 -0.0753 -0.1248  0.1595
  655ERGO    R310292   1.790   6.869   9.417  0.0509  0.0003  0.1031
  655ERGO    R410293   1.656   7.013   9.200 -0.2362 -0.1713  0.1610
  655ERGO    R510294   1.649   6.798   9.237  0.0084 -0.1754  0.2018
  655ERGO    C110295   1.794   6.800   8.884 -0.2115 -0.0810  0.1090
  655ERGO    C210296   1.710   6.943   8.636  0.2831  0.0411  0.1686
  656ERGO   ROH10297   3.243  13.074   9.771 -0.2465  0.1297 -0.0112
  656ERGO    R110298   3.414  13.118   9.551 -0.1584  0.2169  0.0737
  656ERGO    R210299   3.396  12.973   9.316  0.0859  0.1501  0.0945
  656ERGO    R310300   3.377  13.219   9.203 -0.0463  0.1113  0.0299
  656ERGO    R410301   3.448  13.040   8.982  0.2335  0.1134  0.1097
  656ERGO    R510302   3.553  13.223   9.040  0.0523  0.2141  0.1341
  656ERGO    C110303   3.462  13.311   8.680  0.1953  0.0556  0.0578
  656ERGO    C210304   3.466  13.303   8.328  0.0153 -0.2925 -0.1612
  657ERGO   ROH10305   3.781  14.368  10.102  0.2819 -0.2510  0.0023
  657ERGO    R110306   3.789  14.293   9.829 -0.0025 -0.4052  0.0321
  657ERGO    R210307   3.576  14.171   9.702 -0.4055  0.1372  0.1435
  657ERGO    R310308   3.605  14.376   9.527  0.1447 -0.0067  0.0475
  657ERGO    R410309   3.533  14.146   9.360 -0.3990  0.0836  0.1467
  657ERGO    R510310   3.706  14.277   9.334 -0.0606 -0.3538  0.1137
  657ERGO    C110311   3.535  14.325   8.996  0.1213 -0.0827  0.0585
  657ERGO    C210312   3.566  14.351   8.654 -0.0726 -0.1662 -0.2206
  658ERGO   ROH10313  10.577  12.012  10.225  0.1163 -0.1622 -0.1010
  658ERGO    R110314  10.528  12.114   9.965  0.1374  0.0072 -0.0400
  658ERGO    R210315  10.730  12.204   9.800  0.1680 -0.0283 -0.0240
  658ERGO    R310316  10.622  12.026   9.625  0.0301  0.1295 -0.1014
  658ERGO    R410317  10.780  12.207   9.458  0.3712 -0.0671  0.0041
  658ERGO    R510318  10.570  12.157   9.431  0.3168  0.2162 -0.1227
  658ERGO    C110319  10.708  12.043   9.094  0.3600  0.0586 -0.0522
  658ERGO    C210320  10.637  12.053   8.831  0.2038 -0.0718 -0.0795
  659ERGO   ROH10321  11.214  16.469  10.339  0.3512 -0.0352  0.0814
  659ERGO    R110322  11.326  16.322  10.124  0.2835  0.0564 -0.0180
  659ERGO    R210323  11.181  16.252   9.900  0.1512 -0.0300  0.0899
  659ERGO    R310324  11.385  16.375   9.770 -0.0367  0.1223 -0.0631
  659ERGO    R410325  11.268  16.196   9.570  0.0410 -0.0682  0.0672
  659ERGO    R510326  11.478  16.205   9.629  0.0603  0.1619 -0.0437
  659ERGO    C110327  11.511  16.278   9.256 -0.1998  0.0523 -0.0896
  659ERGO    C210328  11.456  16.273   8.971 -0.1368  0.0896 -0.2811
  660ERGO   ROH10329  13.712  11.208  10.091  0.2930 -0.1285 -0.0560
  660ERGO    R110330  13.588  11.285   9.848  0.1997 -0.1190 -0.0057
  660ERGO    R210331  13.718  11.435   9.655  0.0908 -0.0219 -0.0039
  660ERGO    R310332  13.645  11.229   9.493  0.1294 -0.0116 -0.0345
  660ERGO    R410333  13.704  11.451   9.310  0.0154  0.0517  0.0024
  660ERGO    R510334  13.520  11.333   9.317  0.0567 -0.0146  0.0141
  660ERGO    C110335  13.627  11.267   8.957  0.0077  0.1042 -0.0228
  660ERGO    C210336  13.711  11.316   8.625 -0.1155  0.0410 -0.0448
  661ERGO   ROH10337  15.963  10.339  10.182 -0.1842  0.2688  0.0794
  661ERGO    R110338  15.947  10.136   9.985  0.0536  0.1741  0.1558
  661ERGO    R210339  15.711  10.072   9.857  0.1200 -0.1836  0.2173
  661ERGO    R310340  15.859  10.116   9.633  0.0248 -0.0748  0.1731
  661ERGO    R410341  15.656   9.921   9.551 -0.0129 -0.0565  0.1760
  661ERGO    R510342  15.872   9.901   9.527 -0.0131 -0.0365  0.0752
  661ERGO    C110343  15.762   9.874   9.163 -0.1796  0.1198  0.1105
  661ERGO    C210344  15.765   9.778   8.891 -0.0891  0.0789  0.0863
  662ERGO   ROH10345  12.807  10.782  10.211  0.0179 -0.0882  0.0589
  662ERGO    R110346  12.703  10.683   9.967  0.0710 -0.0551  0.0227
  662ERGO    R210347  12.564  10.842   9.788 -0.0055 -0.0607  0.0762
  662ERGO    R310348  12.750  10.750   9.613  0.0436  0.0924  0.0465
  662ERGO    R410349  12.534  10.850   9.444 -0.0107  0.0267  0.0785
  662ERGO    R510350  12.623  10.652   9.436  0.0959  0.0770  0.0176
  662ERGO    C110351  12.691  10.769   9.079  0.0324  0.2213  0.0519
  662ERGO    C210352  12.661  10.838   8.718 -0.0740  0.0763 -0.3977
  663ERGO   ROH10353  13.793  14.842  10.002  0.0597  0.1079  0.0224
  663ERGO    R110354  13.807  14.721   9.747  0.1008 -0.0304  0.0884
  663ERGO    R210355  13.657  14.810   9.531  0.0980 -0.1750  0.0249
  663ERGO    R310356  13.900  14.823   9.410  0.1057 -0.1949  0.0396
  663ERGO    R410357  13.708  14.803   9.190  0.1173 -0.0929  0.0267
  663ERGO    R510358  13.881  14.676   9.223  0.0853 -0.1375 -0.0007
  663ERGO    C110359  13.965  14.813   8.877  0.1358 -0.0638  0.0414
  663ERGO    C210360  13.794  14.846   8.538 -0.3783  0.0043  0.0898
  664ERGO   ROH10361   0.050  13.970   9.997  0.1356 -0.0833 -0.1759
  664ERGO    R110362  -0.078  14.110   9.787  0.1345  0.0555 -0.0858
  664ERGO    R210363   0.047  14.312   9.645  0.2404 -0.0471 -0.1468
  664ERGO    R310364  -0.022  14.160   9.431 -0.0366  0.0301 -0.1171
  664ERGO    R410365   0.042  14.423   9.318  0.3165 -0.0618 -0.1525
  664ERGO    R510366  -0.142  14.310   9.288  0.1394  0.1970 -0.0957
  664ERGO    C110367  -0.025  14.346   8.926  0.1008  0.0019 -0.1280
  664ERGO    C210368   0.010  14.415   8.628  0.2060  0.3947 -0.0765
  665ERGO   ROH10369  13.249   7.985  10.479  0.3515 -0.1551 -0.0788
  665ERGO    R110370  13.147   7.832  10.264  0.2306 -0.0766 -0.0791
  665ERGO    R210371  12.978   7.938  10.073  0.1857  0.0140  0.0097
  665ERGO    R310372  13.165   7.843   9.900  0.0965  0.0075 -0.0840
  665ERGO    R410373  12.932   7.901   9.732  0.0668  0.1690  0.0081
  665ERGO    R510374  13.041   7.712   9.743 -0.0043  0.1199 -0.0998
  665ERGO    C110375  13.081   7.790   9.372 -0.0861  0.2531 -0.0808
  665ERGO    C210376  13.052   7.759   8.914  0.0255  0.3729 -0.1797
  666ERGO   ROH10377   4.973  13.188   9.884  0.1366 -0.0950  0.0386
  666ERGO    R110378   4.858  13.163   9.626  0.1700 -0.0935  0.0224
  666ERGO    R210379   4.828  13.378   9.455 -0.0452 -0.0382  0.1178
  666ERGO    R310380   4.965  13.219   9.283  0.1300  0.1777  0.0540
  666ERGO    R410381   4.797  13.387   9.111 -0.0191  0.0772  0.1184
  666ERGO    R510382   4.807  13.169   9.110  0.2012  0.0926  0.0200
  666ERGO    C110383   4.908  13.241   8.749  0.1605  0.3469  0.0588
  666ERGO    C210384   4.820  13.314   8.448  0.1902  0.0312 -0.0306
  667ERGO   ROH10385  12.529  17.492   6.584 -0.0312 -0.0389 -0.0967
  667ERGO    R110386  12.569  17.549   6.858 -0.1618  0.0062 -0.0868
  667ERGO    R210387  12.361  17.600   7.032 -0.2577 -0.1818 -0.1508
  667ERGO    R310388  12.475  17.399   7.176 -0.1139 -0.0729 -0.1082
  667ERGO    R410389  12.421  17.610   7.372 -0.1311 -0.0064 -0.1758
  667ERGO    R510390  12.612  17.511   7.337 -0.0986  0.0604 -0.2083
  667ERGO    C110391  12.563  17.427   7.705  0.0776  0.1984 -0.1504
  667ERGO    C210392  12.553  17.399   8.050 -0.2059  0.0831 -0.2789
  668ERGO   ROH10393  12.144   2.269  10.491 -0.1254  0.1490  0.1757
  668ERGO    R110394  12.008   2.370  10.264 -0.0514  0.1413  0.1276
  668ERGO    R210395  12.095   2.593  10.126  0.0648  0.0613  0.0722
  668ERGO    R310396  12.084   2.425   9.913  0.0182  0.0027  0.1204
  668ERGO    R410397  12.058   2.692   9.797  0.1044 -0.0205  0.0427
  668ERGO    R510398  11.923   2.524   9.766  0.0523  0.0117  0.0877
  668ERGO    C110399  12.026   2.591   9.405  0.0837 -0.1231  0.0707
  668ERGO    C210400  12.098   2.666   9.006 -0.2768  0.3148 -0.0750
  669ERGO   ROH10401   0.982  12.056   9.663 -0.0264  0.0403  0.0696
  669ERGO    R110402   0.878  12.136   9.413 -0.0039  0.1100  0.0807
  669ERGO    R210403   1.003  12.324   9.253  0.0562  0.1026  0.1087
  669ERGO    R310404   0.988  12.127   9.066 -0.0006  0.1279  0.0812
  669ERGO    R410405   1.014  12.374   8.911  0.1919  0.1291  0.1175
  669ERGO    R510406   0.859  12.222   8.889  0.1095  0.2204  0.0515
  669ERGO    C110407   1.005  12.218   8.537  0.2176  0.1683  0.0967
  669ERGO    C210408   1.022  12.156   8.201 -0.1636 -0.3471  0.1067
  670ERGO   ROH10409   7.512  17.658  10.089 -0.1420  0.0128 -0.0561
  670ERGO    R110410   7.498  17.540   9.832 -0.1599  0.0242 -0.0605
  670ERGO    R210411   7.292  17.592   9.655 -0.1409  0.0799 -0.0687
  670ERGO    R310412   7.497  17.655   9.487 -0.1171  0.0365 -0.0559
  670ERGO    R410413   7.282  17.562   9.311 -0.1693  0.2121 -0.0797
  670ERGO    R510414   7.487  17.488   9.316 -0.2087  0.1059 -0.1168
  670ERGO    C110415   7.468  17.604   8.953 -0.1634  0.2483 -0.0742
  670ERGO    C210416   7.408  17.701   8.617 -0.0795 -0.2895 -0.0386
  671ERGO   ROH10417   0.620   1.072  10.292 -0.1804  0.2502 -0.0779
  671ERGO    R110418   0.668   1.163  10.029 -0.0009 -0.0042 -0.1382
  671ERGO    R210419   0.805   1.014   9.842 -0.1616 -0.3319 -0.0060
  671ERGO    R310420   0.583   1.056   9.691 -0.0797 -0.1379 -0.0756
  671ERGO    R410421   0.789   0.975   9.499 -0.0932 -0.3120 -0.0114
  671ERGO    R510422   0.665   1.155   9.489  0.0654 -0.2068 -0.0487
  671ERGO    C110423   0.570   0.992   9.158  0.0235 -0.1182 -0.0799
  671ERGO    C210424   0.588   0.936   8.781 -0.0356  0.0187  0.2834
  672ERGO   ROH10425   9.261   5.108  10.362 -0.2044 -0.0061 -0.1369
  672ERGO    R110426   9.263   5.266  10.127 -0.2524 -0.0279 -0.1517
  672ERGO    R210427   9.496   5.327   9.990 -0.2628  0.0942 -0.1124
  672ERGO    R310428   9.361   5.220   9.779 -0.1608 -0.0044 -0.1297
  672ERGO    R410429   9.570   5.384   9.657 -0.1047 -0.0530 -0.1048
  672ERGO    R510430   9.357   5.395   9.616 -0.0877 -0.0759 -0.2113
  672ERGO    C110431   9.486   5.318   9.266  0.0832 -0.2312 -0.1166
  672ERGO    C210432   9.520   5.370   8.882 -0.3263 -0.2568 -0.2015
  673ERGO   ROH10433   5.747   0.963  10.065  0.0037 -0.1048 -0.0257
  673ERGO    R110434   5.630   1.097   9.844  0.1362  0.1190  0.0375
  673ERGO    R210435   5.751   1.312   9.719  0.4697 -0.0939 -0.0089
  673ERGO    R310436   5.718   1.160   9.497  0.0816 -0.0261 -0.0045
  673ERGO    R410437   5.713   1.436   9.399  0.6030  0.0085  0.0133
  673ERGO    R510438   5.562   1.283   9.364  0.2720  0.3035  0.0593
  673ERGO    C110439   5.658   1.365   9.004  0.3162  0.1318  0.0303
  673ERGO    C210440   5.735   1.407   8.725 -0.0502  0.0007 -0.0091
  674PSPI    C110441   7.875   4.725   5.836  0.0950  0.3808  0.1820
  674PSPI    C210442   8.202   4.609   5.637 -0.1191  0.1114 -0.0197
  674PSPI    C310443   8.048   4.972   5.573 -0.2049  0.0159 -0.3771
  674PSPI   PO410444   7.927   4.676   6.183 -0.0762  0.0972 -0.0530
  674PSPI   GL110445   7.872   4.861   6.607  0.1048  0.2503 -0.2029
  674PSPI   GL210446   8.039   5.086   6.588 -0.1485 -0.2464 -0.1864
  674PSPI   C1A10447   7.447   4.866   6.811 -0.0396  0.1546 -0.1513
  674PSPI   C2A10448   7.073   4.854   7.097  0.1077 -0.1493 -0.2194
  674PSPI   C3A10449   6.996   4.936   7.531  0.1661 -0.0727  0.1365
  674PSPI   C4A10450   7.113   4.771   7.847 -0.1638  0.0415 -0.1342
  674PSPI   C1B10451   7.976   4.917   7.077  0.2425 -0.4014 -0.3996
  674PSPI   C2B10452   8.089   4.760   7.513 -0.0645 -0.1158 -0.0358
  674PSPI   C3B10453   7.941   4.473   7.864  0.0409 -0.3894  0.1807
  674PSPI   C4B10454   8.176   4.424   8.234 -0.0021 -0.0853  0.1295
  675PSPI    C110455   4.036  12.375   5.549  0.0304 -0.0770 -0.1411
  675PSPI    C210456   4.238  12.627   5.312 -0.0657 -0.0362 -0.1801
  675PSPI    C310457   3.936  12.411   5.163 -0.1354 -0.0005 -0.0922
  675PSPI   PO410458   4.150  12.271   5.767  0.2805 -0.0235 -0.0338
  675PSPI   GL110459   4.485  12.295   6.146  0.1532 -0.0963 -0.1074
  675PSPI   GL210460   4.256  12.055   6.228 -0.1300 -0.2483 -0.1640
  675PSPI   C1A10461   4.550  12.477   6.583  0.2145 -0.0846  0.2292
  675PSPI   C2A10462   4.763  12.379   7.012 -0.3578  0.2485  0.0596
  675PSPI   C3A10463   4.714  12.347   7.512  0.0021 -0.2766 -0.1667
  675PSPI   C4A10464   4.436  12.592   7.737 -0.0822  0.1114 -0.0437
  675PSPI   C1B10465   4.105  12.196   6.676 -0.2821  0.1372 -0.0786
  675PSPI   C2B10466   4.214  12.269   7.010  0.1773 -0.0767  0.2106
  675PSPI   C3B10467   4.029  12.440   7.382  0.1474  0.2156  0.1731
  675PSPI   C4B10468   3.759  12.668   7.599 -0.1716 -0.1940  0.4036
  676PSPI    C110469   4.518   0.714   5.777 -0.0857 -0.0194 -0.1263
  676PSPI    C210470   4.736   0.575   5.471  0.2087  0.0925  0.0289
  676PSPI    C310471   4.915   0.684   5.812 -0.0645  0.4204  0.0735
  676PSPI   PO410472   4.371   0.520   5.799  0.0391 -0.1099  0.1640
  676PSPI   GL110473   4.356   0.183   6.212 -0.1057  0.2653  0.0192
  676PSPI   GL210474   4.293   0.408   6.392  0.0408  0.3019  0.1101
  676PSPI   C1A10475   4.394   0.011   6.647 -0.1037  0.2998 -0.0877
  676PSPI   C2A10476   4.611  -0.156   7.032 -0.1386  0.0903 -0.0987
  676PSPI   C3A10477   4.718  -0.161   7.409  0.2610  0.0069  0.2785
  676PSPI   C4A10478   4.914  -0.238   7.799  0.1710 -0.1596  0.1837
  676PSPI   C1B10479   4.187   0.448   6.802 -0.2062 -0.3260  0.2147
  676PSPI   C2B10480   4.265   0.189   7.231  0.2029  0.1034  0.1084
  676PSPI   C3B10481   4.403   0.257   7.596  0.2889  0.1181  0.0679
  676PSPI   C4B10482   4.632   0.101   8.025  0.3219 -0.0284 -0.0413
  677PSPI    C110483  16.712   1.437   6.072  0.0781 -0.1209 -0.2016
  677PSPI    C210484  16.424   1.564   5.824 -0.0339 -0.0842 -0.0543
  677PSPI    C310485  16.491   1.172   5.870 -0.2519 -0.1021  0.1243
  677PSPI   PO410486  16.637   1.524   6.324 -0.0667  0.2239  0.2276
  677PSPI   GL110487  16.429   1.498   6.668 -0.0524  0.0254 -0.2953
  677PSPI   GL210488  16.171   1.615   6.641  0.1111 -0.0273  0.1855
  677PSPI   C1A10489  16.513   1.283   7.138  0.4825  0.2914 -0.1074
  677PSPI   C2A10490  16.626   1.362   7.576  0.0753 -0.1391 -0.1887
  677PSPI   C3A10491  16.747   1.602   7.994  0.3889 -0.2188 -0.4637
  677PSPI   C4A10492  16.567   1.815   8.379  0.0876  0.2138 -0.1864
  677PSPI   C1B10493  16.169   1.672   7.049  0.0258 -0.0345  0.1151
  677PSPI   C2B10494  16.156   1.841   7.471 -0.0893 -0.0502  0.3821
  677PSPI   C3B10495  15.944   2.013   7.793  0.2048 -0.1144  0.0950
  677PSPI   C4B10496  15.919   2.491   7.841 -0.2667  0.1580  0.2826
  678PSPI    C110497  12.807   7.141   5.979  0.2131 -0.1154  0.0813
  678PSPI    C210498  12.953   7.513   5.964  0.0496 -0.0585 -0.1488
  678PSPI    C310499  13.200   7.199   5.936  0.1829  0.0319 -0.0007
  678PSPI   PO410500  12.632   7.179   6.203  0.1440 -0.0546 -0.2016
  678PSPI   GL110501  12.612   7.086   6.616 -0.0794  0.1383 -0.1932
  678PSPI   GL210502  12.715   7.025   6.889 -0.3031  0.0638 -0.2737
  678PSPI   C1A10503  12.525   7.511   6.976 -0.1051  0.0676 -0.0991
  678PSPI   C2A10504  12.139   7.650   7.265 -0.0910 -0.0585  0.2387
  678PSPI   C3A10505  11.941   7.767   7.643 -0.2553 -0.2223  0.1272
  678PSPI   C4A10506  11.589   7.819   7.862 -0.0584 -0.3022  0.1595
  678PSPI   C1B10507  12.660   7.186   7.281 -0.2432 -0.2022 -0.3401
  678PSPI   C2B10508  12.540   7.589   7.521 -0.2353  0.1676  0.1323
  678PSPI   C3B10509  12.354   7.668   7.917 -0.0398  0.0073  0.1515
  678PSPI   C4B10510  12.513   7.775   8.281 -0.3612 -0.0618 -0.1746
  679PSPI    C110511   6.180  14.483   5.837  0.1397  0.0914  0.0095
  679PSPI    C210512   6.253  14.477   5.444  0.0153 -0.0766 -0.0125
  679PSPI    C310513   5.949  14.694   5.588 -0.1247 -0.2506 -0.0430
  679PSPI   PO410514   6.131  14.254   5.902  0.1746 -0.1789 -0.1186
  679PSPI   GL110515   5.980  13.996   6.194  0.1455 -0.2714  0.0872
  679PSPI   GL210516   5.971  13.636   6.237 -0.2023  0.0886 -0.2486
  679PSPI   C1A10517   5.871  14.101   6.660  0.0490 -0.0716  0.0948
  679PSPI   C2A10518   5.928  14.204   7.137  0.0690 -0.1360  0.2401
  679PSPI   C3A10519   5.840  13.984   7.546 -0.1982  0.1445 -0.2691
  679PSPI   C4A10520   5.701  13.702   7.914 -0.0216  0.2262  0.2437
  679PSPI   C1B10521   5.950  13.292   6.561 -0.0251 -0.1024 -0.1804
  679PSPI   C2B10522   5.834  13.305   6.986  0.1797 -0.0628  0.1651
  679PSPI   C3B10523   5.831  13.308   7.419 -0.0317  0.2630 -0.1916
  679PSPI   C4B10524   5.987  13.267   7.824 -0.2065  0.0951  0.0660
  680PSPI    C110525  15.133   1.644   6.065 -0.0558 -0.0625  0.1691
  680PSPI    C210526  15.273   1.872   6.363  0.1496 -0.0807  0.0883
  680PSPI    C310527  15.420   1.913   5.993 -0.0651 -0.0968 -0.0006
  680PSPI   PO410528  15.054   1.456   6.217  0.2755  0.1158 -0.2526
  680PSPI   GL110529  14.998   1.521   6.623 -0.2105 -0.0725  0.7467
  680PSPI   GL210530  14.729   1.308   6.664 -0.2913 -0.0381 -0.2261
  680PSPI   C1A10531  14.755   1.794   6.808  0.0246  0.1574 -0.0264
  680PSPI   C2A10532  14.787   1.821   7.261  0.0659  0.1701 -0.0361
  680PSPI   C3A10533  14.508   1.850   7.671 -0.2149  0.1798 -0.0848
  680PSPI   C4A10534  14.411   1.757   8.003 -0.0530  0.0545 -0.1875
  680PSPI   C1B10535  14.445   1.392   6.883 -0.1472 -0.2293  0.2572
  680PSPI   C2B10536  14.466   1.469   7.343  0.1275  0.0305 -0.1887
  680PSPI   C3B10537  14.376   1.324   7.804  0.0033 -0.3671  0.0768
  680PSPI   C4B10538  14.601   1.357   8.144  0.2224  0.0321  0.1293
  681PSPI    C110539  16.314   8.959   5.852 -0.0439 -0.0194  0.0293
  681PSPI    C210540  16.154   8.628   5.694 -0.1224 -0.0203  0.1097
  681PSPI    C310541  16.550   8.685   5.681 -0.1325  0.0027 -0.1299
  681PSPI   PO410542  16.176   8.938   6.125 -0.1358 -0.1126  0.2907
  681PSPI   GL110543  15.965   8.701   6.434  0.0916  0.0653 -0.5074
  681PSPI   GL210544  15.828   8.951   6.522 -0.4792  0.1047 -0.1107
  681PSPI   C1A10545  16.289   8.652   6.762 -0.2273 -0.0847 -0.0184
  681PSPI   C2A10546  16.411   8.598   7.203 -0.0132 -0.0758 -0.0360
  681PSPI   C3A10547  16.179   8.610   7.607  0.0741 -0.3211 -0.1102
  681PSPI   C4A10548  15.971   8.310   7.820  0.3055  0.0255  0.2590
  681PSPI   C1B10549  15.925   9.011   6.907  0.2760 -0.0625  0.0653
  681PSPI   C2B10550  16.063   9.021   7.318 -0.2624  0.0708 -0.1128
  681PSPI   C3B10551  16.128   9.136   7.737 -0.0150  0.0878 -0.2231
  681PSPI   C4B10552  15.952   9.163   8.211 -0.1674  0.1060 -0.2999
  682PSPI    C110553   3.193  15.712   5.582 -0.0706  0.1151  0.0312
  682PSPI    C210554   3.230  16.085   5.720 -0.1988  0.2218 -0.2174
  682PSPI    C310555   3.443  15.968   5.403  0.0071  0.0139 -0.0061
  682PSPI   PO410556   3.227  15.482   5.772  0.2362 -0.0621 -0.0913
  682PSPI   GL110557   3.297  15.244   6.153  0.1868 -0.0125  0.1252
  682PSPI   GL210558   3.162  15.123   6.387  0.1824  0.4469 -0.0958
  682PSPI   C1A10559   3.391  15.504   6.574  0.0188  0.2258  0.0338
  682PSPI   C2A10560   3.386  15.604   6.996 -0.0830 -0.1972 -0.0975
  682PSPI   C3A10561   3.241  15.413   7.397 -0.0444  0.1192 -0.0551
  682PSPI   C4A10562   3.325  15.316   7.797  0.0603  0.1246 -0.0651
  682PSPI   C1B10563   3.564  14.941   6.571  0.2598 -0.0525  0.0048
  682PSPI   C2B10564   3.643  14.691   6.926  0.1560 -0.3082 -0.1511
  682PSPI   C3B10565   3.826  14.703   7.269  0.1289  0.1420 -0.1505
  682PSPI   C4B10566   4.018  14.749   7.647  0.2720 -0.0394 -0.1222
  683PSPI    C110567  10.822  16.953   5.773 -0.1585 -0.0520 -0.0222
  683PSPI    C210568  11.058  17.107   5.489 -0.0913 -0.3091 -0.1091
  683PSPI    C310569  10.684  17.243   5.534  0.0136 -0.0219 -0.0860
  683PSPI   PO410570  10.996  17.020   5.992  0.0247 -0.0700 -0.3506
  683PSPI   GL110571  11.096  16.850   6.322  0.0413 -0.1414  0.0496
  683PSPI   GL210572  11.391  16.798   6.532 -0.0315 -0.0408 -0.0668
  683PSPI   C1A10573  11.055  17.174   6.752  0.2126 -0.0758 -0.2665
  683PSPI   C2A10574  11.085  17.228   7.079  0.1867 -0.1512 -0.2189
  683PSPI   C3A10575  10.975  17.275   7.487  0.4396  0.1623 -0.2598
  683PSPI   C4A10576  10.784  17.084   7.713 -0.0100  0.2137  0.0413
  683PSPI   C1B10577  11.171  16.405   6.621  0.0261 -0.1667  0.0239
  683PSPI   C2B10578  10.762  16.325   6.808 -0.0500  0.1092  0.2196
  683PSPI   C3B10579  10.686  16.391   7.134  0.0919 -0.2998 -0.3251
  683PSPI   C4B10580  10.749  16.336   7.570 -0.1956  0.2264  0.2938
  684PSPI    C110581   9.035  17.812   5.780 -0.1561 -0.0866  0.1224
  684PSPI    C210582   9.389  17.941   5.646 -0.2191  0.0146  0.0522
  684PSPI    C310583   9.373  17.693   5.959 -0.0761 -0.1410 -0.0619
  684PSPI   PO410584   8.890  18.072   5.845 -0.1340 -0.0639 -0.0419
  684PSPI   GL110585   8.766  18.267   6.248  0.0011  0.0409 -0.1782
  684PSPI   GL210586   9.067  18.465   6.408 -0.3625  0.3385  0.0256
  684PSPI   C1A10587   8.653  18.193   6.672 -0.2111  0.0700 -0.0361
  684PSPI   C2A10588   8.566  18.229   7.195  0.1838  0.0352 -0.0440
  684PSPI   C3A10589   8.663  18.227   7.575 -0.1588 -0.0192 -0.0478
  684PSPI   C4A10590   8.735  18.627   7.844  0.2303 -0.0449  0.2706
  684PSPI   C1B10591   9.300  18.109   6.592 -0.1668  0.0718  0.0163
  684PSPI   C2B10592   9.409  18.007   7.022  0.0165 -0.0464  0.0445
  684PSPI   C3B10593   9.721  18.087   7.366 -0.2374  0.2023 -0.1565
  684PSPI   C4B10594  10.183  18.002   7.306 -0.0680  0.0668  0.2932
  685PSPI    C110595  13.780   3.513   5.681 -0.0077  0.1365 -0.3273
  685PSPI    C210596  13.399   3.625   5.735 -0.0106  0.0697 -0.2063
  685PSPI    C310597  13.643   3.847   5.508 -0.0830  0.1884 -0.1686
  685PSPI   PO410598  13.898   3.430   5.936  0.1300  0.2674 -0.0896
  685PSPI   GL110599  14.131   3.548   6.263  0.2132 -0.1406 -0.0403
  685PSPI   GL210600  14.303   3.758   6.008 -0.1509  0.3639 -0.0704
  685PSPI   C1A10601  14.333   3.354   6.586  0.3070 -0.0666  0.0015
  685PSPI   C2A10602  14.614   3.341   7.000 -0.1330  0.0661 -0.2631
  685PSPI   C3A10603  14.671   3.504   7.450  0.0873 -0.4051  0.0375
  685PSPI   C4A10604  14.902   3.966   7.524  0.0950  0.4103  0.2485
  685PSPI   C1B10605  14.390   3.954   6.436  0.2460  0.0707  0.0792
  685PSPI   C2B10606  14.298   3.705   6.888 -0.0779  0.0440  0.1025
  685PSPI   C3B10607  13.894   3.575   6.740 -0.1395  0.0280  0.2842
  685PSPI   C4B10608  13.502   3.758   6.672 -0.0761  0.2702  0.0674
  686PSPI    C110609   6.042   4.694   5.660 -0.0697  0.0273  0.0657
  686PSPI    C210610   6.053   4.367   5.430  0.0835  0.1845 -0.1548
  686PSPI    C310611   5.825   4.678   5.324 -0.2148  0.0779  0.1562
  686PSPI   PO410612   6.144   4.602   5.940  0.1920  0.0471 -0.1098
  686PSPI   GL110613   6.205   4.698   6.381 -0.0437 -0.0316 -0.0737
  686PSPI   GL210614   6.533   4.860   6.408 -0.0154 -0.1871  0.0818
  686PSPI   C1A10615   6.456   4.515   6.736 -0.1483 -0.1707 -0.1425
  686PSPI   C2A10616   6.876   4.473   6.863 -0.1776  0.1798  0.3234
  686PSPI   C3A10617   7.304   4.423   6.964 -0.0676  0.0378 -0.1181
  686PSPI   C4A10618   7.783   4.508   6.924  0.2010  0.1023  0.0281
  686PSPI   C1B10619   6.523   4.970   6.902 -0.1130 -0.3365  0.2396
  686PSPI   C2B10620   6.483   4.743   7.181  0.1198  0.2342  0.0703
  686PSPI   C3B10621   6.644   4.600   7.588 -0.1570 -0.0342  0.0019
  686PSPI   C4B10622   6.794   4.364   7.849 -0.2819 -0.1871  0.0383
  687PSPI    C110623  15.962  11.375   5.891 -0.0152 -0.3354  0.1826
  687PSPI    C210624  15.635  11.331   5.664 -0.0123 -0.0307  0.1147
  687PSPI    C310625  15.998  11.306   5.498 -0.0089  0.0896  0.1031
  687PSPI   PO410626  15.878  11.537   6.138  0.1919  0.0731  0.0080
  687PSPI   GL110627  15.922  11.768   6.494 -0.1945  0.2206  0.0677
  687PSPI   GL210628  15.838  12.008   6.358  0.1965  0.1363 -0.1571
  687PSPI   C1A10629  16.158  11.883   6.888 -0.1515  0.0920 -0.0306
  687PSPI   C2A10630  16.298  11.800   7.181  0.0627 -0.0174 -0.1791
  687PSPI   C3A10631  16.523  11.657   7.483  0.0688 -0.0743 -0.0018
  687PSPI   C4A10632  16.422  11.785   7.876  0.0661 -0.0545 -0.0639
  687PSPI   C1B10633  15.894  12.269   6.635 -0.3235 -0.0287 -0.0660
  687PSPI   C2B10634  15.912  12.308   7.121 -0.0585 -0.1211  0.0072
  687PSPI   C3B10635  15.731  12.312   7.581 -0.0519  0.3864  0.0359
  687PSPI   C4B10636  15.687  12.393   8.008  0.1290  0.0205 -0.3683
  688PSPI    C110637   3.071  11.490   5.323 -0.1307  0.2351 -0.1149
  688PSPI    C210638   3.321  11.178   5.328  0.0945  0.4150  0.0621
  688PSPI    C310639   2.937  11.125   5.229  0.1258  0.0794  0.1094
  688PSPI   PO410640   3.133  11.642   5.552 -0.0403  0.0285  0.0768
  688PSPI   GL110641   2.973  11.601   6.025 -0.0872  0.0824 -0.1160
  688PSPI   GL210642   2.869  11.243   6.133  0.2464 -0.4174 -0.0686
  688PSPI   C1A10643   3.308  11.495   6.233 -0.1681 -0.2774 -0.2395
  688PSPI   C2A10644   3.405  11.732   6.579  0.2480  0.2630  0.0795
  688PSPI   C3A10645   3.257  11.945   6.964 -0.0282 -0.2172  0.1742
  688PSPI   C4A10646   3.076  12.177   7.309 -0.0161 -0.0271  0.0392
  688PSPI   C1B10647   2.972  11.345   6.597  0.0282  0.2038 -0.0471
  688PSPI   C2B10648   3.038  11.525   6.988  0.1823  0.3937 -0.3459
  688PSPI   C3B10649   2.906  11.569   7.386 -0.0493 -0.1140  0.0765
  688PSPI   C4B10650   2.589  11.520   7.656  0.0387  0.1416 -0.2781
  689PSPI    C110651  12.732   5.442   6.172  0.0689  0.0507  0.1696
  689PSPI    C210652  12.726   5.554   5.788  0.0905 -0.2220  0.0876
  689PSPI    C310653  12.727   5.830   6.077 -0.1065 -0.0157 -0.1047
  689PSPI   PO410654  13.012   5.365   6.268  0.3886 -0.0763  0.2285
  689PSPI   GL110655  13.124   5.341   6.683  0.2399 -0.1457 -0.1411
  689PSPI   GL210656  12.726   5.254   6.712 -0.0792  0.1012  0.2824
  689PSPI   C1A10657  13.266   5.077   7.005  0.0344  0.0138  0.0035
  689PSPI   C2A10658  13.228   4.731   7.368  0.0424  0.0957 -0.1756
  689PSPI   C3A10659  13.019   4.511   7.692  0.2124  0.1723  0.0687
  689PSPI   C4A10660  12.985   4.385   8.131 -0.0104 -0.1716 -0.1170
  689PSPI   C1B10661  12.612   5.457   7.158  0.0702  0.2585 -0.1405
  689PSPI   C2B10662  12.569   5.470   7.683  0.1775  0.1640  0.3108
  689PSPI   C3B10663  12.618   5.217   8.141  0.0702 -0.2631  0.1458
  689PSPI   C4B10664  12.662   4.815   8.368 -0.2582 -0.0196 -0.2350
  690PSPI    C110665  11.907  16.858   5.895  0.0187  0.0922  0.0355
  690PSPI    C210666  12.180  17.147   5.944 -0.0524  0.1801 -0.0806
  690PSPI    C310667  12.276  16.810   5.750  0.0258  0.1324  0.0401
  690PSPI   PO410668  11.778  16.836   6.210 -0.1187 -0.2792 -0.0974
  690PSPI   GL110669  11.838  17.016   6.526 -0.0870 -0.0060  0.1330
  690PSPI   GL210670  12.075  17.213   6.575  0.1443  0.1707  0.1530
  690PSPI   C1A10671  11.590  17.064   6.864 -0.2878  0.0285 -0.0129
  690PSPI   C2A10672  11.579  17.003   7.226 -0.0279 -0.1406  0.0158
  690PSPI   C3A10673  11.397  17.052   7.635 -0.0349  0.0135  0.0257
  690PSPI   C4A10674  11.338  17.061   8.100 -0.0438  0.0501  0.1450
  690PSPI   C1B10675  12.084  17.119   7.037 -0.3990 -0.0353 -0.1284
  690PSPI   C2B10676  12.243  17.007   7.402  0.2604 -0.1502  0.3079
  690PSPI   C3B10677  12.313  16.976   7.807 -0.3188 -0.0712  0.0071
  690PSPI   C4B10678  12.585  16.804   8.156  0.0746 -0.0020 -0.1412
  691PSPI    C110679  10.247  16.180   6.023 -0.0603  0.0048  0.0146
  691PSPI    C210680  10.594  16.309   5.872 -0.0541  0.0359  0.0554
  691PSPI    C310681  10.461  15.942   5.784 -0.0428  0.0482 -0.0131
  691PSPI   PO410682  10.227  16.186   6.276 -0.0157  0.0032  0.1183
  691PSPI   GL110683  10.319  16.122   6.728  0.0367 -0.0899 -0.3152
  691PSPI   GL210684  10.438  15.861   6.634 -0.0568 -0.1647  0.0803
  691PSPI   C1A10685  10.188  16.233   7.008  0.0267 -0.2093 -0.0641
  691PSPI   C2A10686  10.174  16.243   7.389  0.0978 -0.0604  0.1584
  691PSPI   C3A10687  10.276  16.268   7.820 -0.0079 -0.1935 -0.1577
  691PSPI   C4A10688  10.358  16.097   8.194  0.2365 -0.2887  0.0550
  691PSPI   C1B10689  10.597  15.907   7.091  0.0297 -0.0497  0.1786
  691PSPI   C2B10690  10.787  15.848   7.513 -0.0296  0.0076  0.3611
  691PSPI   C3B10691  10.663  15.875   7.841 -0.0316  0.5725 -0.1901
  691PSPI   C4B10692  10.667  15.591   8.170  0.1983  0.0120 -0.1615
  692PSPI    C110693   9.526  15.670   5.680  0.4624 -0.0177 -0.1515
  692PSPI    C210694   9.372  16.004   5.523  0.0700 -0.0137  0.2235
  692PSPI    C310695   9.343  15.657   5.325  0.1013  0.0948  0.0264
  692PSPI   PO410696   9.526  15.738   5.964  0.2284 -0.0430  0.1749
  692PSPI   GL110697   9.461  15.705   6.328 -0.1460 -0.3585 -0.0178
  692PSPI   GL210698   9.235  15.993   6.279  0.0036  0.0044 -0.0047
  692PSPI   C1A10699   9.379  15.696   6.768  0.1497  0.0612 -0.1546
  692PSPI   C2A10700   9.503  15.537   7.174  0.0790 -0.2297  0.3106
  692PSPI   C3A10701   9.548  15.522   7.591  0.0169 -0.0378 -0.0598
  692PSPI   C4A10702   9.557  15.693   7.990  0.0979  0.2708  0.2381
  692PSPI   C1B10703   9.043  16.210   6.644  0.0538  0.0364  0.1478
  692PSPI   C2B10704   9.026  16.275   7.140  0.4538 -0.0829  0.2765
  692PSPI   C3B10705   9.197  16.340   7.484 -0.0329 -0.0322 -0.0356
  692PSPI   C4B10706   9.397  16.286   7.891 -0.0310 -0.1577 -0.0696
  693PSPI    C110707  13.530   1.247   5.968 -0.0257  0.1679  0.2813
  693PSPI    C210708  13.503   0.864   5.855 -0.0919  0.2507  0.0105
  693PSPI    C310709  13.190   1.044   6.027 -0.0771  0.1975  0.0936
  693PSPI   PO410710  13.784   1.182   6.105  0.0098  0.1449 -0.1794
  693PSPI   GL110711  13.847   1.075   6.532 -0.1618 -0.1560  0.3668
  693PSPI   GL210712  13.783   1.332   6.746  0.0369  0.0338 -0.2282
  693PSPI   C1A10713  14.037   0.864   6.911 -0.0951  0.0574  0.1950
  693PSPI   C2A10714  14.242   0.925   7.319  0.1145 -0.1605  0.0860
  693PSPI   C3A10715  14.162   0.870   7.689 -0.0459 -0.4918  0.4267
  693PSPI   C4A10716  13.939   0.568   7.970  0.0331 -0.2719  0.0919
  693PSPI   C1B10717  14.003   1.351   7.131  0.2510 -0.0881  0.1404
  693PSPI   C2B10718  13.981   1.436   7.585 -0.1167  0.2639 -0.2444
  693PSPI   C3B10719  13.994   1.492   8.106  0.1606  0.2095  0.0208
  693PSPI   C4B10720  14.003   1.912   8.307  0.0898 -0.2605 -0.0458
  694POPI    C110721   6.929   4.021   5.885 -0.0724  0.1818  0.1498
  694POPI    C210722   6.574   4.067   5.708 -0.0375  0.2767  0.1038
  694POPI    C310723   6.869   4.326   5.634  0.0768  0.1333  0.0542
  694POPI   PO410724   6.872   4.113   6.117 -0.3421  0.0728  0.0148
  694POPI   GL110725   6.843   4.067   6.585 -0.5092 -0.1074 -0.1871
  694POPI   GL210726   7.212   4.094   6.603 -0.3293  0.0752  0.0634
  694POPI   C1A10727   6.693   3.981   6.956 -0.3219  0.0022  0.0493
  694POPI   D2A10728   6.718   3.700   7.290  0.1604 -0.0659 -0.0908
  694POPI   C3A10729   6.347   3.265   7.409 -0.0715 -0.0415  0.0656
  694POPI   C4A10730   5.998   3.272   7.633  0.1169  0.1083 -0.1462
  694POPI   C1B10731   7.159   3.950   7.068 -0.0557 -0.0537  0.0601
  694POPI   C2B10732   7.320   3.912   7.527 -0.0102 -0.0440  0.1825
  694POPI   C3B10733   7.719   3.989   7.719  0.0122 -0.0760  0.1174
  694POPI   C4B10734   8.140   4.007   7.923  0.0648  0.1570  0.0614
  695POPI    C110735  10.339  10.385   5.777 -0.0613  0.1922  0.1287
  695POPI    C210736  10.430  10.433   5.390 -0.1188  0.0911  0.1021
  695POPI    C310737  10.659  10.601   5.672  0.1414 -0.1461  0.0353
  695POPI   PO410738  10.272  10.147   5.878 -0.0100 -0.0398  0.0832
  695POPI   GL110739  10.036  10.134   6.262 -0.0931  0.0149 -0.0278
  695POPI   GL210740  10.209  10.306   6.456  0.2543  0.0418  0.0599
  695POPI   C1A10741   9.908  10.053   6.710 -0.0700  0.1361 -0.2421
  695POPI   D2A10742   9.920   9.841   7.135 -0.0662 -0.3472  0.1689
  695POPI   C3A10743   9.983   9.895   7.555 -0.1497 -0.1354 -0.1825
  695POPI   C4A10744   9.970   9.816   7.975  0.0014  0.0303  0.0241
  695POPI   C1B10745  10.420  10.166   6.754 -0.1179  0.0229  0.0011
  695POPI   C2B10746  10.296  10.297   7.121 -0.0911  0.0549 -0.3111
  695POPI   C3B10747   9.903  10.362   7.368 -0.2021 -0.1610 -0.0259
  695POPI   C4B10748   9.752  10.324   7.811 -0.4158  0.0771 -0.1207
  696POPI    C110749  14.765   3.122   5.950 -0.0024 -0.0511  0.1743
  696POPI    C210750  14.393   3.252   6.018 -0.0602 -0.1044 -0.0339
  696POPI    C310751  14.458   2.868   5.930  0.0100 -0.0372 -0.2832
  696POPI   PO410752  14.868   3.194   6.150 -0.5052 -0.1473  0.1375
  696POPI   GL110753  14.851   3.223   6.600 -0.1953 -0.0473 -0.1314
  696POPI   GL210754  14.976   2.970   6.592 -0.1292 -0.0805  0.0078
  696POPI   C1A10755  15.095   3.214   7.023 -0.0689 -0.0242  0.2568
  696POPI   D2A10756  14.948   3.008   7.327 -0.4073  0.3907 -0.0286
  696POPI   C3A10757  14.817   2.830   7.763  0.2932  0.2418  0.1047
  696POPI   C4A10758  14.408   2.873   8.100  0.2657  0.3458  0.0982
  696POPI   C1B10759  15.050   2.689   6.844 -0.0295 -0.1282  0.2423
  696POPI   C2B10760  15.383   2.427   7.063  0.0005  0.4867  0.3514
  696POPI   C3B10761  15.397   2.495   7.560 -0.2864 -0.0876 -0.0932
  696POPI   C4B10762  15.326   2.282   7.969 -0.1288  0.1131 -0.1628
  697POPI    C110763  17.542   3.011   5.911 -0.1096  0.0690  0.0617
  697POPI    C210764  17.683   2.692   5.715  0.0559  0.1361  0.0694
  697POPI    C310765  17.343   2.867   5.595  0.0265  0.0281 -0.0060
  697POPI   PO410766  17.718   2.948   6.193 -0.2708  0.1977  0.1253
  697POPI   GL110767  17.941   3.005   6.626  0.0180 -0.1929 -0.2079
  697POPI   GL210768  18.047   2.710   6.699  0.4101 -0.2592 -0.1245
  697POPI   C1A10769  18.019   2.949   7.109  0.0553  0.0953  0.2304
  697POPI   D2A10770  18.366   2.718   7.403  0.1887  0.2787 -0.0166
  697POPI   C3A10771  18.613   2.689   7.823  0.0699 -0.1041 -0.4327
  697POPI   C4A10772  18.680   2.751   8.279 -0.0213  0.2921  0.2851
  697POPI   C1B10773  18.405   2.591   6.843 -0.0213 -0.0226 -0.1242
  697POPI   C2B10774  18.667   2.419   7.054 -0.2058 -0.1004  0.0446
  697POPI   C3B10775  18.856   2.566   7.376 -0.0302 -0.0934  0.0244
  697POPI   C4B10776  19.099   2.767   7.667  0.0005  0.2546  0.0426
  698POPI    C110777  16.034   8.185   5.883 -0.0783  0.2439 -0.0693
  698POPI    C210778  16.209   7.832   5.816 -0.0056  0.1963  0.3436
  698POPI    C310779  16.327   8.156   5.613 -0.1894 -0.0440 -0.1623
  698POPI   PO410780  16.025   8.166   6.160 -0.3993 -0.1086 -0.2247
  698POPI   GL110781  16.193   8.165   6.543  0.0635 -0.2020  0.1031
  698POPI   GL210782  16.118   7.881   6.622  0.1701 -0.1911  0.2018
  698POPI   C1A10783  16.387   8.192   6.924 -0.3069 -0.0906 -0.0962
  698POPI   D2A10784  16.687   8.123   7.266 -0.0138  0.2764 -0.1223
  698POPI   C3A10785  16.903   7.695   7.184  0.0862 -0.0383  0.0938
  698POPI   C4A10786  17.006   7.631   6.778 -0.0641 -0.0300  0.1895
  698POPI   C1B10787  16.002   7.893   7.072 -0.0616  0.0311 -0.1554
  698POPI   C2B10788  16.164   8.141   7.397 -0.0438 -0.1262 -0.1000
  698POPI   C3B10789  16.458   8.183   7.685  0.3351 -0.0168  0.0020
  698POPI   C4B10790  16.471   8.514   8.076  0.0167  0.4346 -0.1030
  699POPI    C110791  11.270   6.526   6.087 -0.1230 -0.1927 -0.0033
  699POPI    C210792  11.648   6.470   5.969 -0.1024  0.0941 -0.0807
  699POPI    C310793  11.386   6.168   5.951  0.0465 -0.0236 -0.3138
  699POPI   PO410794  11.243   6.656   6.366  0.2601  0.0048  0.3177
  699POPI   GL110795  11.307   6.496   6.773 -0.1873 -0.1005  0.1957
  699POPI   GL210796  11.621   6.469   6.918 -0.1817 -0.0281  0.1505
  699POPI   C1A10797  11.071   6.599   7.130 -0.1327 -0.0458 -0.0529
  699POPI   D2A10798  11.308   6.705   7.551 -0.0701  0.2611  0.1913
  699POPI   C3A10799  11.450   6.432   7.949 -0.1892 -0.1681 -0.2509
  699POPI   C4A10800  11.136   6.408   8.225 -0.0249 -0.0191  0.0953
  699POPI   C1B10801  11.500   6.175   7.238  0.3671  0.0065  0.0904
  699POPI   C2B10802  11.177   6.188   7.631  0.3474 -0.0952  0.0588
  699POPI   C3B10803  10.894   5.957   7.725  0.1087 -0.0046 -0.2071
  699POPI   C4B10804  10.945   5.588   7.873  0.0896 -0.0972  0.0403
  700POPI    C110805   3.443  16.630   5.905  0.0926  0.1811 -0.0552
  700POPI    C210806   3.118  16.545   5.687  0.2161 -0.0005 -0.1715
  700POPI    C310807   3.481  16.525   5.521  0.2850  0.2518 -0.0564
  700POPI   PO410808   3.338  16.679   6.142  0.0954 -0.0226  0.2969
  700POPI   GL110809   3.494  16.905   6.499  0.2706  0.4021  0.1972
  700POPI   GL210810   3.183  16.952   6.508 -0.0211 -0.2669 -0.0573
  700POPI   C1A10811   3.797  16.898   6.772 -0.0768  0.0670 -0.0252
  700POPI   D2A10812   4.075  16.978   7.142  0.0873 -0.0328 -0.4724
  700POPI   C3A10813   4.151  17.161   7.531  0.0631  0.2568 -0.3182
  700POPI   C4A10814   4.252  17.037   7.943  0.2677 -0.0994  0.1040
  700POPI   C1B10815   3.253  17.016   6.903 -0.2795 -0.3249 -0.0848
  700POPI   C2B10816   3.226  16.977   7.278  0.1317  0.0556 -0.0065
  700POPI   C3B10817   3.223  16.808   7.574 -0.1248 -0.0226 -0.1284
  700POPI   C4B10818   3.243  17.078   8.025 -0.1097 -0.0342 -0.0388
  701POPI    C110819  11.184   1.556   5.855 -0.0794 -0.0826  0.3138
  701POPI    C210820  11.232   1.160   5.822  0.3942  0.0148 -0.3814
  701POPI    C310821  10.911   1.336   5.661  0.1182 -0.0893  0.0380
  701POPI   PO410822  11.226   1.589   6.118  0.2649  0.1144  0.2193
  701POPI   GL110823  11.322   1.691   6.486 -0.3287 -0.2295 -0.5787
  701POPI   GL210824  11.125   2.012   6.619 -0.1095 -0.2729  0.0551
  701POPI   C1A10825  11.316   1.554   6.906  0.3570  0.1468 -0.1687
  701POPI   D2A10826  11.327   1.714   7.258 -0.2584 -0.1740 -0.3484
  701POPI   C3A10827  11.461   1.757   7.706  0.1164 -0.1314  0.2879
  701POPI   C4A10828  11.447   1.645   8.061  0.0196  0.1205  0.1041
  701POPI   C1B10829  11.032   2.232   7.081  0.3616 -0.1761 -0.1880
  701POPI   C2B10830  11.216   2.247   7.396 -0.1818 -0.1062  0.1382
  701POPI   C3B10831  11.139   2.211   7.782 -0.1642  0.0046 -0.1421
  701POPI   C4B10832  11.085   1.978   8.098 -0.1849 -0.4165 -0.2187
  702POPI    C110833  14.730   6.926   5.989 -0.0954  0.1108 -0.1825
  702POPI    C210834  14.602   6.574   5.848  0.1119 -0.0141 -0.0636
  702POPI    C310835  14.987   6.677   5.812  0.0594  0.1869 -0.0672
  702POPI   PO410836  14.703   6.965   6.212  0.0412  0.2514  0.2307
  702POPI   GL110837  14.856   7.048   6.622 -0.2279 -0.3100  0.0177
  702POPI   GL210838  14.674   6.804   6.722 -0.1409  0.1869 -0.0271
  702POPI   C1A10839  14.860   7.047   7.086  0.0022  0.1745  0.3576
  702POPI   D2A10840  15.266   6.933   7.272 -0.0165 -0.0676  0.0280
  702POPI   C3A10841  15.211   6.988   7.757 -0.1773  0.2117 -0.2378
  702POPI   C4A10842  15.160   7.291   8.006 -0.1925 -0.2410  0.2726
  702POPI   C1B10843  14.613   6.573   7.085 -0.1568  0.2332 -0.0382
  702POPI   C2B10844  14.505   6.481   7.440  0.1977 -0.2751  0.1950
  702POPI   C3B10845  14.102   6.348   7.712 -0.0716  0.1857  0.1670
  702POPI   C4B10846  13.797   6.540   7.991  0.0259  0.1080 -0.1810
  703POPI    C110847  17.946  17.798   6.204  0.0236  0.1419 -0.0330
  703POPI    C210848  17.899  18.015   5.872 -0.0405  0.0257 -0.1007
  703POPI    C310849  17.867  17.616   5.856  0.2333 -0.0019 -0.0075
  703POPI   PO410850  18.200  17.913   6.273  0.3129  0.0687  0.0730
  703POPI   GL110851  18.348  18.114   6.594  0.0626  0.2210 -0.0356
  703POPI   GL210852  18.111  18.239   6.800 -0.4570 -0.0317  0.1346
  703POPI   C1A10853  18.661  18.032   6.971  0.0348 -0.1077  0.0617
  703POPI   D2A10854  18.884  18.004   7.373  0.1855  0.0402 -0.2969
  703POPI   C3A10855  18.635  18.166   7.790  0.1078 -0.0212  0.0143
  703POPI   C4A10856  18.553  18.348   8.148  0.0290 -0.0179  0.1989
  703POPI   C1B10857  18.247  18.210   7.217  0.2911 -0.1075 -0.0781
  703POPI   C2B10858  18.078  18.134   7.641  0.3430 -0.3864 -0.5206
  703POPI   C3B10859  18.162  18.071   8.049 -0.0971  0.1260 -0.2118
  703POPI   C4B10860  18.359  17.955   8.448  0.1871  0.1843  0.3335
  704POPI    C110861  14.833   4.624   5.511 -0.0759  0.2399 -0.0377
  704POPI    C210862  14.944   4.358   5.234 -0.0818  0.1451  0.0502
  704POPI    C310863  14.856   4.733   5.127  0.1151  0.1645 -0.0489
  704POPI   PO410864  14.693   4.465   5.662  0.0241  0.1405 -0.2120
  704POPI   GL110865  14.553   4.581   6.071  0.2224 -0.2453 -0.2678
  704POPI   GL210866  14.596   4.839   6.317  0.0632 -0.2515  0.1505
  704POPI   C1A10867  14.686   4.347   6.366 -0.1089 -0.0862  0.1403
  704POPI   D2A10868  15.030   4.271   6.706 -0.0072  0.0901 -0.0976
  704POPI   C3A10869  15.408   3.979   6.691 -0.2067  0.0880  0.1534
  704POPI   C4A10870  15.574   3.678   6.824 -0.1880  0.0142 -0.0955
  704POPI   C1B10871  14.634   4.725   6.737  0.0978 -0.0225 -0.2185
  704POPI   C2B10872  14.841   4.432   7.135  0.0219  0.0695  0.2011
  704POPI   C3B10873  14.714   4.427   7.580  0.4448  0.0465 -0.1373
  704POPI   C4B10874  14.754   4.240   7.981 -0.1108 -0.0605  0.0135
  705POPI    C110875   7.136  13.806   5.617  0.0207  0.1369 -0.2020
  705POPI    C210876   7.426  13.869   5.885 -0.2009 -0.3486  0.1674
  705POPI    C310877   7.518  13.746   5.516  0.0905  0.0612  0.0970
  705POPI   PO410878   6.900  13.811   5.867 -0.3547 -0.0989 -0.0355
  705POPI   GL110879   6.736  14.106   6.204 -0.1634 -0.1849 -0.1604
  705POPI   GL210880   6.491  14.178   6.357 -0.2952  0.0166 -0.0787
  705POPI   C1A10881   6.856  13.946   6.637  0.1297  0.0809  0.1654
  705POPI   D2A10882   6.882  13.830   7.040 -0.0467  0.2250  0.1138
  705POPI   C3A10883   7.196  13.984   7.208 -0.0258 -0.0789  0.2249
  705POPI   C4A10884   7.332  14.423   7.128 -0.0714  0.0710 -0.0530
  705POPI   C1B10885   6.357  14.187   6.782  0.0622  0.1424  0.1461
  705POPI   C2B10886   6.391  14.143   7.298 -0.0412 -0.0563 -0.0904
  705POPI   C3B10887   6.710  13.799   7.523 -0.1906 -0.1548 -0.0724
  705POPI   C4B10888   7.038  13.491   7.860  0.4618  0.3432 -0.3988
  706POPI    C110889   9.571   0.384   5.735  0.1489 -0.1184 -0.0412
  706POPI    C210890   9.600   0.338   5.339 -0.3484  0.1448 -0.1169
  706POPI    C310891   9.242   0.388   5.508 -0.1461 -0.0148  0.3775
  706POPI   PO410892   9.775   0.552   5.806 -0.1664  0.1188 -0.0317
  706POPI   GL110893   9.974   0.562   6.153  0.0932  0.1545 -0.0600
  706POPI   GL210894   9.985   0.835   6.231 -0.2941  0.2810  0.1833
  706POPI   C1A10895   9.775   0.268   6.376  0.1112  0.0732 -0.0045
  706POPI   D2A10896   9.728  -0.180   6.340  0.7021 -0.1455  0.2512
  706POPI   C3A10897   9.943  -0.528   6.478  0.0004  0.0616  0.3030
  706POPI   C4A10898  10.215  -0.718   6.800 -0.0625  0.1447 -0.2350
  706POPI   C1B10899   9.715   0.686   6.614  0.2379 -0.0837 -0.1822
  706POPI   C2B10900   9.670   0.363   6.859 -0.1924  0.2512 -0.0053
  706POPI   C3B10901   9.881   0.013   6.806 -0.0270 -0.1103 -0.1608
  706POPI   C4B10902  10.204  -0.191   6.733  0.2414  0.2417  0.2101
  707POPI    C110903  14.448  17.235   5.918  0.0538 -0.0928 -0.2641
  707POPI    C210904  14.375  16.940   5.659 -0.0731 -0.1273 -0.1897
  707POPI    C310905  14.475  17.303   5.525 -0.3210 -0.0957 -0.2932
  707POPI   PO410906  14.316  17.166   6.145 -0.0559 -0.0193  0.1124
  707POPI   GL110907  14.287  17.250   6.552 -0.0903  0.2738  0.1193
  707POPI   GL210908  14.287  17.498   6.604  0.0506 -0.0051 -0.1042
  707POPI   C1A10909  14.494  16.900   6.828 -0.0606  0.1132 -0.2633
  707POPI   D2A10910  14.484  16.568   7.039  0.1490 -0.2856  0.2293
  707POPI   C3A10911  14.433  16.482   7.555  0.0415 -0.2043  0.0972
  707POPI   C4A10912  13.975  16.267   7.660  0.2056 -0.1401  0.4340
  707POPI   C1B10913  14.474  17.560   6.873  0.0122 -0.0798  0.1701
  707POPI   C2B10914  14.736  17.335   7.152  0.1332  0.1799 -0.0498
  707POPI   C3B10915  14.846  17.283   7.546  0.2802 -0.2909 -0.0509
  707POPI   C4B10916  14.855  17.302   8.045 -0.0947  0.1382 -0.2365
  708POPI    C110917  10.291   3.732   5.861  0.1603 -0.4435  0.0412
  708POPI    C210918   9.970   3.515   5.964 -0.1145 -0.0078  0.1280
  708POPI    C310919   9.940   3.796   5.680  0.2144 -0.0213  0.0755
  708POPI   PO410920  10.379   3.870   6.018  0.4285  0.1993 -0.0114
  708POPI   GL110921  10.587   3.909   6.444 -0.0067 -0.0867 -0.0730
  708POPI   GL210922  10.207   3.831   6.497  0.1712  0.1472  0.0441
  708POPI   C1A10923  10.495   4.133   6.703 -0.1872 -0.0459  0.0084
  708POPI   D2A10924  10.684   4.355   6.956 -0.1164  0.1866  0.1141
  708POPI   C3A10925  10.664   4.353   7.355  0.1758  0.0356 -0.1236
  708POPI   C4A10926  10.648   4.358   7.727  0.2968 -0.2729 -0.0908
  708POPI   C1B10927  10.080   3.954   6.970  0.2291 -0.3055 -0.0483
  708POPI   C2B10928  10.166   4.025   7.266 -0.1785  0.2047 -0.2524
  708POPI   C3B10929  10.209   4.048   7.714  0.0398 -0.0644 -0.2561
  708POPI   C4B10930  10.401   3.990   8.157 -0.0593 -0.1344  0.4217
  709POPI    C110931   4.653  12.251   5.659  0.1500  0.1001 -0.2016
  709POPI    C210932   4.711  11.886   5.506  0.0240  0.0921 -0.2309
  709POPI    C310933   4.439  12.131   5.344 -0.1280  0.0749 -0.0066
  709POPI   PO410934   4.961  12.341   5.725  0.0936  0.1504 -0.1160
  709POPI   GL110935   5.174  12.453   6.054 -0.1081 -0.2740 -0.0601
  709POPI   GL210936   4.998  12.265   6.310  0.0540 -0.1923  0.0898
  709POPI   C1A10937   5.392  12.490   6.557 -0.0420 -0.0877  0.1976
  709POPI   D2A10938   5.658  12.730   6.833  0.1511  0.0273  0.1089
  709POPI   C3A10939   5.623  12.898   7.305  0.0046  0.0153  0.0003
  709POPI   C4A10940   5.579  12.927   7.708  0.0974  0.1774  0.2977
  709POPI   C1B10941   5.048  12.091   6.689 -0.4347  0.0146 -0.0792
  709POPI   C2B10942   5.259  12.261   7.021 -0.0672 -0.2002  0.2000
  709POPI   C3B10943   5.539  12.326   7.307 -0.0605  0.0776  0.1883
  709POPI   C4B10944   5.551  11.886   7.518 -0.3622  0.1486  0.1713
  710POPI    C110945   6.191  17.953   5.559  0.1188 -0.1163  0.0631
  710POPI    C210946   5.926  17.928   5.858 -0.0296 -0.0599 -0.0625
  710POPI    C310947   5.884  17.698   5.533 -0.1886  0.2749 -0.2846
  710POPI   PO410948   6.484  17.995   5.732  0.0822  0.1290  0.0395
  710POPI   GL110949   6.618  17.784   6.084 -0.1142  0.1066  0.1067
  710POPI   GL210950   6.734  18.036   6.143 -0.0164 -0.3158 -0.0320
  710POPI   C1A10951   6.607  17.688   6.472  0.3222 -0.0541  0.1466
  710POPI   D2A10952   6.451  17.678   6.872 -0.1689  0.2147 -0.0949
  710POPI   C3A10953   6.147  17.428   7.014  0.0883  0.1176  0.2249
  710POPI   C4A10954   5.898  17.020   7.290  0.0125 -0.0063 -0.1469
  710POPI   C1B10955   6.650  18.158   6.633 -0.1060  0.0483  0.1985
  710POPI   C2B10956   6.552  18.228   7.022 -0.0072  0.2619  0.0058
  710POPI   C3B10957   6.635  18.224   7.428 -0.1748  0.2512 -0.0345
  710POPI   C4B10958   6.831  18.148   7.918 -0.1447 -0.3712 -0.0965
  711POPI    C110959   3.093   7.576   5.495  0.0945 -0.0021 -0.1376
  711POPI    C210960   3.378   7.673   5.232 -0.1261  0.3113 -0.2672
  711POPI    C310961   2.993   7.701   5.128 -0.2097  0.0747 -0.0310
  711POPI   PO410962   3.115   7.713   5.694 -0.0433  0.3148  0.2389
  711POPI   GL110963   2.962   7.981   5.996 -0.0839 -0.2967  0.2537
  711POPI   GL210964   3.278   8.158   5.889  0.0409  0.2462  0.0247
  711POPI   C1A10965   2.970   8.054   6.435  0.1836 -0.0276  0.1908
  711POPI   D2A10966   3.109   7.816   6.898 -0.1836  0.1353 -0.2074
  711POPI   C3A10967   3.078   8.064   7.147 -0.0557 -0.3448 -0.1979
  711POPI   C4A10968   2.968   8.088   7.610  0.3048 -0.1007 -0.0684
  711POPI   C1B10969   3.417   8.398   6.285  0.2171  0.0297  0.2627
  711POPI   C2B10970   3.440   8.463   6.646 -0.0731  0.0826  0.1586
  711POPI   C3B10971   3.382   8.455   7.028 -0.0039 -0.0597 -0.2518
  711POPI   C4B10972   3.367   8.643   7.430  0.1011  0.0037  0.0014
  712POPI    C110973  14.933  17.802   5.722  0.0601 -0.0593 -0.1312
  712POPI    C210974  14.545  17.718   5.775  0.0607  0.1001  0.1492
  712POPI    C310975  14.671  17.874   5.428 -0.1243  0.0453  0.0561
  712POPI   PO410976  15.044  17.866   6.059 -0.0384  0.0231  0.1261
  712POPI   GL110977  14.951  18.003   6.536 -0.2180  0.0410  0.1249
  712POPI   GL210978  14.585  17.977   6.624  0.1338 -0.0518  0.0132
  712POPI   C1A10979  15.025  17.568   6.695  0.2185  0.1806 -0.2219
  712POPI   D2A10980  15.401  17.493   6.931 -0.3213  0.0309  0.1905
  712POPI   C3A10981  15.289  17.511   7.290  0.1065 -0.1364 -0.1117
  712POPI   C4A10982  15.225  17.503   7.740  0.2299  0.1045 -0.4377
  712POPI   C1B10983  14.824  17.901   7.024 -0.0389  0.3295 -0.0105
  712POPI   C2B10984  14.879  17.740   7.388 -0.1711 -0.1607 -0.0198
  712POPI   C3B10985  14.880  17.937   7.754  0.2349 -0.0815 -0.2839
  712POPI   C4B10986  14.827  18.047   8.181  0.1874  0.0194 -0.0156
  713POPI    C110987  17.939  11.739   5.232  0.0033 -0.0583  0.2634
  713POPI    C210988  18.010  11.366   5.107 -0.1074 -0.0152  0.0695
  713POPI    C310989  17.658  11.457   5.275 -0.1936  0.0675 -0.1519
  713POPI   PO410990  18.168  11.827   5.374 -0.1113 -0.2161 -0.0964
  713POPI   GL110991  18.555  11.762   5.678  0.1210 -0.0672  0.1754
  713POPI   GL210992  18.309  11.864   5.883 -0.2048  0.1196  0.4445
  713POPI   C1A10993  18.817  11.611   6.019  0.0657  0.0274 -0.1986
  713POPI   D2A10994  18.766  11.592   6.505 -0.1604  0.0459 -0.0728
  713POPI   C3A10995  18.925  11.742   6.906  0.0811 -0.0442 -0.2022
  713POPI   C4A10996  19.110  11.943   7.214 -0.1980 -0.1429  0.1069
  713POPI   C1B10997  18.416  11.892   6.301 -0.1200 -0.1037 -0.1198
  713POPI   C2B10998  18.321  11.953   6.752 -0.1760  0.0881 -0.2940
  713POPI   C3B10999  18.369  11.830   7.145 -0.0649 -0.0999  0.1594
  713POPI   C4B11000  18.603  11.651   7.533 -0.1802  0.1159 -0.0217
  714POPI    C111001   2.590   5.267   5.691 -0.0859 -0.0411 -0.0883
  714POPI    C211002   2.625   5.659   5.757  0.1275 -0.0783  0.0265
  714POPI    C311003   2.928   5.457   5.592 -0.1434 -0.1154 -0.4403
  714POPI   PO411004   2.383   5.120   5.903  0.1830  0.0762 -0.0977
  714POPI   GL111005   2.272   5.092   6.348  0.2207 -0.0381  0.1436
  714POPI   GL211006   2.139   4.859   6.465  0.4169 -0.2410  0.0399
  714POPI   C1A11007   2.547   4.965   6.677 -0.2921  0.1984 -0.1465
  714POPI   D2A11008   2.567   4.707   7.058  0.1039 -0.2729 -0.0530
  714POPI   C3A11009   2.707   4.956   7.397 -0.2714 -0.0236  0.1810
  714POPI   C4A11010   2.796   5.146   7.847  0.1645 -0.2698  0.0346
  714POPI   C1B11011   2.141   5.219   6.815  0.0556 -0.1876  0.1237
  714POPI   C2B11012   2.323   5.159   7.171  0.1584 -0.0208 -0.0172
  714POPI   C3B11013   2.305   5.213   7.662 -0.2029 -0.0642 -0.1971
  714POPI   C4B11014   2.397   5.450   7.980 -0.1936  0.1333  0.0787
  715POPI    C111015   0.875   4.356   6.044  0.0449  0.0352 -0.1138
  715POPI    C211016   0.776   4.474   5.674 -0.1811 -0.0364 -0.0779
  715POPI    C311017   1.039   4.177   5.726 -0.0645  0.0480 -0.1778
  715POPI   PO411018   0.724   4.684   6.170  0.2654  0.2462  0.3188
  715POPI   GL111019   0.625   4.702   6.652  0.0397  0.1672  0.0227
  715POPI   GL211020   0.269   4.651   6.665 -0.0795 -0.0536 -0.0649
  715POPI   C1A11021   0.753   4.664   7.092  0.1452  0.1606 -0.0640
  715POPI   D2A11022   0.626   4.619   7.477 -0.2246 -0.2071 -0.3084
  715POPI   C3A11023   0.394   4.969   7.652  0.0021 -0.0756  0.0774
  715POPI   C4A11024   0.436   5.358   7.888  0.0596  0.0754  0.0555
  715POPI   C1B11025   0.274   4.906   7.045  0.0105 -0.1185  0.1937
  715POPI   C2B11026   0.664   5.154   7.239  0.0287  0.1059 -0.2414
  715POPI   C3B11027   0.876   5.453   7.401  0.1394  0.0784 -0.0079
  715POPI   C4B11028   0.886   5.690   7.752 -0.2062 -0.0361  0.1026
  716POPI    C111029  13.452  14.030   5.903 -0.2050  0.0432 -0.2834
  716POPI    C211030  13.594  13.818   5.596 -0.1423  0.0201 -0.2388
  716POPI    C311031  13.653  14.213   5.610  0.1734 -0.0296 -0.0757
  716POPI   PO411032  13.357  13.827   6.044  0.0153  0.0417  0.0633
  716POPI   GL111033  13.175  13.870   6.397  0.3574  0.1229 -0.1363
  716POPI   GL211034  13.533  13.975   6.496 -0.3838  0.4017  0.1469
  716POPI   C1A11035  13.097  13.655   6.724  0.0848 -0.0643  0.2206
  716POPI   D2A11036  13.041  13.751   7.133 -0.0555  0.1867  0.0806
  716POPI   C3A11037  13.058  14.063   7.430  0.0266  0.2712  0.1109
  716POPI   C4A11038  13.127  14.402   7.742  0.2856 -0.0883  0.4513
  716POPI   C1B11039  13.615  13.865   6.950 -0.1082  0.0357  0.0197
  716POPI   C2B11040  13.674  13.636   7.357 -0.1421  0.1209 -0.1002
  716POPI   C3B11041  13.861  13.619   7.814  0.0864 -0.2225  0.2065
  716POPI   C4B11042  13.717  13.911   8.134 -0.0187 -0.1986  0.1245
  717POPI    C111043   6.946  10.898   6.162 -0.1093 -0.0085 -0.1432
  717POPI    C211044   7.033  10.894   5.772 -0.0191 -0.2039 -0.1223
  717POPI    C311045   6.653  10.861   5.892 -0.0456 -0.1583 -0.1926
  717POPI   PO411046   7.038  10.653   6.225 -0.0563  0.2956 -0.0384
  717POPI   GL111047   7.201  10.302   6.466 -0.0216 -0.5556  0.0105
  717POPI   GL211048   7.516  10.504   6.418  0.0687  0.2985  0.0369
  717POPI   C1A11049   7.407  10.248   6.902  0.1810  0.0948  0.2010
  717POPI   D2A11050   7.435  10.302   7.359 -0.1242  0.0346  0.0440
  717POPI   C3A11051   7.011  10.348   7.538 -0.2447 -0.0145 -0.0551
  717POPI   C4A11052   6.701  10.516   7.801  0.1689 -0.2529 -0.0399
  717POPI   C1B11053   7.544  10.742   6.830  0.2198 -0.0370 -0.0724
  717POPI   C2B11054   7.635  10.773   7.288 -0.0936 -0.0312 -0.3852
  717POPI   C3B11055   7.911  10.935   7.623 -0.0177  0.2848 -0.2788
  717POPI   C4B11056   8.147  11.113   7.988  0.1067  0.0580  0.0551
  718POPI    C111057  12.406   5.026   6.124  0.0114 -0.0440  0.0393
  718POPI    C211058  12.282   5.245   5.813  0.1040 -0.1065 -0.0425
  718POPI    C311059  12.332   4.850   5.772  0.0133 -0.1317  0.0824
  718POPI   PO411060  12.305   5.205   6.295 -0.2799 -0.1386 -0.1477
  718POPI   GL111061  12.187   5.167   6.656 -0.3438 -0.2076  0.3345
  718POPI   GL211062  11.864   5.150   6.607 -0.1050 -0.3880 -0.0783
  718POPI   C1A11063  12.225   5.116   7.087 -0.5185  0.1848 -0.1380
  718POPI   D2A11064  12.161   5.157   7.507 -0.1762 -0.0841  0.1235
  718POPI   C3A11065  12.145   5.451   7.925 -0.2521  0.1483  0.1847
  718POPI   C4A11066  11.880   5.653   8.060  0.0737 -0.0271  0.0526
  718POPI   C1B11067  11.761   5.253   7.020 -0.2510 -0.0767  0.1070
  718POPI   C2B11068  11.654   5.260   7.427  0.2076  0.2321 -0.4239
  718POPI   C3B11069  11.754   5.149   7.897  0.1279 -0.0089 -0.0854
  718POPI   C4B11070  11.857   4.716   7.978 -0.0280  0.2409 -0.3394
  719POPI    C111071  13.326   8.797   5.695  0.0062 -0.0574  0.0018
  719POPI    C211072  13.095   9.093   5.557  0.1831  0.0715 -0.0219
  719POPI    C311073  13.175   8.777   5.325 -0.0476 -0.0213  0.0217
  719POPI   PO411074  13.302   8.936   5.982 -0.1009 -0.0819 -0.2672
  719POPI   GL111075  13.539   8.846   6.291 -0.1663  0.0485 -0.3791
  719POPI   GL211076  13.752   8.588   6.435  0.2128  0.1364  0.1180
  719POPI   C1A11077  13.175   8.756   6.604  0.0143 -0.1720 -0.1050
  719POPI   D2A11078  13.182   8.667   7.094 -0.2224  0.1914 -0.0097
  719POPI   C3A11079  12.881   8.849   7.330  0.0532  0.2447 -0.0376
  719POPI   C4A11080  12.459   8.950   7.393  0.2849  0.1250 -0.2948
  719POPI   C1B11081  13.717   8.665   6.896  0.4447  0.4322  0.0467
  719POPI   C2B11082  13.784   8.791   7.251  0.1315  0.0307 -0.0924
  719POPI   C3B11083  13.750   8.694   7.721 -0.1105  0.1720  0.0222
  719POPI   C4B11084  13.415   8.654   8.021  0.1824 -0.3991 -0.0208
  720POPI    C111085   4.929   5.658   5.693  0.1531  0.1645 -0.0018
  720POPI    C211086   4.653   5.742   5.416  0.2881  0.0496 -0.1736
  720POPI    C311087   4.788   5.368   5.456  0.2956  0.0723  0.0248
  720POPI   PO411088   4.872   5.876   5.828 -0.2233  0.3989 -0.3573
  720POPI   GL111089   4.693   5.850   6.251  0.2064 -0.1395 -0.0310
  720POPI   GL211090   4.443   5.693   6.366  0.0738 -0.1511  0.3299
  720POPI   C1A11091   4.715   6.220   6.572 -0.0628  0.2044 -0.0339
  720POPI   D2A11092   4.866   6.229   6.820 -0.3610 -0.0229 -0.1823
  720POPI   C3A11093   4.760   6.362   7.240 -0.0918 -0.0655 -0.0303
  720POPI   C4A11094   4.587   6.679   7.543  0.4083 -0.0000 -0.0059
  720POPI   C1B11095   4.703   5.725   6.737  0.1611 -0.1219  0.1861
  720POPI   C2B11096   4.719   5.776   7.171 -0.0641 -0.2230  0.0288
  720POPI   C3B11097   4.701   5.939   7.641  0.2241  0.1090  0.1396
  720POPI   C4B11098   4.701   5.946   8.064 -0.1381 -0.1555  0.0771
  721POPI    C111099   2.832   0.874   5.746  0.0547 -0.1130  0.0292
  721POPI    C211100   3.143   0.736   5.535  0.1576 -0.0697  0.1512
  721POPI    C311101   3.041   1.121   5.510  0.1065 -0.0864  0.1024
  721POPI   PO411102   2.910   0.724   5.984 -0.0093  0.1728  0.2448
  721POPI   GL111103   3.072   0.654   6.371  0.1013 -0.0290  0.3647
  721POPI   GL211104   3.142   0.286   6.273  0.2186  0.0110  0.2416
  721POPI   C1A11105   3.352   0.673   6.687 -0.1655 -0.4182 -0.0317
  721POPI   D2A11106   3.718   0.531   6.931 -0.0269  0.1857 -0.4360
  721POPI   C3A11107   3.649   0.532   7.389  0.2503  0.2380  0.2967
  721POPI   C4A11108   3.726   0.831   7.761  0.2286  0.4656 -0.0532
  721POPI   C1B11109   3.022   0.287   6.672 -0.0984 -0.2439  0.2493
  721POPI   C2B11110   2.840   0.374   7.022  0.0085  0.0166  0.0311
  721POPI   C3B11111   2.443   0.462   7.238 -0.1125  0.0351 -0.0778
  721POPI   C4B11112   2.385   0.669   7.660  0.1974  0.1271  0.1396
  722POPI    C111113  17.345  17.984   6.048  0.0346  0.2263  0.0025
  722POPI    C211114  17.463  18.252   5.776 -0.0446  0.0834 -0.1751
  722POPI    C311115  17.430  17.866   5.676  0.0308  0.0117  0.0680
  722POPI   PO411116  17.523  18.058   6.238 -0.0035 -0.0229 -0.0270
  722POPI   GL111117  17.812  17.873   6.692  0.0914  0.3104  0.1846
  722POPI   GL211118  18.063  17.606   6.634 -0.1675 -0.2380  0.0537
  722POPI   C1A11119  17.821  18.012   7.081 -0.0602  0.0187 -0.1014
  722POPI   D2A11120  17.764  17.836   7.410  0.0263 -0.1772  0.0156
  722POPI   C3A11121  17.680  17.772   7.831 -0.2406  0.0970 -0.4225
  722POPI   C4A11122  17.689  17.499   8.219  0.1308 -0.1728 -0.2085
  722POPI   C1B11123  18.264  17.768   6.990 -0.1774  0.2757  0.0448
  722POPI   C2B11124  18.298  17.731   7.390 -0.1940  0.0359 -0.4132
  722POPI   C3B11125  18.229  17.668   7.739 -0.0671 -0.0692  0.0036
  722POPI   C4B11126  18.248  17.501   8.202 -0.0335 -0.1318 -0.0814
  723POPI    C111127   2.272   3.572   5.543 -0.0762 -0.0098  0.0129
  723POPI    C211128   1.879   3.632   5.498 -0.0308  0.1486 -0.1845
  723POPI    C311129   2.138   3.924   5.408  0.1382  0.0069 -0.1620
  723POPI   PO411130   2.250   3.522   5.808 -0.2643 -0.1068 -0.0056
  723POPI   GL111131   2.336   3.646   6.170  0.1426 -0.2600 -0.5315
  723POPI   GL211132   2.211   3.464   6.318 -0.0411 -0.2224  0.2203
  723POPI   C1A11133   2.535   3.925   6.500 -0.1322  0.0350 -0.2631
  723POPI   D2A11134   2.546   4.200   6.922 -0.0098 -0.0290  0.0661
  723POPI   C3A11135   2.898   4.361   7.208 -0.0664 -0.4374  0.4473
  723POPI   C4A11136   3.107   4.408   7.562 -0.1598 -0.0418 -0.1176
  723POPI   C1B11137   2.296   3.574   6.705 -0.0848  0.1274  0.2132
  723POPI   C2B11138   2.478   3.571   7.040 -0.2712  0.0685  0.0888
  723POPI   C3B11139   2.699   3.903   7.269 -0.3334 -0.2802 -0.1099
  723POPI   C4B11140   3.004   3.921   7.615  0.0638  0.2211  0.1589
  724POPI    C111141  11.347   8.883   6.254 -0.0076  0.2870  0.1669
  724POPI    C211142  11.408   9.250   6.105  0.0041  0.2585  0.1013
  724POPI    C311143  11.042   9.140   6.222 -0.0902  0.1416 -0.2884
  724POPI   PO411144  11.551   8.748   6.427  0.1158 -0.4360  0.0312
  724POPI   GL111145  11.751   8.696   6.772  0.3240 -0.1102 -0.2107
  724POPI   GL211146  11.625   8.640   7.122  0.0507  0.0552 -0.0813
  724POPI   C1A11147  12.096   8.576   7.064  0.0546 -0.3029 -0.1723
  724POPI   D2A11148  12.351   8.170   7.208 -0.1681 -0.1452  0.1032
  724POPI   C3A11149  12.412   8.188   7.538  0.2518  0.0729 -0.1177
  724POPI   C4A11150  12.592   8.466   7.731 -0.1941 -0.0174 -0.2339
  724POPI   C1B11151  11.563   8.634   7.616  0.2156  0.1981 -0.1567
  724POPI   C2B11152  11.790   8.911   7.876 -0.2987  0.0901  0.1883
  724POPI   C3B11153  12.021   9.145   8.140  0.1796  0.2976 -0.0564
  724POPI   C4B11154  12.418   9.212   7.970 -0.0538  0.0228 -0.0332
  725POPI    C111155   7.570   4.142   5.907 -0.0966 -0.0128  0.2651
  725POPI    C211156   7.410   4.330   6.222 -0.2911  0.0569  0.1262
  725POPI    C311157   7.309   4.440   5.851 -0.1092 -0.0648  0.0394
  725POPI   PO411158   7.831   4.187   5.923  0.3249 -0.0604 -0.2027
  725POPI   GL111159   7.869   3.928   6.265  0.0365 -0.3203 -0.1063
  725POPI   GL211160   8.223   3.844   6.289  0.0292 -0.2136 -0.0057
  725POPI   C1A11161   7.876   4.011   6.778  0.0730 -0.2970  0.2617
  725POPI   D2A11162   7.645   4.049   7.120 -0.1922  0.1573 -0.0599
  725POPI   C3A11163   7.712   4.379   7.396  0.1133  0.0141 -0.1270
  725POPI   C4A11164   7.566   4.819   7.479 -0.3039  0.0902 -0.0743
  725POPI   C1B11165   8.145   3.639   6.604 -0.2831 -0.2134 -0.1694
  725POPI   C2B11166   8.244   3.420   7.029  0.0380 -0.0292 -0.1100
  725POPI   C3B11167   8.578   3.461   7.384  0.0550  0.2682  0.0138
  725POPI   C4B11168   8.914   3.209   7.637  0.1687 -0.0253 -0.1504
  726POPI    C111169   8.511   6.394   5.972 -0.0459 -0.0306  0.3692
  726POPI    C211170   8.163   6.201   5.932 -0.0257 -0.0274  0.1670
  726POPI    C311171   8.205   6.569   5.783  0.1286 -0.1091  0.0049
  726POPI   PO411172   8.544   6.359   6.319 -0.0570  0.4177  0.3257
  726POPI   GL111173   8.516   6.260   6.668  0.2084 -0.0050 -0.2004
  726POPI   GL211174   8.352   6.479   6.770  0.0237  0.2586 -0.2034
  726POPI   C1A11175   8.743   6.079   6.933  0.3440  0.1313  0.0032
  726POPI   D2A11176   8.837   6.005   7.323 -0.0135  0.0009  0.0829
  726POPI   C3A11177   9.052   6.040   7.731 -0.1348 -0.1752  0.1491
  726POPI   C4A11178   9.107   5.971   8.149 -0.1524  0.0886 -0.2781
  726POPI   C1B11179   8.109   6.470   7.125 -0.2804 -0.0487 -0.0382
  726POPI   C2B11180   8.054   6.451   7.502  0.0743 -0.0753  0.1518
  726POPI   C3B11181   8.076   6.276   7.911 -0.1367  0.2847 -0.1972
  726POPI   C4B11182   8.088   6.243   8.326  0.2573  0.0053  0.0893
  727POPI    C111183  13.072   2.754   6.087  0.0858 -0.0080  0.0028
  727POPI    C211184  12.905   2.553   5.785 -0.0822 -0.0018  0.0904
  727POPI    C311185  12.922   2.953   5.774  0.1058 -0.0116 -0.0091
  727POPI   PO411186  12.957   2.463   6.397 -0.0422 -0.0998  0.0327
  727POPI   GL111187  12.825   2.297   6.815  0.1698 -0.0136  0.2493
  727POPI   GL211188  13.167   2.267   6.779 -0.1307 -0.0907 -0.2145
  727POPI   C1A11189  12.671   2.383   7.094  0.0934 -0.0359 -0.2002
  727POPI   D2A11190  12.634   2.355   7.442 -0.2110  0.0029  0.1252
  727POPI   C3A11191  13.036   2.410   7.674  0.1798  0.0222 -0.1445
  727POPI   C4A11192  13.285   2.541   8.003  0.1643 -0.0026  0.2370
  727POPI   C1B11193  13.170   2.369   7.229 -0.0728  0.1068 -0.0039
  727POPI   C2B11194  13.387   2.692   7.389  0.1931  0.3391  0.1656
  727POPI   C3B11195  13.743   3.036   7.285 -0.0910 -0.1302 -0.0083
  727POPI   C4B11196  13.719   3.520   7.211  0.0410 -0.0958  0.0370
  728POPI    C111197   8.809  10.412   5.918  0.1927 -0.0051 -0.1313
  728POPI    C211198   8.945  10.339   5.549  0.0456 -0.0965 -0.1680
  728POPI    C311199   8.646  10.599   5.604  0.1985  0.0649 -0.0929
  728POPI   PO411200   8.999  10.456   6.059 -0.0209 -0.2901  0.1259
  728POPI   GL111201   8.995  10.594   6.482 -0.2226  0.4620 -0.0395
  728POPI   GL211202   9.115  10.847   6.541  0.2208 -0.1332 -0.0121
  728POPI   C1A11203   8.963  10.598   6.928  0.1257 -0.1791  0.1547
  728POPI   D2A11204   9.009  10.669   7.327 -0.0972 -0.2042  0.0181
  728POPI   C3A11205   8.792  10.481   7.663 -0.1982 -0.0402  0.0094
  728POPI   C4A11206   8.780  10.195   8.067 -0.0462 -0.0272  0.0784
  728POPI   C1B11207   9.206  11.029   6.956  0.0500  0.0417 -0.1475
  728POPI   C2B11208   9.227  11.164   7.408 -0.0263 -0.1551 -0.0324
  728POPI   C3B11209   8.949  11.387   7.567 -0.0043 -0.3108 -0.0449
  728POPI   C4B11210   8.883  11.808   7.870 -0.1441  0.0281  0.1383
  729POPI    C111211   0.305  13.935   5.590  0.2168  0.2066 -0.0914
  729POPI    C211212   0.228  13.605   5.376  0.2724  0.2105 -0.1179
  729POPI    C311213  -0.053  13.887   5.419  0.1514  0.0619  0.0832
  729POPI   PO411214   0.647  13.734   5.705  0.1483 -0.2555 -0.3170
  729POPI   GL111215   0.794  13.593   6.113  0.0891  0.2010  0.3071
  729POPI   GL211216   1.025  13.492   5.928  0.0603  0.2964 -0.1712
  729POPI   C1A11217   0.786  13.272   6.479  0.0753 -0.3017 -0.1707
  729POPI   D2A11218   0.846  13.187   6.912  0.1498  0.0786 -0.2261
  729POPI   C3A11219   0.847  13.039   7.369  0.1679  0.2973  0.4016
  729POPI   C4A11220   0.684  12.878   7.707 -0.0618 -0.2961  0.1631
  729POPI   C1B11221   1.315  13.308   6.143  0.1052 -0.1540  0.3766
  729POPI   C2B11222   1.242  13.168   6.587  0.0501  0.0602  0.0312
  729POPI   C3B11223   1.357  13.095   7.091 -0.0730  0.1796  0.0415
  729POPI   C4B11224   1.666  13.283   7.398  0.2669  0.0348  0.1698
  730POPI    C111225  13.912   5.106   5.989  0.0741 -0.0859 -0.0698
  730POPI    C211226  14.112   4.796   6.145  0.0495 -0.0244  0.0856
  730POPI    C311227  13.725   4.757   6.050  0.0565 -0.0529  0.0686
  730POPI   PO411228  13.902   5.252   6.104  0.0878  0.2270 -0.2264
  730POPI   GL111229  13.914   5.275   6.494  0.0600  0.3600  0.0827
  730POPI   GL211230  14.166   5.066   6.567 -0.2335 -0.0204 -0.1374
  730POPI   C1A11231  13.764   5.212   6.938 -0.2054 -0.1396  0.1733
  730POPI   D2A11232  13.672   5.347   7.288  0.2805 -0.0029  0.0123
  730POPI   C3A11233  13.288   5.176   7.579 -0.0951  0.0702 -0.2450
  730POPI   C4A11234  13.054   5.404   7.845 -0.2084  0.2956  0.0033
  730POPI   C1B11235  14.120   4.833   6.978 -0.1613  0.3309 -0.1426
  730POPI   C2B11236  14.286   4.504   7.237  0.4139 -0.0242 -0.0446
  730POPI   C3B11237  14.177   4.334   7.609  0.1581 -0.0027 -0.0853
  730POPI   C4B11238  14.211   4.309   8.053 -0.1206 -0.0167 -0.0248
  731POPI    C111239   6.022  15.690   5.749 -0.0031  0.0184  0.0973
  731POPI    C211240   6.241  15.404   5.923 -0.0811 -0.0463  0.0897
  731POPI    C311241   6.290  15.484   5.534 -0.2128 -0.1996  0.0404
  731POPI   PO411242   6.070  15.887   5.859 -0.0091 -0.1530  0.2976
  731POPI   GL111243   6.236  16.015   6.260  0.1859  0.0095  0.0429
  731POPI   GL211244   6.109  15.706   6.337  0.0012 -0.0286  0.2987
  731POPI   C1A11245   6.469  16.284   6.581  0.0658  0.0697  0.0525
  731POPI   D2A11246   6.187  16.195   6.991 -0.1370 -0.1692  0.0576
  731POPI   C3A11247   6.322  16.269   7.377 -0.1635  0.0210 -0.2405
  731POPI   C4A11248   6.271  16.016   7.769 -0.0697  0.1359 -0.1115
  731POPI   C1B11249   6.158  15.800   6.690  0.0711 -0.1147 -0.4166
  731POPI   C2B11250   6.252  15.593   7.091  0.2582 -0.2199  0.0927
  731POPI   C3B11251   6.128  15.436   7.474  0.2006  0.0223 -0.3791
  731POPI   C4B11252   6.079  14.973   7.693  0.1824 -0.1289  0.0687
  732POPI    C111253  13.609   2.741   6.071  0.0559 -0.1892 -0.1201
  732POPI    C211254  13.961   2.872   5.934 -0.0494  0.2143 -0.0186
  732POPI    C311255  13.912   2.485   6.020  0.4037  0.1719  0.0733
  732POPI   PO411256  13.490   2.860   6.294  0.0675 -0.0128  0.0300
  732POPI   GL111257  13.357   2.749   6.717  0.0882  0.1766 -0.0473
  732POPI   GL211258  13.468   3.154   6.707  0.3180 -0.1160 -0.0359
  732POPI   C1A11259  13.658   2.597   6.982 -0.1817  0.2393  0.3156
  732POPI   D2A11260  13.930   2.491   7.411 -0.0975  0.1405  0.1820
  732POPI   C3A11261  13.756   2.702   7.722 -0.0444 -0.0524 -0.0381
  732POPI   C4A11262  13.499   3.007   7.904 -0.0591 -0.3079 -0.1401
  732POPI   C1B11263  13.368   3.299   6.975 -0.1080 -0.1742  0.1665
  732POPI   C2B11264  13.333   3.220   7.456  0.0667  0.4554 -0.2279
  732POPI   C3B11265  13.270   3.464   7.901  0.3290  0.3139  0.0430
  732POPI   C4B11266  13.059   3.865   8.147  0.2460 -0.3229  0.0716
  733POPI    C111267   5.162  11.423   5.301  0.1280  0.0186 -0.2066
  733POPI    C211268   4.955  11.670   5.065  0.0666  0.0769 -0.0926
  733POPI    C311269   5.276  11.480   4.922  0.0034  0.0763 -0.2360
  733POPI   PO411270   5.124  11.532   5.642  0.3509  0.0786 -0.0775
  733POPI   GL111271   5.139  11.482   6.028  0.1222 -0.0190 -0.0679
  733POPI   GL211272   5.464  11.211   6.091  0.0366 -0.0465  0.0007
  733POPI   C1A11273   5.105  11.587   6.494  0.2271  0.0767  0.1716
  733POPI   D2A11274   4.956  11.565   6.794 -0.0840  0.0822  0.1168
  733POPI   C3A11275   5.164  11.703   7.080  0.2288  0.1216  0.0516
  733POPI   C4A11276   5.078  11.987   7.355 -0.0210  0.1967  0.0627
  733POPI   C1B11277   5.305  11.113   6.494 -0.2996  0.0549 -0.0912
  733POPI   C2B11278   4.917  11.125   6.561  0.1476  0.3837 -0.0124
  733POPI   C3B11279   4.747  10.881   6.876  0.0569  0.1991  0.4011
  733POPI   C4B11280   4.815  10.748   7.262  0.1211 -0.2826  0.1496
  734POPI    C111281   0.357   6.084   5.986 -0.0532  0.1952  0.2140
  734POPI    C211282   0.699   5.887   5.920 -0.1764  0.0465  0.0091
  734POPI    C311283   0.683   6.283   5.866 -0.0765  0.0323 -0.1325
  734POPI   PO411284   0.162   5.888   5.901  0.0148 -0.1690  0.0649
  734POPI   GL111285  -0.042   5.788   6.234 -0.1145  0.2363  0.3191
  734POPI   GL211286  -0.388   5.733   6.262  0.1677 -0.1516 -0.4609
  734POPI   C1A11287  -0.040   5.888   6.638 -0.2539 -0.1039  0.1549
  734POPI   D2A11288   0.273   5.881   6.872 -0.0614  0.0106 -0.2627
  734POPI   C3A11289   0.225   6.067   7.301 -0.0457  0.2832  0.1436
  734POPI   C4A11290   0.093   6.383   7.481  0.1073  0.0415 -0.1368
  734POPI   C1B11291  -0.490   5.717   6.812  0.0901 -0.3255  0.1492
  734POPI   C2B11292  -0.673   5.894   7.153 -0.0329 -0.0021  0.0410
  734POPI   C3B11293  -0.579   5.793   7.619  0.1358  0.3095 -0.2475
  734POPI   C4B11294  -0.540   5.951   8.024 -0.1762  0.0670  0.1664
  735POPI    C111295  17.342   3.756   5.643 -0.1651  0.0445 -0.1252
  735POPI    C211296  17.259   3.368   5.596  0.1981 -0.1013  0.3522
  735POPI    C311297  17.433   3.573   5.300 -0.1849 -0.2429  0.0200
  735POPI   PO411298  17.369   3.770   5.895 -0.1654 -0.0248  0.0844
  735POPI   GL111299  17.594   3.849   6.361  0.2283  0.1237 -0.1980
  735POPI   GL211300  17.658   3.474   6.514  0.2067  0.0584 -0.0074
  735POPI   C1A11301  17.451   3.858   6.770  0.0957 -0.0180  0.0059
  735POPI   D2A11302  17.470   3.684   7.212  0.0758 -0.2190  0.2006
  735POPI   C3A11303  17.299   3.918   7.462 -0.2279 -0.2302  0.3565
  735POPI   C4A11304  17.006   3.942   7.769  0.1714 -0.0879  0.0145
  735POPI   C1B11305  17.826   3.443   6.975 -0.1461 -0.0176  0.1602
  735POPI   C2B11306  17.888   3.601   7.442 -0.1309  0.0835 -0.0940
  735POPI   C3B11307  18.250   3.604   7.697  0.4185 -0.0752 -0.2003
  735POPI   C4B11308  18.376   3.723   8.060 -0.0203  0.1287 -0.2290
  736POPI    C111309   1.121   8.320   5.763  0.1329  0.0407 -0.1477
  736POPI    C211310   1.505   8.319   5.650  0.2205  0.1304  0.1406
  736POPI    C311311   1.236   8.527   5.440  0.3053 -0.0320 -0.1344
  736POPI   PO411312   1.045   8.087   5.841 -0.0821  0.0470  0.1764
  736POPI   GL111313   0.941   7.925   6.182 -0.2907 -0.2432 -0.1113
  736POPI   GL211314   1.080   8.092   6.373 -0.1305 -0.1828  0.1030
  736POPI   C1A11315   0.664   7.816   6.550  0.2152 -0.1580 -0.0327
  736POPI   D2A11316   0.642   7.800   6.970  0.0255 -0.1924 -0.1118
  736POPI   C3A11317   0.309   8.128   7.155  0.1103  0.1976 -0.0431
  736POPI   C4A11318  -0.042   8.272   7.151 -0.1182  0.1669 -0.1883
  736POPI   C1B11319   1.060   8.076   6.737  0.0803  0.2257  0.0505
  736POPI   C2B11320   1.132   8.043   7.165  0.1285 -0.1739 -0.1471
  736POPI   C3B11321   0.852   7.961   7.482 -0.2245 -0.1455  0.1058
  736POPI   C4B11322   0.633   8.300   7.651 -0.3366  0.2100 -0.0442
  737POPI    C111323  13.808   7.167   5.686  0.1759 -0.0938  0.1736
  737POPI    C211324  13.820   6.771   5.743  0.0221 -0.1195  0.0373
  737POPI    C311325  13.481   6.945   5.620  0.1565  0.0218 -0.1396
  737POPI   PO411326  13.940   7.300   5.858  0.0091  0.0306  0.2125
  737POPI   GL111327  14.022   7.306   6.313 -0.1732  0.0413  0.2106
  737POPI   GL211328  14.330   7.234   6.511 -0.2615 -0.1001 -0.3384
  737POPI   C1A11329  13.934   7.265   6.813 -0.1509  0.0881  0.0704
  737POPI   D2A11330  14.033   7.407   7.258  0.4291 -0.1297  0.2649
  737POPI   C3A11331  13.699   7.517   7.515  0.3404  0.0549  0.1872
  737POPI   C4A11332  13.458   7.363   7.723  0.0583 -0.2873 -0.1552
  737POPI   C1B11333  14.483   7.346   6.925  0.1997  0.1110  0.0082
  737POPI   C2B11334  14.523   7.387   7.312  0.0789 -0.0067 -0.1638
  737POPI   C3B11335  14.698   7.639   7.739  0.0387  0.1270 -0.1766
  737POPI   C4B11336  14.876   7.887   7.999 -0.1193 -0.3084 -0.1601
  738POPI    C111337   0.756   9.942   5.650  0.1850  0.0157 -0.0456
  738POPI    C211338   0.505  10.124   5.397  0.3258 -0.1117 -0.2804
  738POPI    C311339   0.474   9.731   5.460  0.1019 -0.0334  0.1308
  738POPI   PO411340   1.050  10.088   5.584  0.3594 -0.1370  0.1818
  738POPI   GL111341   1.210  10.404   5.797  0.0087  0.1778  0.0246
  738POPI   GL211342   1.480  10.191   5.849  0.3501 -0.1587 -0.1117
  738POPI   C1A11343   1.038  10.721   6.054 -0.0784  0.1584 -0.1141
  738POPI   D2A11344   1.224  10.906   6.379  0.1103 -0.1845 -0.0207
  738POPI   C3A11345   1.235  10.765   6.815  0.0970 -0.0983  0.0723
  738POPI   C4A11346   1.465  10.826   7.215 -0.1829  0.2065  0.1414
  738POPI   C1B11347   1.443  10.406   6.266  0.3129  0.1272  0.1904
  738POPI   C2B11348   1.331  10.337   6.645 -0.0497 -0.1299 -0.0166
  738POPI   C3B11349   1.351  10.300   7.155 -0.2127 -0.1121  0.1199
  738POPI   C4B11350   1.046  10.129   7.271 -0.1818 -0.0801 -0.1163
  739POPI    C111351   4.151  11.450   5.354  0.0472 -0.0813  0.1696
  739POPI    C211352   4.273  11.241   5.036  0.1478  0.0619  0.1131
  739POPI    C311353   4.383  11.623   5.078  0.0181  0.0851  0.2482
  739POPI   PO411354   4.179  11.311   5.560 -0.0238 -0.0089 -0.1569
  739POPI   GL111355   3.920  11.467   5.908 -0.1193  0.1042 -0.0460
  739POPI   GL211356   4.206  11.438   6.111 -0.0908  0.1778  0.2983
  739POPI   C1A11357   3.792  11.733   6.266 -0.1620 -0.1364  0.0896
  739POPI   D2A11358   3.692  12.158   6.330 -0.0685 -0.0944  0.2923
  739POPI   C3A11359   3.598  12.305   6.663 -0.1559  0.0551  0.1323
  739POPI   C4A11360   3.625  12.283   7.010 -0.0879  0.1420 -0.1686
  739POPI   C1B11361   4.162  11.681   6.569  0.2859 -0.1892  0.0093
  739POPI   C2B11362   3.781  11.840   6.874 -0.0531  0.0008 -0.0028
  739POPI   C3B11363   3.972  11.903   7.223  0.1018  0.4094 -0.1811
  739POPI   C4B11364   4.216  12.092   7.643 -0.0454  0.2484  0.3755
  740POPI    C111365  12.104   4.018   6.267 -0.0132 -0.2001  0.0979
  740POPI    C211366  12.248   4.002   5.894 -0.1005 -0.0930  0.0591
  740POPI    C311367  12.230   3.670   6.116  0.0390 -0.1398  0.0013
  740POPI   PO411368  12.092   4.353   6.290 -0.2756 -0.2068 -0.1294
  740POPI   GL111369  12.259   4.685   6.483  0.1472  0.0998 -0.4078
  740POPI   GL211370  12.499   4.753   6.593 -0.0024  0.0219  0.2187
  740POPI   C1A11371  12.167   4.653   6.919 -0.1286  0.0749 -0.0504
  740POPI   D2A11372  12.109   4.423   7.224 -0.0437 -0.1972  0.0635
  740POPI   C3A11373  12.118   4.687   7.559 -0.0520  0.1760  0.1920
  740POPI   C4A11374  12.372   4.877   7.899  0.0853 -0.0873  0.1002
  740POPI   C1B11375  12.731   4.777   6.957  0.4272  0.2028 -0.1539
  740POPI   C2B11376  12.875   5.070   7.305 -0.2025 -0.1048 -0.0820
  740POPI   C3B11377  12.781   4.978   7.671 -0.0119  0.0495  0.0735
  740POPI   C4B11378  12.987   4.905   7.963  0.1698 -0.2017 -0.1096
  741POPS   CNO11379  10.300  17.023   5.709  0.0519  0.3285  0.0828
  741POPS   PO411380  10.516  17.220   6.106  0.0242 -0.0409  0.1217
  741POPS   GL111381  10.585  17.112   6.538 -0.1936 -0.3578  0.1218
  741POPS   GL211382  10.719  16.792   6.642  0.0100 -0.1927  0.1574
  741POPS   C1A11383  10.625  17.133   7.052  0.0165 -0.0797  0.3014
  741POPS   D2A11384  10.308  17.151   7.278  0.1075  0.1986  0.1741
  741POPS   C3A11385  10.279  17.104   7.740 -0.0353 -0.0818  0.0018
  741POPS   C4A11386  10.483  17.153   8.151  0.2284  0.1715 -0.1411
  741POPS   C1B11387  10.993  16.730   6.975  0.0018  0.1045  0.0097
  741POPS   C2B11388  10.971  16.745   7.361 -0.0929 -0.0003 -0.2059
  741POPS   C3B11389  11.056  16.685   7.784  0.4373  0.4293  0.3367
  741POPS   C4B11390  10.896  16.809   8.158  0.1469  0.0514  0.0409
  742POPS   CNO11391   0.417   0.324   5.991 -0.0233 -0.1691 -0.2564
  742POPS   PO411392   0.294   0.618   5.928 -0.0423  0.3027  0.4175
  742POPS   GL111393   0.338   0.657   6.386 -0.0965  0.0325  0.1366
  742POPS   GL211394   0.644   0.694   6.353  0.0925  0.0693  0.2722
  742POPS   C1A11395   0.374   0.644   6.780 -0.3929  0.1987  0.2591
  742POPS   D2A11396   0.504   0.805   7.212  0.0633  0.0639  0.0773
  742POPS   C3A11397   0.312   0.642   7.489 -0.0518 -0.0824 -0.0366
  742POPS   C4A11398   0.213   0.550   7.900 -0.0038 -0.1118  0.2561
  742POPS   C1B11399   1.019   0.822   6.465 -0.0332  0.4130 -0.3423
  742POPS   C2B11400   1.314   1.139   6.662  0.1463  0.0261 -0.0845
  742POPS   C3B11401   1.534   1.363   6.995 -0.0940 -0.0304  0.2386
  742POPS   C4B11402   1.622   1.379   7.400 -0.2602 -0.1984  0.0933
  743POPS   CNO11403   1.909  13.296   5.958  0.1408  0.0855 -0.3712
  743POPS   PO411404   2.095  13.036   5.671 -0.1769 -0.0422  0.1428
  743POPS   GL111405   2.015  12.801   6.066  0.1046  0.0097 -0.1147
  743POPS   GL211406   2.190  13.009   6.307 -0.2800  0.0184  0.4131
  743POPS   C1A11407   1.948  12.534   6.442  0.0227 -0.0789  0.0680
  743POPS   D2A11408   1.944  12.431   6.917 -0.0444 -0.0948 -0.0321
  743POPS   C3A11409   2.156  12.516   7.255 -0.0825  0.0556 -0.1695
  743POPS   C4A11410   2.254  12.390   7.708 -0.1846  0.1259 -0.1613
  743POPS   C1B11411   2.262  12.827   6.703 -0.2003  0.0994 -0.0731
  743POPS   C2B11412   2.434  12.884   7.153  0.1077 -0.0906  0.0914
  743POPS   C3B11413   2.597  12.725   7.596 -0.1624 -0.1256  0.1699
  743POPS   C4B11414   3.005  12.574   7.699  0.2909  0.2141  0.1341
  744POPS   CNO11415  17.791   7.890   5.708 -0.0048 -0.1217 -0.1138
  744POPS   PO411416  17.473   8.063   5.890  0.0557 -0.0426  0.2237
  744POPS   GL111417  17.422   8.385   6.224  0.1290 -0.1493  0.2589
  744POPS   GL211418  17.362   8.166   6.436  0.0925  0.1817 -0.2380
  744POPS   C1A11419  17.373   8.765   6.491 -0.1006  0.0187  0.2592
  744POPS   D2A11420  17.276   8.674   6.941 -0.0078  0.2381  0.0251
  744POPS   C3A11421  17.457   8.464   7.263  0.0802 -0.1113  0.0928
  744POPS   C4A11422  17.464   8.264   7.775 -0.1896  0.2029 -0.0239
  744POPS   C1B11423  17.807   8.003   6.585  0.0805  0.0013 -0.1258
  744POPS   C2B11424  18.221   8.123   6.602  0.0814 -0.2218 -0.1411
  744POPS   C3B11425  18.650   8.331   6.704  0.0403 -0.1930 -0.2720
  744POPS   C4B11426  18.993   8.602   6.814 -0.1401 -0.0010 -0.0980
  745POPS   CNO11427  15.422   8.213   5.931  0.2267 -0.1448 -0.0336
  745POPS   PO411428  15.139   8.455   5.910  0.0606  0.0303  0.0160
  745POPS   GL111429  15.321   8.598   6.320 -0.1442  0.0871 -0.3263
  745POPS   GL211430  15.371   9.000   6.321 -0.0987  0.0348 -0.0158
  745POPS   C1A11431  15.440   8.692   6.746 -0.2620 -0.1864  0.2434
  745POPS   D2A11432  15.405   8.929   7.131 -0.1844  0.1574 -0.3572
  745POPS   C3A11433  15.188   8.836   7.564 -0.0903 -0.0602 -0.2644
  745POPS   C4A11434  15.038   8.604   7.847 -0.2343 -0.1435 -0.1667
  745POPS   C1B11435  15.461   9.182   6.716 -0.1439 -0.0755  0.1698
  745POPS   C2B11436  15.545   9.392   7.206 -0.3819 -0.1226 -0.0268
  745POPS   C3B11437  15.379   9.464   7.562 -0.0321 -0.4547 -0.2455
  745POPS   C4B11438  15.588   9.384   7.939 -0.2795  0.0852 -0.0832
  746POPS   CNO11439   3.958   3.962   6.444 -0.0218  0.2367  0.0455
  746POPS   PO411440   4.285   3.736   6.156 -0.2982 -0.1043 -0.1540
  746POPS   GL111441   4.468   3.842   6.546  0.0296  0.4545 -0.1306
  746POPS   GL211442   4.715   3.717   6.466 -0.1540 -0.0848 -0.0782
  746POPS   C1A11443   4.555   3.906   6.970 -0.0795  0.1712 -0.4034
  746POPS   D2A11444   4.686   3.920   7.393 -0.1156 -0.0817  0.0892
  746POPS   C3A11445   4.936   4.173   7.614 -0.0611 -0.1279  0.1551
  746POPS   C4A11446   5.211   4.471   7.882 -0.0040 -0.2803 -0.5179
  746POPS   C1B11447   4.981   4.051   6.743 -0.1874  0.0369  0.1595
  746POPS   C2B11448   5.084   4.043   7.112  0.0428  0.2035 -0.1197
  746POPS   C3B11449   5.128   3.647   7.434  0.0379  0.0368 -0.1408
  746POPS   C4B11450   4.885   3.325   7.668  0.1918 -0.1812 -0.0769
  747POPS   CNO11451   9.250   7.349   5.735 -0.0677  0.2277  0.2521
  747POPS   PO411452   9.094   6.973   5.966  0.1889 -0.1854 -0.2949
  747POPS   GL111453   9.154   6.932   6.271 -0.0703 -0.0963 -0.1483
  747POPS   GL211454   9.341   6.748   6.436 -0.1252 -0.1113  0.0338
  747POPS   C1A11455   9.116   7.156   6.695 -0.0934  0.2387 -0.0384
  747POPS   D2A11456   9.161   7.270   7.061 -0.1687  0.3822  0.0129
  747POPS   C3A11457   8.864   7.207   7.395 -0.0253  0.0634  0.0798
  747POPS   C4A11458   8.721   7.238   7.726  0.0458  0.0960  0.5328
  747POPS   C1B11459   9.324   6.757   6.882  0.2699  0.0742 -0.3095
  747POPS   C2B11460   9.224   6.835   7.285 -0.1836  0.1412 -0.1243
  747POPS   C3B11461   9.060   6.798   7.694  0.2870 -0.0224  0.0356
  747POPS   C4B11462   9.041   6.512   8.020 -0.0137  0.1980  0.0149
  748POPS   CNO11463  10.449   9.622   5.665  0.1052 -0.1123 -0.1466
  748POPS   PO411464  10.361   9.241   6.025 -0.1879 -0.2713 -0.2248
  748POPS   GL111465  10.438   9.377   6.388 -0.2558 -0.3565  0.1045
  748POPS   GL211466  10.371   9.617   6.425  0.0992 -0.0648 -0.0849
  748POPS   C1A11467  10.302   9.151   6.700  0.2592 -0.1309  0.0487
  748POPS   D2A11468  10.033   8.788   6.864 -0.3083 -0.1766 -0.1742
  748POPS   C3A11469   9.798   8.864   7.239  0.0272  0.0137 -0.2365
  748POPS   C4A11470   9.912   8.727   7.749  0.1559  0.0823 -0.3127
  748POPS   C1B11471  10.342   9.674   6.850  0.0466 -0.1547 -0.1865
  748POPS   C2B11472  10.361   9.587   7.274  0.2415  0.0190  0.1259
  748POPS   C3B11473  10.460   9.522   7.730 -0.0359 -0.0657  0.0987
  748POPS   C4B11474  10.242   9.409   8.094  0.0569  0.1243 -0.1523
  749POPS   CNO11475   4.868   9.674   5.728 -0.1479 -0.1650 -0.0849
  749POPS   PO411476   4.747   9.994   5.587  0.1966 -0.1535  0.1157
  749POPS   GL111477   4.724  10.131   6.048 -0.0043 -0.2086 -0.1881
  749POPS   GL211478   4.979  10.315   6.065  0.0715 -0.1768 -0.0765
  749POPS   C1A11479   4.644   9.927   6.509  0.1297 -0.2668 -0.1005
  749POPS   D2A11480   4.491   9.740   6.862 -0.0321  0.1442 -0.1347
  749POPS   C3A11481   4.261   9.874   7.244  0.5105  0.0419  0.0596
  749POPS   C4A11482   3.870   9.981   7.406 -0.2604 -0.2350 -0.1409
  749POPS   C1B11483   5.083  10.145   6.418 -0.0418  0.0534  0.0769
  749POPS   C2B11484   5.086   9.859   6.919  0.0745 -0.1930  0.2405
  749POPS   C3B11485   5.277   9.564   7.320 -0.2299 -0.1104 -0.0078
  749POPS   C4B11486   5.391   9.189   7.464  0.1225  0.2804 -0.2444
  750POPS   CNO11487  16.430  11.540   5.723 -0.0607 -0.1122  0.1821
  750POPS   PO411488  16.518  11.348   6.090  0.1518 -0.1618  0.0855
  750POPS   GL111489  16.199  11.324   6.449 -0.0091  0.1121  0.2118
  750POPS   GL211490  15.874  11.177   6.462 -0.0545 -0.0359  0.0871
  750POPS   C1A11491  16.233  11.420   6.830 -0.0480 -0.3143 -0.3176
  750POPS   D2A11492  16.147  11.323   7.280 -0.0203  0.0101  0.0395
  750POPS   C3A11493  15.806  11.311   7.313 -0.2656 -0.0628 -0.0705
  750POPS   C4A11494  15.404  11.593   7.391  0.0027  0.1962  0.1562
  750POPS   C1B11495  15.782  11.132   6.851  0.0443 -0.2963  0.2165
  750POPS   C2B11496  15.611  10.891   7.112 -0.1181  0.0637  0.1228
  750POPS   C3B11497  15.595  10.638   7.428  0.1942  0.2457 -0.0017
  750POPS   C4B11498  15.326  10.276   7.606 -0.1936 -0.0830  0.0411
  751POPS   CNO11499   9.303   6.393   5.819  0.1566  0.3380 -0.0657
  751POPS   PO411500   9.505   6.353   6.166 -0.0923 -0.1381  0.5656
  751POPS   GL111501   9.354   6.223   6.513 -0.1566 -0.3687 -0.2165
  751POPS   GL211502   9.114   6.295   6.643 -0.2525  0.1849 -0.2453
  751POPS   C1A11503   9.615   6.161   6.984  0.2169  0.0432 -0.2458
  751POPS   D2A11504   9.665   6.109   7.460 -0.1696  0.1926  0.1628
  751POPS   C3A11505   9.917   5.818   7.668  0.1259  0.2288 -0.1370
  751POPS   C4A11506  10.079   5.646   8.095  0.2541  0.1086 -0.2920
  751POPS   C1B11507   9.126   6.304   7.066 -0.0145 -0.0238 -0.0539
  751POPS   C2B11508   9.245   6.394   7.482 -0.2307 -0.0420  0.2372
  751POPS   C3B11509   9.483   6.268   7.904 -0.0809 -0.2221 -0.1240
  751POPS   C4B11510   9.375   6.312   8.334  0.0699 -0.1854 -0.0485
  752POPS   CNO11511  12.841  12.607   6.152 -0.1888  0.2365  0.1064
  752POPS   PO411512  13.256  12.383   6.103 -0.0281 -0.0679  0.2163
  752POPS   GL111513  13.288  12.122   6.396 -0.1654  0.2644  0.3082
  752POPS   GL211514  13.447  12.459   6.538  0.0547  0.2900 -0.1425
  752POPS   C1A11515  13.280  11.954   6.773  0.0715 -0.2483  0.1451
  752POPS   D2A11516  13.182  11.884   7.170  0.0300 -0.0954 -0.1639
  752POPS   C3A11517  13.489  11.779   7.502 -0.0051 -0.1207 -0.1581
  752POPS   C4A11518  13.748  11.624   7.933  0.1548  0.2571  0.1448
  752POPS   C1B11519  13.451  12.511   6.895 -0.1163  0.1724 -0.0364
  752POPS   C2B11520  13.564  12.273   7.266  0.1776  0.1204  0.2050
  752POPS   C3B11521  13.338  12.276   7.671  0.1420  0.1817  0.1938
  752POPS   C4B11522  12.929  12.294   7.932  0.0802 -0.1173  0.1904
  753POPS   CNO11523  16.823  15.353   5.375  0.2634  0.1992 -0.1721
  753POPS   PO411524  17.202  15.221   5.596 -0.1438  0.0522 -0.4257
  753POPS   GL111525  17.146  15.297   6.071  0.1437 -0.2764  0.1147
  753POPS   GL211526  17.063  15.093   6.229 -0.0427  0.1641  0.3097
  753POPS   C1A11527  17.420  15.378   6.475  0.2269 -0.1100 -0.3339
  753POPS   D2A11528  17.577  15.860   6.677  0.1378 -0.0152  0.0278
  753POPS   C3A11529  17.708  15.711   6.988 -0.2527 -0.1575 -0.0141
  753POPS   C4A11530  17.453  15.663   7.200 -0.2314  0.0635  0.0183
  753POPS   C1B11531  17.066  14.953   6.648 -0.0439  0.0536 -0.0629
  753POPS   C2B11532  17.003  14.787   7.042 -0.0490  0.0687  0.2675
  753POPS   C3B11533  16.900  14.516   7.401 -0.0375  0.1027 -0.0001
  753POPS   C4B11534  16.537  14.466   7.661  0.1166 -0.1498  0.0597
  754POPS   CNO11535  10.270   6.562   6.050  0.0960  0.2572 -0.1122
  754POPS   PO411536   9.900   6.761   6.298 -0.2789  0.1378 -0.0543
  754POPS   GL111537   9.775   6.590   6.712  0.0437 -0.1547 -0.2668
  754POPS   GL211538   9.901   6.858   6.947 -0.0399  0.0968 -0.2233
  754POPS   C1A11539   9.659   6.584   7.241  0.0607 -0.0990  0.0716
  754POPS   D2A11540   9.726   6.763   7.591 -0.0686  0.3054  0.0156
  754POPS   C3A11541   9.906   6.474   7.716 -0.1305 -0.0190 -0.3858
  754POPS   C4A11542   9.927   6.113   8.091  0.0288  0.0147 -0.2423
  754POPS   C1B11543   9.736   7.181   7.104  0.0920 -0.2163 -0.1214
  754POPS   C2B11544   9.414   7.200   7.520  0.0655 -0.1118 -0.1395
  754POPS   C3B11545   9.196   7.269   7.980  0.1200  0.2382  0.0189
  754POPS   C4B11546   9.242   7.371   8.388 -0.2017 -0.1032 -0.0452
  755POPS   CNO11547   3.351  10.687   5.804  0.0128 -0.0566  0.0401
  755POPS   PO411548   3.713  10.488   5.714 -0.0685 -0.0066 -0.1845
  755POPS   GL111549   3.697  10.407   6.088 -0.1953  0.1014  0.2055
  755POPS   GL211550   3.872  10.546   6.307 -0.1821 -0.0643  0.1748
  755POPS   C1A11551   3.728  10.037   6.383  0.2205 -0.1955 -0.2043
  755POPS   D2A11552   3.680   9.662   6.443  0.1118 -0.2409  0.2237
  755POPS   C3A11553   3.476   9.524   6.892  0.0593  0.2954  0.0591
  755POPS   C4A11554   3.574   9.652   7.229  0.0154  0.0741 -0.2734
  755POPS   C1B11555   3.852  10.681   6.676 -0.1627 -0.4371 -0.1516
  755POPS   C2B11556   3.792  10.990   7.021  0.3471  0.2538 -0.2571
  755POPS   C3B11557   3.863  11.027   7.428 -0.0968  0.1035  0.2174
  755POPS   C4B11558   4.154  10.663   7.587 -0.1071  0.2177  0.0267
  756POPS   CNO11559  13.126   6.695   5.897 -0.0897  0.1971 -0.1510
  756POPS   PO411560  13.149   6.786   6.244  0.3080 -0.1423  0.1266
  756POPS   GL111561  13.124   6.973   6.532  0.2006 -0.3899  0.0380
  756POPS   GL211562  13.071   7.260   6.466  0.0447  0.1157 -0.0765
  756POPS   C1A11563  13.174   7.168   6.996 -0.0824  0.3433  0.1039
  756POPS   D2A11564  13.389   7.451   7.131  0.1769 -0.2128  0.1304
  756POPS   C3A11565  13.361   7.876   7.394 -0.0570  0.3229  0.1490
  756POPS   C4A11566  13.433   8.004   7.735  0.0724  0.3619  0.0993
  756POPS   C1B11567  12.942   7.507   6.740 -0.2005  0.2215 -0.0171
  756POPS   C2B11568  12.966   7.767   7.064  0.1040 -0.0663 -0.1165
  756POPS   C3B11569  13.039   8.062   6.927  0.0804  0.2052 -0.0160
  756POPS   C4B11570  12.904   8.328   6.620 -0.2816 -0.0870  0.1443
  757POPS   CNO11571  13.852  16.318   6.317 -0.1683 -0.1604  0.0900
  757POPS   PO411572  13.540  15.877   6.292  0.0240  0.1256  0.1557
  757POPS   GL111573  13.426  15.771   6.724 -0.1076 -0.1359 -0.0499
  757POPS   GL211574  13.412  16.116   6.774  0.0180  0.2273 -0.0744
  757POPS   C1A11575  13.246  15.772   7.182 -0.0483 -0.1118  0.1405
  757POPS   D2A11576  13.046  15.584   7.628 -0.3040 -0.2034  0.1233
  757POPS   C3A11577  13.285  15.467   7.977  0.2152 -0.0944 -0.1866
  757POPS   C4A11578  13.420  15.601   8.389  0.0576  0.2922  0.0520
  757POPS   C1B11579  13.403  16.288   7.185  0.1066 -0.0527  0.2355
  757POPS   C2B11580  13.701  16.536   7.200 -0.2636 -0.0914 -0.1415
  757POPS   C3B11581  14.045  16.726   7.369  0.4056  0.0052  0.2048
  757POPS   C4B11582  14.423  16.977   7.362 -0.0489 -0.1117 -0.0786
  758POPS   CNO11583  12.720   0.158   6.124 -0.1622  0.0798 -0.4555
  758POPS   PO411584  12.299   0.185   6.304 -0.0105  0.2117 -0.1477
  758POPS   GL111585  12.283  -0.018   6.641  0.0499 -0.1757 -0.0939
  758POPS   GL211586  12.053  -0.262   6.612 -0.1607  0.3116 -0.0157
  758POPS   C1A11587  12.074   0.007   7.046  0.1000  0.1910 -0.2501
  758POPS   D2A11588  12.236   0.071   7.389 -0.1073  0.2165 -0.0665
  758POPS   C3A11589  12.122  -0.113   7.662  0.2436  0.0914 -0.2070
  758POPS   C4A11590  11.835  -0.113   7.926  0.0063  0.0789 -0.1946
  758POPS   C1B11591  11.849  -0.425   7.079  0.0263  0.3492  0.1761
  758POPS   C2B11592  11.933  -0.527   7.436  0.1168 -0.3110 -0.0671
  758POPS   C3B11593  12.071  -0.626   7.799 -0.0409  0.2842 -0.1350
  758POPS   C4B11594  12.106  -0.567   8.245  0.0563  0.0830 -0.1607
  759POPS   CNO11595   7.882  14.898   5.867  0.0387  0.0405 -0.0949
  759POPS   PO411596   8.256  14.731   5.752  0.2120  0.0011  0.0915
  759POPS   GL111597   8.300  14.534   6.212 -0.0080 -0.2201 -0.0128
  759POPS   GL211598   8.124  14.310   6.318 -0.0204  0.1943 -0.1267
  759POPS   C1A11599   8.478  14.514   6.632 -0.2899 -0.0073  0.0150
  759POPS   D2A11600   8.555  14.608   6.930  0.2175 -0.0346  0.0261
  759POPS   C3A11601   8.314  14.866   7.179 -0.0349 -0.2261  0.2546
  759POPS   C4A11602   8.237  15.116   7.475  0.0844  0.1129 -0.0662
  759POPS   C1B11603   8.151  14.183   6.728 -0.1078 -0.0766 -0.2462
  759POPS   C2B11604   8.254  14.215   7.052  0.1236  0.0485  0.1084
  759POPS   C3B11605   8.224  13.960   7.376  0.2555 -0.2764  0.0519
  759POPS   C4B11606   8.042  13.625   7.300  0.2523  0.0456 -0.1810
  760POPS   CNO11607   1.320   8.816   5.853 -0.0315  0.3548  0.0597
  760POPS   PO411608   1.246   9.230   5.870 -0.0290 -0.0500  0.1529
  760POPS   GL111609   1.170   9.395   6.295  0.0410 -0.2007 -0.1681
  760POPS   GL211610   1.536   9.424   6.318  0.0191 -0.0626 -0.0329
  760POPS   C1A11611   1.200   9.447   6.759 -0.2278 -0.1809  0.1030
  760POPS   D2A11612   1.243   9.702   7.266 -0.0557  0.0504 -0.1975
  760POPS   C3A11613   0.972   9.625   7.662 -0.2544  0.2127  0.2876
  760POPS   C4A11614   1.005   9.582   8.113 -0.1938  0.1130 -0.0148
  760POPS   C1B11615   1.759   9.503   6.656  0.3199 -0.0341  0.2300
  760POPS   C2B11616   1.623   9.428   7.086  0.0953  0.2712 -0.1500
  760POPS   C3B11617   1.525   9.408   7.539  0.3164 -0.1637 -0.0266
  760POPS   C4B11618   1.535   9.581   7.973  0.3800  0.2889 -0.1560
  761POPS   CNO11619   5.560   2.585   5.843  0.3412  0.0043 -0.0603
  761POPS   PO411620   5.673   2.220   5.793 -0.1620  0.3917  0.2505
  761POPS   GL111621   5.743   2.358   6.229  0.0786 -0.3790  0.3724
  761POPS   GL211622   5.407   2.340   6.382  0.1385  0.0902 -0.0987
  761POPS   C1A11623   5.775   2.309   6.750  0.1275  0.2258 -0.1345
  761POPS   D2A11624   5.895   2.469   7.216 -0.0485  0.0944  0.2795
  761POPS   C3A11625   5.900   2.221   7.542  0.0900  0.0669 -0.1948
  761POPS   C4A11626   6.159   1.865   7.596  0.0525  0.0556 -0.1385
  761POPS   C1B11627   5.255   2.250   6.810  0.0561  0.0945 -0.3355
  761POPS   C2B11628   4.885   2.047   6.878 -0.1116  0.0897 -0.0255
  761POPS   C3B11629   4.718   1.971   7.283  0.1458 -0.0321  0.1176
  761POPS   C4B11630   4.547   1.883   7.656 -0.1363  0.0673 -0.2596
  762POPS   CNO11631   6.168  10.089   6.090  0.3991  0.0359  0.1356
  762POPS   PO411632   6.295  10.483   5.794  0.1894  0.2920  0.1166
  762POPS   GL111633   6.253  10.645   6.165  0.1137  0.0212  0.1761
  762POPS   GL211634   6.461  10.832   6.374  0.0695  0.3275 -0.1360
  762POPS   C1A11635   6.074  10.401   6.503  0.0209 -0.0095 -0.2824
  762POPS   D2A11636   5.932  10.247   6.819  0.1820 -0.0140  0.0771
  762POPS   C3A11637   6.128  10.268   7.257  0.0403  0.1710 -0.0404
  762POPS   C4A11638   6.353  10.143   7.656  0.3272  0.1494  0.1722
  762POPS   C1B11639   6.377  10.933   6.806  0.4073  0.1293  0.1080
  762POPS   C2B11640   6.663  10.978   7.115 -0.1100  0.1455 -0.0892
  762POPS   C3B11641   6.841  10.843   7.480  0.2442 -0.3644  0.1577
  762POPS   C4B11642   7.270  10.837   7.585 -0.1096  0.2733  0.0849
  763POPS   CNO11643   7.739   0.346   5.863 -0.0187  0.0050  0.2850
  763POPS   PO411644   8.076   0.053   5.942  0.0191  0.0944 -0.0999
  763POPS   GL111645   8.276   0.093   6.364  0.0904  0.0597 -0.1242
  763POPS   GL211646   8.346  -0.205   6.518  0.0895 -0.2266 -0.0677
  763POPS   C1A11647   8.193   0.218   6.790  0.0856  0.0355  0.1920
  763POPS   D2A11648   8.397   0.629   6.909 -0.2265  0.0522  0.2017
  763POPS   C3A11649   8.432   0.748   7.240 -0.0096  0.3839 -0.2183
  763POPS   C4A11650   8.896   0.759   7.322 -0.5373  0.0195 -0.0566
  763POPS   C1B11651   8.387  -0.270   6.936  0.1213  0.0752 -0.2050
  763POPS   C2B11652   8.490  -0.249   7.378  0.3975  0.0846 -0.2204
  763POPS   C3B11653   8.713  -0.290   7.795 -0.1273  0.1696  0.3262
  763POPS   C4B11654   9.030  -0.378   8.131  0.1079 -0.2116 -0.2902
  764POPS   CNO11655   0.115  10.416   5.435  0.5927  0.1459 -0.2960
  764POPS   PO411656   0.006  10.046   5.655 -0.0853 -0.0451  0.1749
  764POPS   GL111657   0.327  10.244   5.896 -0.1484  0.1798 -0.2882
  764POPS   GL211658   0.183  10.215   6.261 -0.0263  0.1339  0.1107
  764POPS   C1A11659   0.697  10.349   6.229 -0.2432  0.1317 -0.0994
  764POPS   D2A11660   0.861  10.569   6.480  0.1535  0.1757  0.1088
  764POPS   C3A11661   0.853  10.294   6.748  0.3170  0.2272 -0.1765
  764POPS   C4A11662   0.493  10.231   7.031 -0.0140  0.0699  0.1765
  764POPS   C1B11663   0.374  10.053   6.574 -0.0017  0.3414  0.0149
  764POPS   C2B11664   0.035  10.227   6.946  0.3303 -0.0509  0.2125
  764POPS   C3B11665  -0.050  10.441   7.375 -0.0478  0.0874  0.0993
  764POPS   C4B11666  -0.152  10.455   7.833  0.1124 -0.1305 -0.2732
  765POPS   CNO11667  12.490  10.498   5.589 -0.3408 -0.1018 -0.1234
  765POPS   PO411668  12.862  10.399   5.910 -0.0949  0.2309  0.2323
  765POPS   GL111669  12.839  10.176   6.302 -0.2308  0.2917  0.0725
  765POPS   GL211670  12.432  10.266   6.423 -0.1729 -0.2626  0.0464
  765POPS   C1A11671  13.127  10.153   6.669 -0.3106 -0.0019  0.2556
  765POPS   D2A11672  13.252  10.067   7.125 -0.2272  0.2411  0.1322
  765POPS   C3A11673  13.649  10.132   7.342 -0.2294 -0.1123  0.2371
  765POPS   C4A11674  13.911  10.063   7.674 -0.5479  0.3182 -0.0880
  765POPS   C1B11675  12.660  10.275   6.789 -0.3120 -0.2155 -0.2127
  765POPS   C2B11676  12.888  10.380   7.125 -0.0916  0.1865  0.4558
  765POPS   C3B11677  13.047  10.400   7.503 -0.1395  0.4138  0.0021
  765POPS   C4B11678  12.837  10.257   7.860 -0.0672 -0.0125 -0.3791
  766POPS   CNO11679  10.174  16.531   5.738 -0.0329 -0.1248 -0.0584
  766POPS   PO411680   9.787  16.631   5.970 -0.1719  0.0169  0.0169
  766POPS   GL111681   9.913  16.572   6.373 -0.0879 -0.3917  0.0146
  766POPS   GL211682  10.219  16.619   6.531  0.0408  0.0761  0.5175
  766POPS   C1A11683   9.843  16.565   6.795 -0.3794 -0.5253 -0.0249
  766POPS   D2A11684   9.791  16.589   7.162 -0.0878  0.0017 -0.1615
  766POPS   C3A11685   9.975  16.831   7.428  0.0818  0.4711  0.2203
  766POPS   C4A11686  10.020  16.698   7.803  0.0450 -0.0853 -0.4263
  766POPS   C1B11687  10.306  16.731   6.991  0.2515 -0.0326 -0.1222
  766POPS   C2B11688  10.434  16.694   7.424 -0.2210  0.0429  0.0695
  766POPS   C3B11689  10.487  16.681   7.869  0.0989  0.1189  0.0194
  766POPS   C4B11690  10.214  16.595   8.270  0.2832 -0.2207  0.0450
  767POPS   CNO11691   2.586   7.107   5.474  0.2509 -0.1194  0.0339
  767POPS   PO411692   2.981   7.121   5.762 -0.0554  0.2649  0.1294
  767POPS   GL111693   3.039   7.092   6.209 -0.2248  0.1285  0.3364
  767POPS   GL211694   2.725   7.064   6.247  0.0730  0.0399  0.2253
  767POPS   C1A11695   3.020   7.265   6.721  0.2656 -0.2681 -0.1134
  767POPS   D2A11696   3.230   7.021   7.095  0.1642 -0.2456  0.0746
  767POPS   C3A11697   3.407   7.230   7.442 -0.1100 -0.1996 -0.0344
  767POPS   C4A11698   3.288   7.675   7.505  0.3675 -0.0281  0.2941
  767POPS   C1B11699   2.544   7.056   6.691  0.1915 -0.1240  0.0437
  767POPS   C2B11700   2.521   7.121   7.117  0.2605 -0.1363 -0.1027
  767POPS   C3B11701   2.386   7.355   7.363 -0.0704 -0.2048  0.0244
  767POPS   C4B11702   2.236   7.275   7.774 -0.0829  0.0430  0.4670
  768POPS   CNO11703  10.447   1.550   5.759  0.0863 -0.0619  0.0443
  768POPS   PO411704  10.363   1.949   6.047 -0.1835 -0.0508  0.1417
  768POPS   GL111705  10.191   1.683   6.401  0.2302 -0.0977  0.2048
  768POPS   GL211706  10.347   1.398   6.508  0.1006  0.1005 -0.0285
  768POPS   C1A11707   9.919   1.632   6.665 -0.0027 -0.1747  0.1063
  768POPS   D2A11708   9.577   1.876   6.761  0.0392 -0.3006 -0.2596
  768POPS   C3A11709   9.198   1.965   6.634  0.0734  0.3148 -0.3000
  768POPS   C4A11710   9.085   2.344   6.577  0.3706 -0.2096 -0.0397
  768POPS   C1B11711  10.351   1.527   6.934  0.0080  0.1832 -0.0343
  768POPS   C2B11712  10.336   1.582   7.337  0.1838  0.2026  0.0761
  768POPS   C3B11713  10.099   1.824   7.531  0.0268  0.0686  0.1226
  768POPS   C4B11714  10.108   1.932   8.087  0.0196 -0.0024  0.0878
  769POPS   CNO11715  17.047   8.860   5.620  0.2869 -0.1378 -0.0137
  769POPS   PO411716  16.866   8.933   6.027  0.1184  0.2795 -0.0096
  769POPS   GL111717  16.695   8.819   6.404 -0.1371 -0.1894 -0.0776
  769POPS   GL211718  16.891   8.603   6.440  0.1793  0.0973 -0.1381
  769POPS   C1A11719  16.602   9.092   6.693 -0.0278  0.1639  0.2080
  769POPS   D2A11720  16.477   9.169   7.064 -0.3782  0.1890 -0.0909
  769POPS   C3A11721  16.578   9.036   7.443 -0.0605 -0.0988 -0.2512
  769POPS   C4A11722  16.678   8.757   7.700  0.0042  0.1339  0.0796
  769POPS   C1B11723  16.791   8.659   6.879 -0.2517  0.3582  0.2356
  769POPS   C2B11724  16.922   8.629   7.313 -0.2850 -0.2889  0.4148
  769POPS   C3B11725  17.228   8.730   7.628 -0.2952  0.0964 -0.0978
  769POPS   C4B11726  17.469   8.943   8.069 -0.1269 -0.0984 -0.0236
  770POPS   CNO11727  16.670  15.287   5.881  0.0827  0.1754  0.2010
  770POPS   PO411728  16.555  15.735   5.997 -0.3544 -0.1303 -0.2051
  770POPS   GL111729  16.327  15.817   6.427 -0.3457  0.1182 -0.0076
  770POPS   GL211730  16.003  15.544   6.546  0.0716  0.1943 -0.1131
  770POPS   C1A11731  16.444  15.606   6.821 -0.0590 -0.2444 -0.2027
  770POPS   D2A11732  16.410  15.759   7.253  0.1019 -0.0688 -0.2148
  770POPS   C3A11733  16.578  15.552   7.572  0.1572  0.2657 -0.2464
  770POPS   C4A11734  16.909  15.468   7.689  0.1081 -0.0587 -0.3918
  770POPS   C1B11735  16.094  15.143   6.801  0.3712 -0.1024  0.0851
  770POPS   C2B11736  16.176  15.316   7.215  0.2674 -0.1044  0.2138
  770POPS   C3B11737  16.001  15.416   7.634 -0.1399 -0.0218  0.0069
  770POPS   C4B11738  15.967  15.223   7.987 -0.1838  0.0012  0.3658
  771POPS   CNO11739   3.026   4.978   5.748 -0.1025  0.1783  0.1134
  771POPS   PO411740   3.310   5.085   6.041  0.2769 -0.2713  0.0754
  771POPS   GL111741   3.337   4.895   6.433  0.0994 -0.1591  0.2632
  771POPS   GL211742   3.085   5.028   6.593 -0.0744  0.0878 -0.4117
  771POPS   C1A11743   3.543   4.892   6.848  0.1073 -0.0972 -0.1361
  771POPS   D2A11744   3.647   4.899   7.353  0.0629  0.1042 -0.1648
  771POPS   C3A11745   3.692   4.986   7.746 -0.0710 -0.1674 -0.3142
  771POPS   C4A11746   3.755   4.914   8.201 -0.1223  0.0666  0.0915
  771POPS   C1B11747   2.981   4.554   6.750 -0.1178  0.1039 -0.2507
  771POPS   C2B11748   3.078   4.124   6.773  0.3689  0.1757  0.0523
  771POPS   C3B11749   3.260   3.946   7.094 -0.0101  0.0271 -0.0112
  771POPS   C4B11750   3.625   3.813   7.280  0.0623 -0.0247 -0.1964
  772POPS   CNO11751   6.704  17.605   5.455  0.1539  0.1129 -0.1552
  772POPS   PO411752   6.926  17.235   5.688  0.1372 -0.0621 -0.0472
  772POPS   GL111753   6.960  17.415   6.154  0.1081 -0.2746  0.1813
  772POPS   GL211754   6.988  17.322   6.485 -0.1168  0.0870 -0.2078
  772POPS   C1A11755   7.080  17.780   6.393 -0.1085 -0.0857  0.0295
  772POPS   D2A11756   7.158  17.776   6.755 -0.0548  0.2788 -0.1716
  772POPS   C3A11757   6.905  17.846   7.115  0.0041 -0.2787  0.0887
  772POPS   C4A11758   6.855  17.780   7.560  0.1390 -0.0365  0.3122
  772POPS   C1B11759   6.828  17.332   6.893  0.0232 -0.2337  0.0315
  772POPS   C2B11760   6.509  17.166   7.105  0.1668 -0.0125 -0.2683
  772POPS   C3B11761   6.371  17.370   7.439  0.1874  0.2448 -0.1228
  772POPS   C4B11762   6.059  17.421   7.808 -0.0166 -0.1150  0.2013
  773POPS   CNO11763  16.131   6.740   5.742  0.3066  0.1294  0.5744
  773POPS   PO411764  15.813   6.430   6.008 -0.1663 -0.2041 -0.0361
  773POPS   GL111765  16.023   6.563   6.428  0.0747 -0.1652  0.0569
  773POPS   GL211766  16.269   6.316   6.540  0.2297  0.0175 -0.0354
  773POPS   C1A11767  16.076   6.733   6.930  0.1051  0.1923  0.2279
  773POPS   D2A11768  16.145   6.982   7.278  0.3576  0.0527 -0.0819
  773POPS   C3A11769  15.974   6.743   7.622  0.2716  0.0599  0.1688
  773POPS   C4A11770  15.553   6.669   7.830 -0.0136 -0.2283 -0.0514
  773POPS   C1B11771  16.453   6.131   6.902  0.0370  0.1517 -0.0286
  773POPS   C2B11772  16.413   6.011   7.318  0.2652 -0.0082 -0.3649
  773POPS   C3B11773  16.645   5.593   7.558  0.0930 -0.1024 -0.0404
  773POPS   C4B11774  17.017   5.486   7.499 -0.3033 -0.2017 -0.1206
  774POPS   CNO11775  14.771  14.137   5.340 -0.0405 -0.1552 -0.1781
  774POPS   PO411776  14.632  14.413   5.655  0.0236  0.1741  0.2304
  774POPS   GL111777  14.595  14.324   6.132  0.0335  0.0938 -0.0767
  774POPS   GL211778  14.396  14.024   6.189  0.3929  0.0182 -0.1827
  774POPS   C1A11779  14.440  14.298   6.571 -0.2608 -0.0865  0.2272
  774POPS   D2A11780  14.529  14.429   7.026 -0.0903 -0.2646 -0.2575
  774POPS   C3A11781  14.367  14.230   7.332  0.2335 -0.0054  0.1559
  774POPS   C4A11782  13.999  13.950   7.259  0.0235 -0.3454 -0.1586
  774POPS   C1B11783  14.452  13.782   6.515 -0.2692  0.2893  0.1324
  774POPS   C2B11784  14.464  13.927   6.953  0.0052  0.2172 -0.1855
  774POPS   C3B11785  14.465  13.764   7.403  0.1613  0.2284  0.1974
  774POPS   C4B11786  14.265  13.949   7.889  0.0465  0.1101  0.1441
  775POPS   CNO11787  16.903  17.932   5.879 -0.0757  0.1264 -0.1179
  775POPS   PO411788  16.578  17.959   6.275  0.0227 -0.2734  0.0133
  775POPS   GL111789  16.702  18.108   6.664 -0.0116  0.0186  0.3037
  775POPS   GL211790  16.767  18.411   6.777  0.1780  0.2221 -0.1490
  775POPS   C1A11791  16.961  18.005   7.027 -0.3169  0.1004 -0.1764
  775POPS   D2A11792  16.801  18.000   7.382 -0.2194  0.2595 -0.1085
  775POPS   C3A11793  16.899  18.257   7.718 -0.2747 -0.1390 -0.2497
  775POPS   C4A11794  17.022  18.549   8.059  0.2320 -0.1289 -0.1187
  775POPS   C1B11795  16.652  18.378   7.087  0.0909 -0.1026 -0.1158
  775POPS   C2B11796  16.321  18.273   7.454 -0.0841  0.0255  0.2224
  775POPS   C3B11797  16.200  18.048   7.876 -0.1272 -0.0674 -0.3123
  775POPS   C4B11798  15.986  17.774   8.095  0.0109  0.0552  0.0377
  776POPS   CNO11799  11.967   7.674   6.120  0.1110  0.0263  0.0210
  776POPS   PO411800  12.060   7.962   6.468  0.0469 -0.3438 -0.2027
  776POPS   GL111801  11.947   8.109   6.865 -0.1326 -0.1174  0.0912
  776POPS   GL211802  11.744   7.900   6.959 -0.3033  0.0274 -0.5019
  776POPS   C1A11803  11.885   8.256   7.388 -0.0224 -0.1425  0.2863
  776POPS   D2A11804  11.822   8.270   7.785  0.1217  0.0484 -0.2349
  776POPS   C3A11805  12.166   8.150   7.944  0.3253  0.1283 -0.0769
  776POPS   C4A11806  12.566   8.272   8.200 -0.0384  0.1410  0.1675
  776POPS   C1B11807  11.612   7.729   7.290 -0.1534 -0.1405  0.2351
  776POPS   C2B11808  11.319   7.543   7.555  0.1711  0.1884 -0.0721
  776POPS   C3B11809  11.042   7.374   7.901  0.1397 -0.1867 -0.0465
  776POPS   C4B11810  10.971   7.284   8.309 -0.0897  0.2070 -0.2172
  777POPS   CNO11811  14.216  10.877   5.676  0.0817 -0.0157 -0.1605
  777POPS   PO411812  14.426  11.273   5.840 -0.3705 -0.2050 -0.0933
  777POPS   GL111813  14.544  11.182   6.234  0.0906  0.3737  0.0056
  777POPS   GL211814  14.863  11.158   6.232 -0.0819  0.1591 -0.1944
  777POPS   C1A11815  14.622  10.745   6.476 -0.1289 -0.1440  0.2518
  777POPS   D2A11816  14.734  10.234   6.533 -0.0913  0.0007  0.0968
  777POPS   C3A11817  15.149  10.244   6.621 -0.1271  0.1969 -0.1566
  777POPS   C4A11818  15.479  10.325   6.795 -0.2637 -0.1207  0.0682
  777POPS   C1B11819  14.699  11.228   6.683 -0.1957  0.1481  0.0605
  777POPS   C2B11820  14.743  10.958   7.099 -0.0835  0.0712 -0.0011
  777POPS   C3B11821  14.612  10.811   7.489 -0.1324 -0.0094  0.1755
  777POPS   C4B11822  14.660  11.111   7.760  0.1135 -0.3208 -0.1367
  778POPS   CNO11823   1.993   5.490   6.406 -0.0070  0.1063 -0.0495
  778POPS   PO411824   2.328   5.549   6.220 -0.1027 -0.0507  0.2912
  778POPS   GL111825   2.694   5.514   6.587 -0.0764  0.0068 -0.3091
  778POPS   GL211826   2.879   5.744   6.738  0.3354  0.0987  0.0355
  778POPS   C1A11827   2.819   5.280   6.986  0.2404  0.1126  0.3646
  778POPS   D2A11828   3.127   4.922   7.209 -0.2207 -0.0379  0.0705
  778POPS   C3A11829   3.221   4.943   7.620  0.1675 -0.0471 -0.1107
  778POPS   C4A11830   3.027   4.749   7.920  0.0275  0.0210 -0.2613
  778POPS   C1B11831   2.773   5.744   7.104 -0.0366  0.1155 -0.0318
  778POPS   C2B11832   2.844   5.504   7.432  0.0171 -0.1076  0.3241
  778POPS   C3B11833   2.872   5.627   7.821  0.0187 -0.2163  0.1983
  778POPS   C4B11834   2.974   5.553   8.237 -0.0937 -0.0633  0.3091
  779POPS   CNO11835   6.543   5.809   6.497 -0.2224  0.2914 -0.1602
  779POPS   PO411836   6.762   6.078   6.168 -0.0699 -0.1240  0.0159
  779POPS   GL111837   6.685   6.311   6.517 -0.0206  0.1686  0.1655
  779POPS   GL211838   6.441   6.532   6.582  0.2270 -0.3889 -0.0809
  779POPS   C1A11839   6.942   6.425   6.956 -0.2844  0.2863 -0.1092
  779POPS   D2A11840   7.296   6.348   7.063  0.0617 -0.1108 -0.0433
  779POPS   C3A11841   7.253   6.196   7.385  0.0959 -0.1574  0.1059
  779POPS   C4A11842   7.243   6.002   7.694  0.1286  0.0365 -0.1299
  779POPS   C1B11843   6.145   6.752   6.859  0.0540  0.0693 -0.0965
  779POPS   C2B11844   5.838   6.733   7.251 -0.3660 -0.0134  0.2686
  779POPS   C3B11845   5.622   6.590   7.549  0.1324 -0.1391  0.2424
  779POPS   C4B11846   5.728   6.466   7.913 -0.0716  0.2026  0.2645
  780POPS   CNO11847   3.073   3.506   5.750 -0.2563 -0.0013  0.1420
  780POPS   PO411848   3.333   3.687   5.953 -0.0101  0.0732  0.2567
  780POPS   GL111849   3.301   3.718   6.482 -0.0748 -0.1831 -0.0282
  780POPS   GL211850   3.618   3.572   6.406  0.1190  0.3691  0.1376
  780POPS   C1A11851   3.032   3.507   6.700 -0.0118 -0.3274  0.1296
  780POPS   D2A11852   2.973   3.530   7.169 -0.0617  0.1530 -0.1112
  780POPS   C3A11853   3.303   3.473   7.458 -0.1140 -0.1340 -0.1269
  780POPS   C4A11854   3.721   3.400   7.707  0.2925 -0.2356 -0.0381
  780POPS   C1B11855   3.512   3.508   6.890  0.0729 -0.0537 -0.0599
  780POPS   C2B11856   3.612   3.129   7.191  0.4938 -0.0811 -0.0120
  780POPS   C3B11857   3.469   2.733   7.427  0.2987  0.1761 -0.0606
  780POPS   C4B11858   3.536   2.548   7.820 -0.2533  0.1499  0.1002
  781POPS   CNO11859   8.096   8.084   6.079  0.0123 -0.1675  0.3532
  781POPS   PO411860   8.142   8.490   6.342  0.1904  0.0293  0.0183
  781POPS   GL111861   8.222   8.194   6.673 -0.1625  0.1179  0.2480
  781POPS   GL211862   7.880   8.086   6.650  0.0783 -0.2601 -0.0184
  781POPS   C1A11863   8.561   8.115   6.969 -0.0689 -0.2441 -0.1111
  781POPS   D2A11864   8.617   8.232   7.394 -0.1185  0.0887  0.2815
  781POPS   C3A11865   8.460   8.056   7.754  0.2347 -0.1700  0.0582
  781POPS   C4A11866   8.277   8.253   8.162 -0.0477  0.4062 -0.1465
  781POPS   C1B11867   7.880   8.058   7.032  0.0822 -0.2418 -0.0417
  781POPS   C2B11868   7.685   7.938   7.379 -0.2041 -0.1734 -0.2766
  781POPS   C3B11869   7.373   7.840   7.582 -0.0197  0.0414 -0.0748
  781POPS   C4B11870   7.330   7.685   7.987 -0.1374  0.1450  0.1068
  782POPS   CNO11871   8.894  15.781   5.783 -0.1679 -0.3536  0.1462
  782POPS   PO411872   8.948  15.427   5.594 -0.0250 -0.0075 -0.1303
  782POPS   GL111873   8.766  15.311   6.026 -0.1167 -0.2350 -0.0273
  782POPS   GL211874   8.813  14.982   6.238 -0.0081  0.2089  0.4036
  782POPS   C1A11875   8.478  15.442   6.333 -0.0761 -0.2419  0.0915
  782POPS   D2A11876   8.196  15.505   6.661  0.4216  0.0969  0.2721
  782POPS   C3A11877   8.359  15.477   7.071 -0.1408  0.2402  0.1846
  782POPS   C4A11878   8.567  15.515   7.497 -0.0509  0.1379 -0.1187
  782POPS   C1B11879   8.564  15.012   6.550 -0.1030  0.0723 -0.1354
  782POPS   C2B11880   8.224  15.034   6.717 -0.2550 -0.0018  0.0019
  782POPS   C3B11881   7.865  15.197   7.100 -0.2442 -0.2846  0.0495
  782POPS   C4B11882   7.681  15.150   7.493  0.3128 -0.0646 -0.2791
  783POPS   CNO11883  10.047   5.541   6.035  0.2172 -0.0024  0.1080
  783POPS   PO411884   9.650   5.462   6.059 -0.0064  0.2933  0.0585
  783POPS   GL111885   9.809   5.350   6.437  0.0314 -0.0426  0.1433
  783POPS   GL211886   9.978   5.139   6.379 -0.0146 -0.1075 -0.0092
  783POPS   C1A11887   9.722   5.525   6.863  0.0176  0.0651  0.0692
  783POPS   D2A11888   9.994   5.868   6.985  0.0437 -0.0276 -0.1113
  783POPS   C3A11889  10.302   6.035   7.350  0.1511  0.0147  0.4616
  783POPS   C4A11890  10.318   6.202   7.642  0.2983  0.0705 -0.0741
  783POPS   C1B11891   9.685   4.875   6.525  0.2831 -0.3854  0.0535
  783POPS   C2B11892   9.662   4.814   6.990 -0.1951 -0.0037  0.1629
  783POPS   C3B11893   9.330   4.647   7.218  0.0011  0.1183  0.2623
  783POPS   C4B11894   8.997   4.660   7.286 -0.3770 -0.1745 -0.0203
  784POPS   CNO11895  10.323  13.569   5.797  0.0465  0.1623  0.3458
  784POPS   PO411896  10.252  13.158   6.012 -0.0473  0.0290 -0.1210
  784POPS   GL111897  10.187  13.427   6.304  0.1695 -0.1975 -0.2712
  784POPS   GL211898  10.505  13.519   6.364  0.1408  0.2026 -0.1573
  784POPS   C1A11899   9.916  13.474   6.684  0.0819  0.1485 -0.0520
  784POPS   D2A11900   9.902  13.009   7.009 -0.0965  0.1443 -0.4012
  784POPS   C3A11901   9.507  12.928   7.250 -0.0584  0.0974 -0.1770
  784POPS   C4A11902   9.244  12.819   7.579 -0.3700 -0.0221 -0.0344
  784POPS   C1B11903  10.428  13.519   6.710  0.3041 -0.3430 -0.2342
  784POPS   C2B11904  10.454  13.340   7.125  0.3588 -0.1824  0.3814
  784POPS   C3B11905  10.473  13.541   7.586 -0.1976 -0.0809 -0.2233
  784POPS   C4B11906  10.480  13.451   8.081 -0.0974  0.0311 -0.2979
  785POPS   CNO11907  12.751  17.034   6.299 -0.0962 -0.5941  0.0805
  785POPS   PO411908  12.640  16.540   6.326  0.0863  0.0150  0.0112
  785POPS   GL111909  12.464  16.614   6.704  0.0550  0.1134  0.0116
  785POPS   GL211910  12.527  16.875   6.760  0.0287 -0.3987 -0.2454
  785POPS   C1A11911  12.328  16.502   7.112 -0.1160 -0.1857  0.2429
  785POPS   D2A11912  12.197  16.528   7.504 -0.0909 -0.0073 -0.2018
  785POPS   C3A11913  11.846  16.857   7.666 -0.2970  0.0326  0.0117
  785POPS   C4A11914  11.827  16.981   8.114 -0.1374 -0.3269 -0.1529
  785POPS   C1B11915  12.700  16.772   7.225 -0.0908 -0.1703  0.1714
  785POPS   C2B11916  12.679  16.639   7.602  0.0659  0.0329 -0.0219
  785POPS   C3B11917  12.963  16.491   7.921 -0.1102 -0.2242  0.2218
  785POPS   C4B11918  12.837  16.312   8.285  0.1031  0.1289 -0.1187
  786POPS   CNO11919  13.859  17.287   6.309 -0.0434  0.0843  0.1090
  786POPS   PO411920  13.647  17.391   5.997  0.0372 -0.0152  0.1180
  786POPS   GL111921  13.392  17.557   6.349  0.1377  0.0359  0.1126
  786POPS   GL211922  13.373  17.835   6.450 -0.0195 -0.3108 -0.0799
  786POPS   C1A11923  12.995  17.392   6.650  0.0425  0.1098  0.1176
  786POPS   D2A11924  12.920  17.191   7.005  0.4404  0.1313 -0.0803
  786POPS   C3A11925  13.099  17.167   7.452  0.2282  0.3167  0.1997
  786POPS   C4A11926  12.840  17.041   7.781  0.0802 -0.0034 -0.0185
  786POPS   C1B11927  13.305  17.729   6.859 -0.1880  0.0098  0.3518
  786POPS   C2B11928  13.022  17.654   7.070  0.0396  0.2999  0.2003
  786POPS   C3B11929  13.049  17.643   7.535  0.2320  0.3427  0.1513
  786POPS   C4B11930  13.008  17.510   7.868 -0.1531  0.0449  0.1148
  787POPS   CNO11931   3.055   6.630   6.098 -0.0829  0.0113 -0.0204
  787POPS   PO411932   3.149   6.211   6.134 -0.0476 -0.0506  0.0530
  787POPS   GL111933   2.734   6.340   6.342  0.1965  0.1623 -0.0419
  787POPS   GL211934   2.557   6.606   6.448 -0.1659  0.1817  0.2736
  787POPS   C1A11935   2.494   6.263   6.767  0.2891  0.5408 -0.2092
  787POPS   D2A11936   2.720   6.242   7.091 -0.2017 -0.1403  0.2632
  787POPS   C3A11937   2.805   6.639   7.236 -0.3065 -0.0130  0.0301
  787POPS   C4A11938   2.949   6.958   7.494  0.1355  0.1892 -0.3041
  787POPS   C1B11939   2.926   6.729   6.576 -0.0047  0.0201 -0.2038
  787POPS   C2B11940   3.339   6.922   6.557  0.2647 -0.1449  0.2207
  787POPS   C3B11941   3.745   6.958   6.617 -0.0291 -0.0082 -0.2959
  787POPS   C4B11942   4.191   7.070   6.780 -0.0104  0.0068  0.3470
  788POPS   CNO11943   1.516  16.178   6.242  0.0223  0.1242 -0.0978
  788POPS   PO411944   1.331  15.923   5.891 -0.0838  0.0025  0.1935
  788POPS   GL111945   1.093  15.735   6.301 -0.0327  0.2470  0.0851
  788POPS   GL211946   1.141  15.940   6.535  0.1523  0.0139 -0.1335
  788POPS   C1A11947   0.908  15.376   6.557  0.0059 -0.2990 -0.0719
  788POPS   D2A11948   1.031  15.166   6.907  0.0331 -0.0435  0.2274
  788POPS   C3A11949   1.398  14.913   7.069 -0.1247 -0.2202  0.1021
  788POPS   C4A11950   1.755  14.693   7.191  0.1263  0.1693 -0.1775
  788POPS   C1B11951   1.290  16.041   6.854  0.2273  0.0796 -0.5015
  788POPS   C2B11952   1.233  16.134   7.268  0.0207  0.2414 -0.2231
  788POPS   C3B11953   1.334  15.964   7.696 -0.1095  0.1275 -0.0899
  788POPS   C4B11954   1.424  15.784   8.099  0.0126 -0.0529 -0.0744
  789POPS   CNO11955   8.666  17.549   5.604  0.1403 -0.0784  0.0253
  789POPS   PO411956   8.887  17.366   5.919 -0.3656  0.0365 -0.0442
  789POPS   GL111957   9.062  17.229   6.245  0.0335 -0.5433  0.1104
  789POPS   GL211958   9.326  17.479   6.422 -0.2517  0.2089  0.0440
  789POPS   C1A11959   9.127  17.108   6.656 -0.2610  0.1323 -0.0830
  789POPS   D2A11960   9.083  17.125   7.057  0.2387  0.0446 -0.3697
  789POPS   C3A11961   9.385  17.453   7.158 -0.0692  0.1201  0.3991
  789POPS   C4A11962   9.565  17.623   7.509  0.3916 -0.1676 -0.0493
  789POPS   C1B11963   9.532  17.608   6.742  0.1393 -0.0869  0.1922
  789POPS   C2B11964   9.900  17.602   7.062 -0.0777 -0.1639  0.2614
  789POPS   C3B11965  10.044  17.536   7.505 -0.1504  0.2319 -0.1480
  789POPS   C4B11966  10.265  17.834   7.931  0.3244  0.1016  0.2871
  790POPS   CNO11967   7.928  10.361   6.135 -0.0698 -0.0725 -0.3244
  790POPS   PO411968   8.317  10.201   5.962 -0.1738 -0.0577  0.0762
  790POPS   GL111969   8.500  10.433   6.347 -0.1345  0.0341 -0.0075
  790POPS   GL211970   8.397  10.655   6.173 -0.1790 -0.0914  0.1185
  790POPS   C1A11971   8.477  10.432   6.748  0.0854 -0.1064 -0.1223
  790POPS   D2A11972   8.526  10.469   7.208 -0.0818  0.0483 -0.1282
  790POPS   C3A11973   8.261  10.650   7.399  0.4019  0.0468 -0.1995
  790POPS   C4A11974   8.321  10.650   7.753  0.0822 -0.1990  0.2650
  790POPS   C1B11975   8.057  10.650   6.486  0.0010  0.1520 -0.0137
  790POPS   C2B11976   8.011  10.789   6.949  0.1270  0.1607 -0.0439
  790POPS   C3B11977   8.116  11.109   7.196  0.0224  0.2066 -0.2187
  790POPS   C4B11978   8.041  11.464   7.504 -0.3748 -0.0319  0.0960
  791POPS   CNO11979   3.057   2.968   5.784  0.1108  0.0488 -0.2005
  791POPS   PO411980   3.240   2.767   6.125  0.0568 -0.1881 -0.3099
  791POPS   GL111981   2.835   2.837   6.330 -0.0509  0.1202  0.0031
  791POPS   GL211982   2.803   3.079   6.529 -0.1661 -0.4817  0.1265
  791POPS   C1A11983   2.585   2.613   6.650 -0.1089 -0.2793 -0.2370
  791POPS   D2A11984   2.483   2.512   7.010  0.0816  0.3914  0.0788
  791POPS   C3A11985   2.660   2.579   7.397 -0.2107  0.0184  0.2090
  791POPS   C4A11986   2.768   2.915   7.877  0.0432 -0.1767  0.3521
  791POPS   C1B11987   2.557   3.048   6.941 -0.1963  0.1370  0.4032
  791POPS   C2B11988   2.519   3.194   7.408 -0.2467 -0.2340  0.1244
  791POPS   C3B11989   2.679   3.469   7.522 -0.1004  0.1163 -0.3338
  791POPS   C4B11990   2.508   3.736   7.768  0.0866 -0.1070 -0.5441
  792POPS   CNO11991   0.620  12.031   4.649  0.1753  0.0507 -0.1590
  792POPS   PO411992   0.722  12.386   4.983 -0.0073 -0.2236  0.0542
  792POPS   GL111993   0.988  12.275   5.329 -0.3374  0.1055 -0.1716
  792POPS   GL211994   1.214  12.518   5.586 -0.2259  0.1609  0.0414
  792POPS   C1A11995   1.143  11.932   5.736  0.1823 -0.0747 -0.1137
  792POPS   D2A11996   1.002  12.036   6.210  0.0064  0.2784  0.1238
  792POPS   C3A11997   0.897  12.167   6.650  0.1189  0.0998  0.1257
  792POPS   C4A11998   0.724  12.240   7.110 -0.0631 -0.1130 -0.1682
  792POPS   C1B11999   1.247  12.377   6.039 -0.0568 -0.0385  0.0133
  792POPS   C2B12000   1.316  12.444   6.469 -0.1260 -0.0647 -0.0017
  792POPS   C3B12001   1.458  12.680   6.742  0.1351  0.0223 -0.3026
  792POPS   C4B12002   1.514  12.634   7.145  0.1946 -0.1423  0.2500
  793POPS   CNO12003   0.047  15.623   5.567  0.0318  0.1428 -0.0093
  793POPS   PO412004   0.070  15.769   6.042  0.0299  0.1217 -0.0223
  793POPS   GL112005   0.052  15.473   6.320 -0.0363 -0.2140  0.3767
  793POPS   GL212006  -0.120  15.420   6.531 -0.1178 -0.3573 -0.0418
  793POPS   C1A12007   0.373  15.280   6.506  0.0441 -0.2249  0.0318
  793POPS   D2A12008   0.374  15.278   6.931  0.0298 -0.0870  0.0084
  793POPS   C3A12009   0.723  15.389   7.218  0.0331  0.1479  0.2086
  793POPS   C4A12010   1.061  15.095   7.422 -0.1249 -0.0945 -0.0724
  793POPS   C1B12011  -0.165  15.254   6.933  0.1372 -0.0446 -0.2164
  793POPS   C2B12012  -0.024  15.361   7.318  0.2216 -0.2544 -0.1212
  793POPS   C3B12013  -0.097  15.309   7.732 -0.0413  0.2646  0.0460
  793POPS   C4B12014   0.043  15.116   8.112  0.1211 -0.0720  0.0931
  794POPS   CNO12015  15.075   9.757   5.632  0.0644 -0.2052 -0.0804
  794POPS   PO412016  15.363   9.542   5.888 -0.0040  0.2057  0.0742
  794POPS   GL112017  15.380   9.600   6.360 -0.1561 -0.0093 -0.0700
  794POPS   GL212018  15.665   9.581   6.458 -0.0715  0.0630 -0.2845
  794POPS   C1A12019  15.102   9.757   6.649 -0.0813 -0.1265  0.1524
  794POPS   D2A12020  14.814   9.883   6.998  0.0951 -0.5811  0.0465
  794POPS   C3A12021  14.661   9.537   7.140  0.1236  0.3516 -0.1565
  794POPS   C4A12022  14.705   9.130   6.997  0.1127  0.1678 -0.0650
  794POPS   C1B12023  15.515   9.835   6.878  0.2465 -0.0657 -0.0606
  794POPS   C2B12024  15.205   9.934   7.217  0.1905 -0.0357 -0.2405
  794POPS   C3B12025  14.993   9.743   7.605 -0.1106  0.5233 -0.0742
  794POPS   C4B12026  14.794   9.730   8.002  0.0651  0.0679 -0.2228
  795POPS   CNO12027  17.121  10.365   5.600  0.0678 -0.2067 -0.2445
  795POPS   PO412028  17.334  10.528   5.998 -0.0957  0.0989 -0.0804
  795POPS   GL112029  17.174  10.609   6.389 -0.0527 -0.2943 -0.2894
  795POPS   GL212030  17.246  10.373   6.530 -0.0810  0.0033 -0.2134
  795POPS   C1A12031  17.075  10.852   6.738  0.2657 -0.1554  0.1845
  795POPS   D2A12032  16.857  10.837   7.172 -0.1342 -0.2067  0.1422
  795POPS   C3A12033  17.006  10.694   7.585  0.1638 -0.0391  0.1204
  795POPS   C4A12034  17.363  10.548   7.838 -0.1881 -0.0456 -0.1703
  795POPS   C1B12035  17.491  10.124   6.787 -0.4602 -0.0341 -0.4086
  795POPS   C2B12036  17.604   9.986   7.128 -0.3517 -0.2820 -0.3161
  795POPS   C3B12037  17.805   9.910   7.431  0.2827  0.4238  0.1346
  795POPS   C4B12038  17.855   9.583   7.730 -0.1243 -0.1995 -0.0623
  796POPS   CNO12039   8.848   9.332   5.578  0.2431  0.0129  0.1299
  796POPS   PO412040   8.985   9.502   5.945  0.0412 -0.2983 -0.1141
  796POPS   GL112041   8.932   9.657   6.306 -0.2192  0.1587  0.2131
  796POPS   GL212042   8.795   9.978   6.263  0.0710 -0.1056  0.1719
  796POPS   C1A12043   8.702   9.692   6.661  0.0867  0.0586  0.0563
  796POPS   D2A12044   8.547   9.974   6.906 -0.0750 -0.0152  0.1183
  796POPS   C3A12045   8.471   9.925   7.253  0.1694 -0.0184  0.3630
  796POPS   C4A12046   8.421  10.140   7.589  0.1688  0.3943  0.1604
  796POPS   C1B12047   8.968  10.125   6.594  0.1074  0.3998 -0.2719
  796POPS   C2B12048   9.013  10.087   6.981  0.0706  0.6806  0.1979
  796POPS   C3B12049   8.965  10.029   7.391 -0.0952 -0.1344  0.3976
  796POPS   C4B12050   9.039   9.833   7.896  0.1735  0.3989 -0.1755
  797POPS   CNO12051  17.191  13.162   5.767  0.0872  0.2638 -0.1874
  797POPS   PO412052  17.478  13.532   5.977 -0.0109 -0.1029 -0.0040
  797POPS   GL112053  17.593  13.626   6.349 -0.0266  0.0112  0.1809
  797POPS   GL212054  17.795  13.373   6.368  0.1237 -0.2316 -0.0390
  797POPS   C1A12055  17.442  13.517   6.677  0.1881 -0.0503 -0.0136
  797POPS   D2A12056  17.512  13.394   7.148 -0.3066  0.0547 -0.0863
  797POPS   C3A12057  17.275  13.328   7.528 -0.0468 -0.0871 -0.2112
  797POPS   C4A12058  17.369  13.223   8.009 -0.1034 -0.2963  0.0309
  797POPS   C1B12059  18.019  13.040   6.577  0.0228  0.4505 -0.0437
  797POPS   C2B12060  18.353  13.048   6.879  0.0148 -0.0197  0.1929
  797POPS   C3B12061  18.363  13.171   7.289  0.1056  0.1486  0.0386
  797POPS   C4B12062  18.290  13.239   7.786 -0.1177 -0.2887  0.1058
  798POPS   CNO12063   8.489  13.507   6.006 -0.0006  0.3283 -0.0437
  798POPS   PO412064   8.835  13.797   6.063 -0.0692  0.0721  0.1078
  798POPS   GL112065   8.894  13.625   6.470  0.1254  0.0029 -0.0523
  798POPS   GL212066   9.202  13.839   6.403  0.1563 -0.0012 -0.0616
  798POPS   C1A12067   9.015  13.646   6.942  0.2794  0.0376 -0.0190
  798POPS   D2A12068   9.006  13.741   7.405 -0.0656 -0.2200 -0.0750
  798POPS   C3A12069   8.720  13.583   7.725 -0.0108  0.0100 -0.2585
  798POPS   C4A12070   8.340  13.711   7.929 -0.0759 -0.1119 -0.1739
  798POPS   C1B12071   9.521  13.824   6.742 -0.1893  0.1136  0.1814
  798POPS   C2B12072   9.759  13.887   7.183  0.0346 -0.3714  0.3469
  798POPS   C3B12073  10.008  13.920   7.551 -0.2214  0.3745  0.1095
  798POPS   C4B12074  10.121  13.716   7.870 -0.0693  0.1131 -0.1167
  799POPS   CNO12075  13.787  12.873   5.724 -0.1312 -0.2093 -0.0765
  799POPS   PO412076  14.153  13.077   5.768 -0.0917  0.1112 -0.2238
  799POPS   GL112077  14.181  12.974   6.241  0.2367  0.1463 -0.1133
  799POPS   GL212078  14.489  12.945   6.306 -0.1536  0.0967 -0.3520
  799POPS   C1A12079  14.346  13.060   6.736 -0.0248  0.2879  0.0272
  799POPS   D2A12080  14.489  13.018   7.194 -0.0557  0.0335 -0.0573
  799POPS   C3A12081  14.565  13.261   7.539  0.2212 -0.1225  0.1463
  799POPS   C4A12082  14.379  13.462   7.883  0.1877 -0.0410 -0.2679
  799POPS   C1B12083  14.627  13.286   6.357 -0.2647  0.1792  0.0071
  799POPS   C2B12084  14.637  13.416   6.862  0.0179 -0.2646 -0.0440
  799POPS   C3B12085  14.980  13.345   7.166  0.0308 -0.1543  0.2651
  799POPS   C4B12086  15.196  13.290   7.571  0.1157  0.0530  0.0028
  800POPS   CNO12087  17.526   5.064   5.702 -0.2390 -0.0865 -0.1839
  800POPS   PO412088  17.911   5.046   5.775  0.1093  0.0399 -0.0026
  800POPS   GL112089  17.947   5.116   6.165  0.0803 -0.0987  0.0622
  800POPS   GL212090  17.896   4.927   6.356 -0.1689 -0.0771  0.1358
  800POPS   C1A12091  17.971   5.340   6.547  0.0275  0.0264  0.1235
  800POPS   D2A12092  18.167   5.392   6.972 -0.0903  0.1428 -0.0664
  800POPS   C3A12093  17.863   5.668   7.258  0.0312 -0.2554 -0.1730
  800POPS   C4A12094  17.879   5.977   7.657 -0.1547  0.0644 -0.1155
  800POPS   C1B12095  17.817   4.822   6.788 -0.1829  0.1420 -0.0011
  800POPS   C2B12096  17.766   4.901   7.177  0.2128 -0.0492 -0.2654
  800POPS   C3B12097  18.037   5.200   7.457 -0.0581 -0.1236  0.1415
  800POPS   C4B12098  18.367   5.565   7.385  0.1687 -0.1393 -0.0925
  801POPS   CNO12099  15.972  16.491   5.612  0.1393 -0.1026 -0.0641
  801POPS   PO412100  16.213  16.706   5.800 -0.0247  0.0369  0.3403
  801POPS   GL112101  16.060  16.595   6.226  0.0984  0.1360 -0.2560
  801POPS   GL212102  16.108  16.317   6.361  0.2163  0.0023  0.2997
  801POPS   C1A12103  15.823  16.700   6.570 -0.1027  0.1291  0.1010
  801POPS   D2A12104  15.776  16.521   7.001  0.4284 -0.0177  0.2192
  801POPS   C3A12105  15.845  16.225   7.460  0.3104 -0.0264  0.2385
  801POPS   C4A12106  16.127  15.906   7.760  0.1855 -0.2746 -0.0898
  801POPS   C1B12107  16.403  16.216   6.682  0.0686  0.2542 -0.0798
  801POPS   C2B12108  16.644  16.126   7.036 -0.0415 -0.0584  0.0130
  801POPS   C3B12109  16.820  16.151   7.357 -0.2507  0.1031  0.1668
  801POPS   C4B12110  17.023  16.044   7.742  0.1506 -0.1131 -0.3008
  802POPS   CNO12111   0.676   3.874   5.811 -0.0762 -0.1695  0.0906
  802POPS   PO412112   1.017   3.856   6.154 -0.1526 -0.1842 -0.3557
  802POPS   GL112113   1.001   4.080   6.483 -0.1669 -0.3865 -0.1993
  802POPS   GL212114   0.715   3.983   6.734  0.0519  0.0668 -0.1868
  802POPS   C1A12115   1.092   4.445   6.735  0.2943  0.3937 -0.2495
  802POPS   D2A12116   1.186   4.396   7.265  0.0072 -0.3497 -0.1819
  802POPS   C3A12117   1.147   4.190   7.571  0.1773 -0.0042  0.0368
  802POPS   C4A12118   1.034   4.069   7.995 -0.0669  0.1315  0.0062
  802POPS   C1B12119   0.805   4.138   7.203 -0.4425 -0.1400 -0.2030
  802POPS   C2B12120   0.565   4.137   7.495 -0.0305  0.2953 -0.4904
  802POPS   C3B12121   0.249   3.935   7.357 -0.0637  0.1304 -0.0289
  802POPS   C4B12122   0.283   3.685   6.969 -0.1513  0.0965 -0.0675
  803POPS   CNO12123  11.795   5.879   6.115 -0.3549 -0.1183  0.0669
  803POPS   PO412124  11.375   5.902   6.368  0.1206  0.0533  0.0944
  803POPS   GL112125  11.320   5.989   6.780  0.0153 -0.3640 -0.0261
  803POPS   GL212126  11.434   5.758   7.016  0.0694  0.1491  0.3854
  803POPS   C1A12127  11.054   6.068   7.136 -0.0142 -0.0211  0.3253
  803POPS   D2A12128  10.727   6.271   7.307  0.1117 -0.0806  0.2146
  803POPS   C3A12129  10.798   6.603   7.596  0.0390 -0.1001  0.2777
  803POPS   C4A12130  10.780   6.880   7.839 -0.1260  0.0351 -0.0694
  803POPS   C1B12131  11.245   5.648   7.423 -0.0131 -0.1163 -0.0197
  803POPS   C2B12132  11.425   5.532   7.839  0.3707 -0.3076  0.0205
  803POPS   C3B12133  11.316   5.890   8.086 -0.0783  0.1181 -0.0140
  803POPS   C4B12134  11.444   6.117   8.474  0.0070  0.0372  0.0662
  804POPS   CNO12135   1.740   6.633   5.815 -0.3587 -0.2135 -0.1155
  804POPS   PO412136   1.798   7.090   5.935  0.1148  0.1475 -0.2338
  804POPS   GL112137   1.576   7.121   6.336 -0.0139  0.1687 -0.0167
  804POPS   GL212138   1.810   6.989   6.448 -0.1634 -0.0360 -0.0830
  804POPS   C1A12139   1.267   7.079   6.695 -0.0061 -0.0371  0.0180
  804POPS   D2A12140   1.286   7.026   7.133 -0.1339 -0.2141 -0.0461
  804POPS   C3A12141   1.003   6.757   7.284  0.0621  0.0477 -0.1303
  804POPS   C4A12142   0.987   6.798   7.701 -0.2787 -0.1417  0.0350
  804POPS   C1B12143   1.620   6.749   6.817  0.0720 -0.2184 -0.2016
  804POPS   C2B12144   1.648   6.669   7.278 -0.2249 -0.2025  0.2622
  804POPS   C3B12145   1.548   6.782   7.673  0.0274 -0.1765 -0.0487
  804POPS   C4B12146   1.378   6.879   8.142 -0.0057 -0.4667  0.0491
  805POPS   CNO12147  17.540  17.561   6.288  0.1157  0.3258 -0.1305
  805POPS   PO412148  17.882  17.245   6.207  0.0895 -0.1493 -0.3384
  805POPS   GL112149  17.962  17.040   6.503  0.2947  0.2187  0.2531
  805POPS   GL212150  18.268  17.175   6.536  0.3107  0.0113 -0.0036
  805POPS   C1A12151  18.134  16.860   6.882 -0.1887 -0.3686 -0.3217
  805POPS   D2A12152  18.233  16.635   7.264 -0.2737  0.1047  0.1602
  805POPS   C3A12153  18.325  16.701   7.744 -0.0412  0.1609 -0.0069
  805POPS   C4A12154  18.279  16.789   8.239  0.1899 -0.1764  0.0849
  805POPS   C1B12155  18.333  17.301   7.031  0.2027 -0.1886 -0.0296
  805POPS   C2B12156  18.399  17.176   7.499 -0.2046  0.0731  0.0998
  805POPS   C3B12157  18.583  17.079   7.964 -0.0124  0.2151  0.2907
  805POPS   C4B12158  18.736  17.002   8.481 -0.2270 -0.3313  0.1808
  806POPS   CNO12159   6.511  17.050   5.409  0.0386 -0.0653  0.3112
  806POPS   PO412160   6.477  16.765   5.679  0.1653 -0.1224 -0.1305
  806POPS   GL112161   6.282  17.051   6.041 -0.0598  0.1252  0.0697
  806POPS   GL212162   6.521  17.215   6.166 -0.1816  0.0044  0.0003
  806POPS   C1A12163   5.901  16.960   6.249  0.0744  0.0475  0.2949
  806POPS   D2A12164   5.518  17.174   6.326 -0.2010  0.1833 -0.1029
  806POPS   C3A12165   5.096  17.157   6.652 -0.3199 -0.1052  0.0314
  806POPS   C4A12166   4.906  16.884   6.830  0.3184  0.0789 -0.1164
  806POPS   C1B12167   6.480  17.002   6.616 -0.2293 -0.0258  0.1946
  806POPS   C2B12168   6.217  16.789   6.942  0.0556  0.2192  0.1500
  806POPS   C3B12169   6.316  16.771   7.382 -0.1272 -0.1129 -0.1554
  806POPS   C4B12170   6.434  17.003   7.778  0.1526  0.2450 -0.1482
  807POPS   CNO12171   2.140   8.548   5.980  0.0024 -0.2092 -0.1152
  807POPS   PO412172   1.813   8.680   5.962  0.2176 -0.2973 -0.0403
  807POPS   GL112173   1.722   8.782   6.480 -0.1713 -0.1138  0.0303
  807POPS   GL212174   1.922   9.075   6.569 -0.1758  0.1296  0.0166
  807POPS   C1A12175   1.514   9.017   6.778 -0.1271 -0.1290 -0.0051
  807POPS   D2A12176   1.489   8.951   7.248 -0.0831 -0.1257 -0.3002
  807POPS   C3A12177   1.167   8.647   7.342 -0.0063 -0.1640  0.0393
  807POPS   C4A12178   0.851   8.422   7.245  0.0687  0.0709 -0.1923
  807POPS   C1B12179   1.972   9.030   6.985 -0.1247 -0.0641 -0.0827
  807POPS   C2B12180   1.952   9.093   7.418 -0.0629  0.1237  0.1552
  807POPS   C3B12181   2.055   8.795   7.794 -0.1822  0.1845  0.3463
  807POPS   C4B12182   2.284   8.702   8.122 -0.0471 -0.0968 -0.2044
  808POPS   CNO12183   4.948  16.231   5.060  0.2574 -0.0159  0.1180
  808POPS   PO412184   4.758  15.822   5.086  0.2731  0.1430 -0.1446
  808POPS   GL112185   4.765  15.975   5.571 -0.2462 -0.2518 -0.2744
  808POPS   GL212186   4.970  15.827   5.840 -0.1039  0.1250 -0.0963
  808POPS   C1A12187   4.772  16.342   5.758 -0.0723 -0.3810  0.1090
  808POPS   D2A12188   4.650  16.624   6.026  0.0860  0.0967  0.0324
  808POPS   C3A12189   5.054  16.819   6.237 -0.0259  0.2423 -0.2103
  808POPS   C4A12190   5.416  16.693   6.471 -0.2226 -0.0732 -0.0684
  808POPS   C1B12191   5.092  15.683   6.273  0.1845 -0.0692 -0.3115
  808POPS   C2B12192   5.041  15.900   6.625 -0.3000 -0.1039 -0.0284
  808POPS   C3B12193   4.889  15.878   7.017  0.5142  0.3201  0.0349
  808POPS   C4B12194   4.941  15.808   7.453 -0.0984  0.1153  0.0457
  809POPS   CNO12195  17.564   4.566   6.415  0.2200 -0.0160  0.0264
  809POPS   PO412196  17.433   4.915   6.167  0.0118  0.2862 -0.1802
  809POPS   GL112197  17.515   5.248   6.484  0.0022 -0.0653  0.0098
  809POPS   GL212198  17.248   5.374   6.584 -0.1530  0.4224 -0.1228
  809POPS   C1A12199  17.566   5.274   6.914  0.0562 -0.1056  0.4772
  809POPS   D2A12200  17.465   5.384   7.279  0.0217 -0.2890  0.0166
  809POPS   C3A12201  17.455   5.228   7.736  0.1407  0.0034  0.1510
  809POPS   C4A12202  17.436   4.769   7.808  0.1137  0.2013  0.1627
  809POPS   C1B12203  17.045   5.371   6.994  0.0306  0.2611 -0.0273
  809POPS   C2B12204  16.696   5.193   7.221  0.0210 -0.2224 -0.1856
  809POPS   C3B12205  16.487   5.120   7.644  0.3783 -0.1937 -0.0406
  809POPS   C4B12206  16.400   5.402   8.065  0.1662  0.0258 -0.0123
  810POPS   CNO12207   7.074   7.980   5.973  0.1129  0.0998  0.0971
  810POPS   PO412208   7.032   8.160   6.346  0.2463 -0.0169 -0.0497
  810POPS   GL112209   7.146   8.299   6.751  0.0987  0.0554  0.1906
  810POPS   GL212210   7.442   8.327   6.744 -0.1852 -0.0906  0.0838
  810POPS   C1A12211   7.121   8.634   7.101 -0.1869  0.2918 -0.3712
  810POPS   D2A12212   7.211   8.877   7.483  0.1973  0.1570  0.0512
  810POPS   C3A12213   7.182   9.092   7.793 -0.0888  0.2873 -0.2318
  810POPS   C4A12214   7.184   9.158   8.173  0.0068  0.1699  0.0387
  810POPS   C1B12215   7.362   8.198   7.185  0.0179  0.0431 -0.1233
  810POPS   C2B12216   7.065   8.267   7.444  0.0804  0.2888 -0.0820
  810POPS   C3B12217   6.940   8.042   7.821  0.2341  0.0313 -0.2092
  810POPS   C4B12218   6.882   7.528   7.870 -0.2469 -0.0885 -0.0647
  811YOPS   CNO12219   9.000   1.438   5.618  0.1507 -0.0442  0.0770
  811YOPS   PO412220   9.451   1.460   5.809 -0.0538  0.0797 -0.0164
  811YOPS   GL112221   9.466   1.211   6.127  0.0606 -0.1743  0.2147
  811YOPS   GL212222   9.773   1.298   6.343 -0.0845 -0.2513 -0.2410
  811YOPS   C1A12223   9.256   1.052   6.532 -0.1262 -0.2150 -0.1014
  811YOPS   D2A12224   9.221   0.734   6.821  0.2879 -0.1403 -0.5090
  811YOPS   C3A12225   9.038   0.390   6.937  0.0169 -0.0074  0.0125
  811YOPS   C4A12226   9.163   0.298   7.339  0.1480 -0.2194  0.0357
  811YOPS   C1B12227   9.982   1.100   6.653 -0.2877  0.1467 -0.0007
  811YOPS   C2B12228   9.714   1.009   7.030 -0.0709 -0.1560  0.0953
  811YOPS   D3B12229   9.445   0.723   7.291  0.1556  0.1604 -0.1169
  811YOPS   C4B12230   9.486   0.387   7.663 -0.1810  0.0374 -0.2000
  812YOPS   CNO12231   2.878  10.470   5.776  0.2122 -0.1108  0.1996
  812YOPS   PO412232   3.127  10.236   5.895 -0.0774 -0.1904 -0.2520
  812YOPS   GL112233   3.201  10.426   6.245 -0.1896 -0.0407  0.0755
  812YOPS   GL212234   3.036  10.737   6.218 -0.1911  0.2811  0.0161
  812YOPS   C1A12235   3.391  10.451   6.604 -0.1885 -0.4439 -0.1554
  812YOPS   D2A12236   3.410  10.608   6.988 -0.0749 -0.0345  0.0872
  812YOPS   C3A12237   3.361  10.671   7.378 -0.1692  0.2309  0.0642
  812YOPS   C4A12238   3.661  10.738   7.735  0.1259  0.0468  0.1118
  812YOPS   C1B12239   3.030  10.829   6.635  0.1191  0.1806  0.0853
  812YOPS   C2B12240   3.096  11.025   6.959 -0.0465  0.0506  0.0858
  812YOPS   D3B12241   2.817  11.063   7.343  0.0629 -0.3261  0.0880
  812YOPS   C4B12242   2.843  10.750   7.629 -0.0200  0.0487 -0.0603
  813YOPS   CNO12243   4.868  17.724   5.585  0.0799  0.0280 -0.0398
  813YOPS   PO412244   4.463  17.592   5.667 -0.1954  0.1047 -0.0192
  813YOPS   GL112245   4.478  17.672   6.132  0.1790  0.0429  0.1735
  813YOPS   GL212246   4.768  17.830   6.218 -0.1265  0.0048  0.0612
  813YOPS   C1A12247   4.678  17.487   6.563  0.0347 -0.1333 -0.2615
  813YOPS   D2A12248   4.738  17.388   6.952 -0.3843  0.0064  0.0597
  813YOPS   C3A12249   4.615  17.221   7.190  0.3044  0.2237  0.0906
  813YOPS   C4A12250   4.675  17.316   7.613  0.0381  0.2341  0.0191
  813YOPS   C1B12251   4.904  17.932   6.646 -0.0300 -0.0703  0.1083
  813YOPS   C2B12252   5.113  17.972   7.116  0.3477  0.0133 -0.2921
  813YOPS   D3B12253   5.449  17.915   7.414  0.2594 -0.0904 -0.2195
  813YOPS   C4B12254   5.409  18.124   7.824 -0.0326 -0.0193 -0.0821
  814YOPS   CNO12255  12.167   1.450   6.198  0.3765  0.2369  0.1846
  814YOPS   PO412256  12.007   1.009   6.256  0.0060  0.3777  0.0503
  814YOPS   GL112257  11.953   1.112   6.589 -0.1261  0.1333  0.2099
  814YOPS   GL212258  11.694   1.221   6.801  0.1809 -0.3390 -0.0743
  814YOPS   C1A12259  12.037   0.912   6.958  0.1750  0.0017  0.0573
  814YOPS   D2A12260  12.059   0.972   7.368  0.0162  0.0873  0.2472
  814YOPS   C3A12261  11.801   0.998   7.734  0.0709  0.3118  0.0090
  814YOPS   C4A12262  11.416   1.248   7.734  0.1675  0.0201  0.0687
  814YOPS   C1B12263  11.699   1.311   7.184  0.0218  0.2880 -0.2845
  814YOPS   C2B12264  11.859   1.482   7.549  0.3076 -0.0167  0.3239
  814YOPS   D3B12265  12.175   1.390   7.717 -0.3373 -0.1540 -0.1262
  814YOPS   C4B12266  12.165   1.313   8.165  0.0242 -0.0656  0.2563
  815YOPS   CNO12267   4.259   7.590   5.658  0.0461 -0.2220 -0.0235
  815YOPS   PO412268   4.244   8.047   5.685 -0.1024 -0.2000  0.3355
  815YOPS   GL112269   4.464   8.251   5.991  0.1054 -0.1777 -0.0867
  815YOPS   GL212270   4.241   8.461   5.995  0.1051  0.2779 -0.1095
  815YOPS   C1A12271   4.435   8.325   6.398  0.1858 -0.0528 -0.0526
  815YOPS   D2A12272   4.524   8.360   6.791  0.1085  0.1948 -0.1374
  815YOPS   C3A12273   4.611   8.324   7.337  0.0832 -0.2804 -0.0902
  815YOPS   C4A12274   4.767   8.253   7.514  0.0064  0.4536 -0.1078
  815YOPS   C1B12275   4.302   8.803   6.370 -0.0212 -0.0516  0.3989
  815YOPS   C2B12276   4.194   8.882   6.780 -0.0484 -0.0313 -0.0142
  815YOPS   D3B12277   4.278   8.709   7.112 -0.1539 -0.0789  0.0625
  815YOPS   C4B12278   4.717   8.787   7.063 -0.1502 -0.0962  0.1490
  816YOPS   CNO12279  12.348  13.184   5.637  0.0561 -0.1701  0.1652
  816YOPS   PO412280  12.438  13.538   5.879 -0.0654 -0.2055 -0.3264
  816YOPS   GL112281  12.351  13.445   6.308  0.1473 -0.1587 -0.0622
  816YOPS   GL212282  12.184  13.668   6.513 -0.0812 -0.1601  0.4059
  816YOPS   C1A12283  12.222  13.207   6.649 -0.2777  0.0496  0.0292
  816YOPS   D2A12284  12.389  13.249   7.134 -0.0393  0.2101 -0.0260
  816YOPS   C3A12285  12.818  13.157   7.435  0.2694  0.0727 -0.1429
  816YOPS   C4A12286  12.899  13.622   7.678 -0.0319 -0.1416  0.0327
  816YOPS   C1B12287  12.063  13.635   6.922 -0.1369  0.0727  0.1535
  816YOPS   C2B12288  11.925  13.583   7.338  0.0858 -0.0527 -0.0945
  816YOPS   D3B12289  11.951  13.462   7.816 -0.1996  0.0077  0.0604
  816YOPS   C4B12290  11.909  13.055   7.949 -0.3967  0.1580  0.1724
  817YOPS   CNO12291   6.172   7.167   5.568  0.0585 -0.0929 -0.1674
  817YOPS   PO412292   5.885   7.111   5.939 -0.1655  0.1169 -0.2676
  817YOPS   GL112293   5.783   7.229   6.322 -0.1903  0.1522  0.0684
  817YOPS   GL212294   5.765   7.036   6.535 -0.2845 -0.1846 -0.2167
  817YOPS   C1A12295   5.532   7.500   6.631 -0.1127  0.0731 -0.2084
  817YOPS   D2A12296   5.550   7.563   7.057  0.3690  0.0790 -0.0554
  817YOPS   C3A12297   5.353   7.512   7.510  0.0610  0.0037 -0.1821
  817YOPS   C4A12298   5.322   7.544   7.869 -0.2793  0.1804  0.0012
  817YOPS   C1B12299   5.445   7.034   6.894  0.0163  0.0131  0.1141
  817YOPS   C2B12300   5.449   7.031   7.282 -0.0923 -0.1263 -0.2799
  817YOPS   D3B12301   5.473   7.082   7.712 -0.1475  0.1373 -0.1413
  817YOPS   C4B12302   5.374   6.773   8.021 -0.0986 -0.0588  0.0637
  818YOPS   CNO12303   1.851  14.401   5.790  0.0349 -0.1507 -0.0136
  818YOPS   PO412304   2.237  14.341   5.693 -0.0923  0.0426  0.0380
  818YOPS   GL112305   2.374  14.344   6.126  0.2568  0.0001  0.1897
  818YOPS   GL212306   2.146  14.136   6.117 -0.0084  0.1933 -0.2242
  818YOPS   C1A12307   2.529  14.524   6.596  0.1019 -0.0061  0.1425
  818YOPS   D2A12308   2.712  14.523   7.015  0.2183 -0.2758  0.0309
  818YOPS   C3A12309   2.693  14.683   7.407 -0.0852  0.0120 -0.2268
  818YOPS   C4A12310   2.564  14.294   7.612  0.0558  0.1995  0.1406
  818YOPS   C1B12311   2.068  13.954   6.527 -0.0584 -0.1477  0.0134
  818YOPS   C2B12312   2.017  14.180   6.922 -0.2506 -0.1758  0.1668
  818YOPS   D3B12313   2.292  14.361   7.251 -0.0967 -0.1152 -0.0973
  818YOPS   C4B12314   2.107  14.543   7.484  0.1634  0.0493  0.0992
  819YOPS   CNO12315   6.189   7.616   6.321  0.5181  0.2495 -0.0899
  819YOPS   PO412316   6.148   8.019   6.025 -0.1734  0.1308 -0.2185
  819YOPS   GL112317   5.784   7.980   6.402 -0.0737 -0.3395 -0.2573
  819YOPS   GL212318   5.372   7.914   6.393  0.4030 -0.0904  0.1132
  819YOPS   C1A12319   5.863   7.927   6.840  0.3061  0.0823 -0.2621
  819YOPS   D2A12320   5.761   7.973   7.295 -0.2531  0.2113 -0.0459
  819YOPS   C3A12321   5.720   7.856   7.730  0.1262  0.3980  0.1796
  819YOPS   C4A12322   5.552   7.951   8.064 -0.2066 -0.1114 -0.1468
  819YOPS   C1B12323   5.361   7.950   6.822 -0.0417 -0.1772 -0.0697
  819YOPS   C2B12324   5.258   7.974   7.295 -0.0089  0.2465 -0.0947
  819YOPS   D3B12325   5.012   7.883   7.696 -0.1480  0.0206  0.1146
  819YOPS   C4B12326   4.807   7.569   7.832 -0.0404 -0.0774 -0.3567
  820YOPS   CNO12327   3.388   8.794   5.881 -0.3535  0.3121 -0.2223
  820YOPS   PO412328   3.737   8.443   5.711  0.0378 -0.3001  0.1136
  820YOPS   GL112329   3.836   8.170   6.011 -0.1417 -0.2034 -0.0081
  820YOPS   GL212330   3.984   7.874   6.140 -0.1954  0.1166 -0.2004
  820YOPS   C1A12331   3.915   8.371   6.375  0.0226 -0.3097 -0.1107
  820YOPS   D2A12332   3.984   8.404   6.791 -0.0182 -0.0769  0.0297
  820YOPS   C3A12333   3.831   8.459   7.212  0.2568  0.0814 -0.0584
  820YOPS   C4A12334   3.510   8.166   7.438  0.0696  0.0480 -0.1898
  820YOPS   C1B12335   4.143   7.917   6.473  0.4383 -0.1711  0.3091
  820YOPS   C2B12336   4.304   7.961   6.989 -0.0073  0.0461  0.2770
  820YOPS   D3B12337   4.231   8.078   7.434  0.0993 -0.1505 -0.1211
  820YOPS   C4B12338   4.194   8.491   7.627 -0.0598  0.0361  0.3604
  821YOPS   CNO12339  16.775  12.966   5.798 -0.0948  0.1023 -0.3030
  821YOPS   PO412340  16.752  13.254   6.133  0.0141 -0.3018 -0.2781
  821YOPS   GL112341  17.004  13.120   6.375  0.0826  0.0386  0.1604
  821YOPS   GL212342  17.369  13.117   6.383  0.1842  0.1839 -0.1683
  821YOPS   C1A12343  17.010  13.104   6.709  0.0593  0.2473  0.2069
  821YOPS   D2A12344  17.137  13.037   7.046 -0.2634  0.0409 -0.0723
  821YOPS   C3A12345  17.454  12.912   7.349  0.1384 -0.2135  0.0902
  821YOPS   C4A12346  17.215  12.859   7.731 -0.0936 -0.1308  0.2553
  821YOPS   C1B12347  17.550  13.071   6.754 -0.0106  0.0926  0.0136
  821YOPS   C2B12348  17.860  13.021   7.061 -0.0151 -0.0420  0.3393
  821YOPS   D3B12349  18.108  12.764   7.318  0.1015  0.2670  0.3394
  821YOPS   C4B12350  18.519  12.642   7.248  0.1009 -0.2815 -0.1480
  822YOPS   CNO12351   7.209  12.266   5.861 -0.2848 -0.0728 -0.0942
  822YOPS   PO412352   6.987  11.881   5.856  0.1130  0.0247 -0.0554
  822YOPS   GL112353   6.774  11.842   6.221 -0.5012 -0.2184  0.1972
  822YOPS   GL212354   6.899  12.027   6.428 -0.0775  0.2447  0.1789
  822YOPS   C1A12355   6.664  11.508   6.433  0.3121  0.2579 -0.2132
  822YOPS   D2A12356   6.818  11.184   6.648  0.1672  0.0149  0.2361
  822YOPS   C3A12357   6.908  10.739   6.669  0.0356 -0.0352 -0.0885
  822YOPS   C4A12358   7.059  10.613   7.038 -0.0787  0.0176 -0.1050
  822YOPS   C1B12359   6.966  11.908   6.780 -0.0628  0.2912 -0.2409
  822YOPS   C2B12360   6.775  11.602   6.993 -0.1954 -0.1348  0.2411
  822YOPS   D3B12361   6.434  11.384   7.144 -0.0470 -0.6936  0.0794
  822YOPS   C4B12362   6.471  11.280   7.534 -0.1007 -0.0236  0.2344
  823YOPS   CNO12363  17.425  12.498   5.250 -0.1373  0.1555 -0.2477
  823YOPS   PO412364  17.394  12.453   5.670 -0.2213 -0.1238 -0.0518
  823YOPS   GL112365  17.213  12.744   6.046  0.0860  0.0972 -0.0496
  823YOPS   GL212366  16.934  12.650   6.189  0.0600 -0.3667  0.1324
  823YOPS   C1A12367  17.301  12.595   6.488 -0.0434  0.0248  0.2038
  823YOPS   D2A12368  17.436  12.548   6.920  0.1160  0.0080  0.0236
  823YOPS   C3A12369  17.785  12.493   7.019 -0.0203  0.0238 -0.1477
  823YOPS   C4A12370  18.093  12.267   7.132  0.2976  0.0027 -0.1243
  823YOPS   C1B12371  16.703  12.698   6.612  0.0084 -0.0261  0.3262
  823YOPS   C2B12372  16.780  12.679   7.016 -0.1931 -0.1644 -0.3983
  823YOPS   D3B12373  16.839  12.673   7.454 -0.3145 -0.2110 -0.0329
  823YOPS   C4B12374  16.497  12.596   7.704 -0.1385 -0.0421  0.0188
  824YOPS   CNO12375   8.414  15.230   5.674 -0.1527  0.0510  0.0790
  824YOPS   PO412376   8.010  15.401   5.781 -0.0057 -0.3983 -0.1053
  824YOPS   GL112377   7.642  15.240   6.126  0.0437 -0.3122 -0.0069
  824YOPS   GL212378   7.840  15.293   6.429  0.4265  0.0547  0.3111
  824YOPS   C1A12379   7.352  15.574   6.290  0.0694 -0.0598 -0.1711
  824YOPS   D2A12380   7.279  16.048   6.299  0.0140  0.1263  0.0918
  824YOPS   C3A12381   7.036  16.334   6.597  0.3278  0.0778  0.2029
  824YOPS   C4A12382   6.840  16.651   6.467 -0.0249  0.1177  0.0838
  824YOPS   C1B12383   7.587  15.346   6.674 -0.0143  0.1891 -0.1425
  824YOPS   C2B12384   7.396  15.433   7.090  0.1538 -0.2423  0.0108
  824YOPS   D3B12385   7.100  15.484   7.381  0.1632 -0.2429  0.1830
  824YOPS   C4B12386   7.083  15.381   7.772 -0.1477 -0.0144  0.2480
  825YOPS   CNO12387  10.725  13.866   6.013  0.1645 -0.1092  0.2970
  825YOPS   PO412388  11.051  13.736   6.105  0.0606 -0.1453 -0.0179
  825YOPS   GL112389  11.047  13.512   6.442  0.0117  0.0246 -0.3033
  825YOPS   GL212390  11.277  13.524   6.552  0.0332  0.0037 -0.0968
  825YOPS   C1A12391  10.850  13.181   6.755  0.0185 -0.2765  0.2242
  825YOPS   D2A12392  10.940  13.117   7.215 -0.1887  0.2341  0.2453
  825YOPS   C3A12393  11.069  12.970   7.690 -0.1748 -0.0693  0.1700
  825YOPS   C4A12394  10.765  12.920   8.014  0.1389 -0.3006 -0.2372
  825YOPS   C1B12395  11.294  13.432   6.938  0.0860  0.2748  0.1294
  825YOPS   C2B12396  11.419  13.324   7.352  0.3344  0.0432 -0.0718
  825YOPS   D3B12397  11.460  13.290   7.801 -0.3299 -0.2015  0.0142
  825YOPS   C4B12398  11.465  12.948   8.081  0.1430  0.2087  0.0023
  826YOPS   CNO12399  13.969   8.527   5.455 -0.0697 -0.3210  0.0932
  826YOPS   PO412400  14.064   8.423   5.920 -0.0533 -0.1340  0.0523
  826YOPS   GL112401  13.844   8.087   6.217 -0.0488  0.1649  0.2229
  826YOPS   GL212402  13.722   7.794   6.351  0.1351  0.1203  0.1143
  826YOPS   C1A12403  13.920   8.153   6.694 -0.0554 -0.0480 -0.0761
  826YOPS   D2A12404  14.052   8.323   7.054 -0.3219  0.0226  0.0507
  826YOPS   C3A12405  14.078   8.418   7.436 -0.2261  0.2456  0.0580
  826YOPS   C4A12406  14.381   8.556   7.741  0.1442  0.0440  0.2019
  826YOPS   C1B12407  13.573   7.362   6.467 -0.1602  0.0441 -0.2630
  826YOPS   C2B12408  13.650   6.953   6.633  0.0480 -0.0622 -0.0473
  826YOPS   D3B12409  13.577   6.723   6.976 -0.2888  0.3344 -0.3268
  826YOPS   C4B12410  13.559   7.024   7.294 -0.1439 -0.2095  0.0103
  827YOPS   CNO12411   8.069  16.352   5.649 -0.0938 -0.2089  0.1977
  827YOPS   PO412412   8.023  16.099   5.864 -0.0577  0.0336 -0.0066
  827YOPS   GL112413   8.143  16.223   6.220  0.1856  0.2747 -0.4434
  827YOPS   GL212414   8.291  15.988   6.317  0.1594 -0.2720  0.0080
  827YOPS   C1A12415   8.002  16.350   6.626 -0.0372  0.0300  0.1920
  827YOPS   D2A12416   8.006  16.375   7.034  0.1433  0.0937  0.1509
  827YOPS   C3A12417   8.122  16.333   7.468  0.0189 -0.0772  0.0837
  827YOPS   C4A12418   8.284  16.505   7.822 -0.3067  0.0773  0.2974
  827YOPS   C1B12419   8.284  15.959   6.856 -0.1838  0.1656  0.0073
  827YOPS   C2B12420   8.346  15.930   7.288 -0.0779  0.2268 -0.2867
  827YOPS   D3B12421   8.143  15.828   7.694 -0.4176 -0.1034  0.4179
  827YOPS   C4B12422   7.941  15.418   7.828 -0.1132  0.0055  0.2541
  828YOPS   CNO12423   4.657  11.286   5.350  0.2484 -0.1071  0.2148
  828YOPS   PO412424   4.677  11.414   5.731  0.3743 -0.1634  0.0792
  828YOPS   GL112425   4.662  11.247   6.136  0.0231  0.0886  0.2155
  828YOPS   GL212426   4.471  11.023   6.228  0.1483 -0.3496  0.1731
  828YOPS   C1A12427   4.486  11.365   6.534  0.1851 -0.2070 -0.2720
  828YOPS   D2A12428   4.597  11.345   7.002 -0.1811  0.1403 -0.0111
  828YOPS   C3A12429   4.784  11.471   7.387 -0.2171  0.1201  0.0493
  828YOPS   C4A12430   4.614  11.372   7.869  0.0944 -0.0872 -0.0945
  828YOPS   C1B12431   4.323  10.886   6.523  0.3541  0.1400 -0.0565
  828YOPS   C2B12432   4.243  10.921   6.971  0.1972  0.0790 -0.0325
  828YOPS   D3B12433   4.416  11.094   7.432 -0.0179  0.1368 -0.2576
  828YOPS   C4B12434   4.561  10.852   7.798 -0.0706  0.0091  0.2306
  829YOPS   CNO12435   8.744   2.295   5.577  0.1159  0.0612  0.1202
  829YOPS   PO412436   8.457   2.345   5.795  0.1215  0.0980 -0.0243
  829YOPS   GL112437   8.313   2.633   6.127  0.0780 -0.1790  0.1420
  829YOPS   GL212438   8.421   3.042   6.091  0.0712 -0.1493  0.0200
  829YOPS   C1A12439   8.095   2.670   6.485  0.2274  0.2866 -0.0882
  829YOPS   D2A12440   7.787   2.434   6.706 -0.3594  0.1239 -0.0454
  829YOPS   C3A12441   7.476   2.117   6.803  0.0360 -0.0113 -0.2017
  829YOPS   C4A12442   7.269   2.065   6.397 -0.2218 -0.0735 -0.2216
  829YOPS   C1B12443   8.366   3.134   6.462 -0.1219 -0.0622 -0.0256
  829YOPS   C2B12444   8.438   2.930   6.801 -0.0129  0.0869  0.2368
  829YOPS   D3B12445   8.426   2.922   7.219  0.2470 -0.0520  0.2909
  829YOPS   C4B12446   8.107   3.107   7.399 -0.0019 -0.1947  0.0952
  830YOPS   CNO12447   7.234   6.356   6.425  0.2501  0.0349  0.1181
  830YOPS   PO412448   7.245   6.040   6.091 -0.0086 -0.1011 -0.0497
  830YOPS   GL112449   7.322   5.876   6.515 -0.0471  0.0338  0.1186
  830YOPS   GL212450   7.007   5.815   6.671  0.0065  0.1024 -0.1540
  830YOPS   C1A12451   7.392   5.840   6.976  0.3287  0.1496  0.2159
  830YOPS   D2A12452   7.486   5.681   7.389 -0.0857 -0.2731 -0.0750
  830YOPS   C3A12453   7.779   5.682   7.800  0.1348  0.1563 -0.1947
  830YOPS   C4A12454   7.718   5.877   8.154  0.3047  0.2108  0.1449
  830YOPS   C1B12455   6.849   5.897   7.047 -0.1107 -0.0071  0.1729
  830YOPS   C2B12456   6.810   6.014   7.458  0.0593  0.1959 -0.0606
  830YOPS   D3B12457   6.822   6.198   7.828  0.0554 -0.3705 -0.0243
  830YOPS   C4B12458   6.794   6.564   8.025  0.4290  0.1181  0.0615
  831YOPS   CNO12459   8.438   9.502   6.240 -0.2264 -0.0214 -0.2303
  831YOPS   PO412460   8.037   9.440   6.248 -0.2167 -0.1321 -0.0170
  831YOPS   GL112461   8.066   9.377   6.674 -0.1329  0.2296 -0.3196
  831YOPS   GL212462   7.858   9.545   6.904 -0.3533  0.0975 -0.0198
  831YOPS   C1A12463   8.314   9.499   7.016 -0.1996  0.1909 -0.1525
  831YOPS   D2A12464   8.174   9.556   7.429 -0.4519  0.1474  0.1096
  831YOPS   C3A12465   8.170   9.345   7.849  0.2683 -0.0506  0.2960
  831YOPS   C4A12466   8.412   9.233   8.122 -0.0822 -0.3435  0.3759
  831YOPS   C1B12467   7.783   9.770   7.287  0.5895  0.0102  0.2396
  831YOPS   C2B12468   7.918   9.875   7.733  0.3255 -0.0872 -0.0718
  831YOPS   D3B12469   7.995   9.829   8.157 -0.3099  0.1358 -0.1479
  831YOPS   C4B12470   7.903   9.455   8.402  0.2171 -0.1841 -0.0235
  832YOPS   CNO12471   9.927   8.585   5.823  0.1419 -0.2736 -0.0853
  832YOPS   PO412472   9.547   8.776   6.098 -0.1227 -0.0558 -0.1558
  832YOPS   GL112473   9.563   8.879   6.535 -0.0937 -0.0099 -0.0984
  832YOPS   GL212474   9.288   8.735   6.751 -0.1781  0.0523 -0.4289
  832YOPS   C1A12475   9.437   9.139   7.011  0.0975 -0.2619  0.0418
  832YOPS   D2A12476   9.274   9.011   7.405  0.1173 -0.0672 -0.0136
  832YOPS   C3A12477   9.294   9.026   7.842 -0.2186 -0.0225  0.0083
  832YOPS   C4A12478   8.923   8.885   8.030 -0.1647 -0.1603  0.2995
  832YOPS   C1B12479   9.381   8.587   7.136  0.1165  0.3105  0.2159
  832YOPS   C2B12480   9.443   8.601   7.610 -0.0518  0.0566 -0.2336
  832YOPS   D3B12481   9.393   8.549   7.977 -0.3524 -0.2612 -0.1072
  832YOPS   C4B12482   9.614   8.875   8.184  0.0131  0.3208  0.0034
  833YOPS   CNO12483   4.482  15.503   5.459 -0.2960  0.0553 -0.1596
  833YOPS   PO412484   4.119  15.608   5.790 -0.0776  0.0035  0.0934
  833YOPS   GL112485   4.056  15.540   6.221 -0.0053  0.0152  0.2559
  833YOPS   GL212486   3.992  15.252   6.209  0.2255 -0.0134 -0.1365
  833YOPS   C1A12487   3.890  15.537   6.689 -0.1435  0.1941  0.0244
  833YOPS   D2A12488   3.816  15.647   7.171 -0.0075  0.1368 -0.1264
  833YOPS   C3A12489   3.592  15.746   7.598 -0.1775  0.0972  0.3041
  833YOPS   C4A12490   3.687  15.586   7.989 -0.0267 -0.1328 -0.0037
  833YOPS   C1B12491   4.251  15.067   6.338  0.0361  0.1999  0.1827
  833YOPS   C2B12492   4.599  14.969   6.509 -0.3692  0.1612 -0.2076
  833YOPS   D3B12493   4.974  14.734   6.607  0.0271 -0.1852  0.0414
  833YOPS   C4B12494   5.185  14.727   6.282 -0.0703  0.2637 -0.0163
  834YOPS   CNO12495   2.189   6.829   6.155  0.1487 -0.3618 -0.1028
  834YOPS   PO412496   2.187   6.454   5.894  0.1533  0.2766  0.3604
  834YOPS   GL112497   1.995   6.390   6.237  0.1680 -0.0722  0.0866
  834YOPS   GL212498   1.751   6.542   6.301  0.0235 -0.0664 -0.1322
  834YOPS   C1A12499   2.011   6.389   6.720 -0.1424 -0.0315  0.3390
  834YOPS   D2A12500   2.111   6.295   7.139  0.0672  0.1091 -0.0428
  834YOPS   C3A12501   2.393   6.370   7.486  0.1803  0.0758 -0.0161
  834YOPS   C4A12502   2.473   6.820   7.602  0.1657 -0.0459 -0.0400
  834YOPS   C1B12503   1.447   6.254   6.571  0.1690 -0.2049 -0.0449
  834YOPS   C2B12504   1.144   5.955   6.622 -0.0143  0.1023 -0.2090
  834YOPS   D3B12505   0.688   6.014   6.606  0.1866 -0.3563  0.6465
  834YOPS   C4B12506   0.707   6.344   6.868  0.1822  0.0828  0.0112
  835YOPS   CNO12507  12.012  13.758   6.028  0.0802 -0.2378 -0.0146
  835YOPS   PO412508  11.642  13.687   6.329 -0.0722  0.2181  0.3621
  835YOPS   GL112509  11.554  14.076   6.573  0.3587 -0.3085 -0.1830
  835YOPS   GL212510  11.547  13.884   6.890  0.1459  0.2054 -0.2324
  835YOPS   C1A12511  11.566  14.380   6.884  0.2460  0.3300 -0.2002
  835YOPS   D2A12512  11.496  14.416   7.280  0.0868  0.0949  0.5085
  835YOPS   C3A12513  11.654  14.262   7.611  0.0810 -0.2082 -0.1877
  835YOPS   C4A12514  11.748  14.395   7.955  0.1041 -0.1207  0.1424
  835YOPS   C1B12515  11.471  13.905   7.255  0.2538  0.1823 -0.0577
  835YOPS   C2B12516  11.421  13.761   7.678  0.0005  0.1042  0.0165
  835YOPS   D3B12517  11.291  13.976   8.126  0.2489 -0.1212  0.2046
  835YOPS   C4B12518  11.035  13.750   8.431  0.2095 -0.1832 -0.0228
  836YOPS   CNO12519   2.785  13.635   5.464 -0.0901 -0.3230  0.0687
  836YOPS   PO412520   3.135  13.501   5.520 -0.0210  0.0074  0.1505
  836YOPS   GL112521   3.252  13.367   5.907  0.1464  0.3657  0.1602
  836YOPS   GL212522   3.274  13.556   6.108  0.0774  0.0149 -0.1468
  836YOPS   C1A12523   3.214  12.878   6.054  0.0725  0.0004  0.0765
  836YOPS   D2A12524   2.981  12.561   6.017  0.1091 -0.1847  0.1774
  836YOPS   C3A12525   2.748  12.158   6.295 -0.2393 -0.1326  0.2475
  836YOPS   C4A12526   2.935  11.818   6.520  0.0438  0.2401  0.1575
  836YOPS   C1B12527   3.074  13.390   6.498 -0.1591  0.0898  0.1298
  836YOPS   C2B12528   2.706  13.101   6.407 -0.0381 -0.0056 -0.0361
  836YOPS   D3B12529   2.785  12.631   6.454  0.1794 -0.0756 -0.1513
  836YOPS   C4B12530   2.396  12.529   6.280  0.0203  0.0226  0.1023
  837YOPS   CNO12531   2.369  16.826   6.177  0.1008  0.3007 -0.1079
  837YOPS   PO412532   2.488  17.261   6.129  0.2733  0.2704  0.1734
  837YOPS   GL112533   2.680  17.193   6.541  0.1160  0.0687  0.3525
  837YOPS   GL212534   2.636  16.858   6.621  0.0804 -0.1897 -0.1496
  837YOPS   C1A12535   2.594  17.398   6.879 -0.0391 -0.0088 -0.0342
  837YOPS   D2A12536   2.539  17.463   7.351 -0.0804  0.1220 -0.1844
  837YOPS   C3A12537   2.517  17.433   7.733 -0.1546  0.0532 -0.1628
  837YOPS   C4A12538   2.309  17.767   8.011 -0.3685  0.1550  0.0838
  837YOPS   C1B12539   2.743  16.956   7.027 -0.3035  0.1996 -0.1304
  837YOPS   C2B12540   2.780  17.019   7.484  0.2335  0.2214  0.0263
  837YOPS   D3B12541   2.415  16.940   7.866  0.0788 -0.0866  0.2138
  837YOPS   C4B12542   1.960  16.825   7.728  0.0552 -0.0489  0.2372
  838YOPS   CNO12543  10.707   5.789   5.556 -0.1137 -0.0385 -0.0511
  838YOPS   PO412544  10.545   5.649   6.032 -0.1116  0.3311 -0.0730
  838YOPS   GL112545  10.633   5.789   6.464 -0.1741  0.0671  0.1552
  838YOPS   GL212546  10.951   5.757   6.568  0.1745 -0.3475 -0.1023
  838YOPS   C1A12547  10.601   5.989   6.924 -0.0332 -0.0718 -0.2575
  838YOPS   D2A12548  10.697   5.718   7.313 -0.2233  0.2089 -0.0477
  838YOPS   C3A12549  10.426   5.672   7.733 -0.3312 -0.0575  0.2277
  838YOPS   C4A12550  10.518   5.322   8.148 -0.0984  0.1920 -0.0515
  838YOPS   C1B12551  10.808   5.458   6.839 -0.1860  0.2715 -0.1041
  838YOPS   C2B12552  10.390   5.520   6.945  0.2535 -0.1622  0.0281
  838YOPS   D3B12553  10.210   5.539   7.357 -0.1211  0.4859 -0.1269
  838YOPS   C4B12554   9.706   5.458   7.388 -0.0372 -0.3163  0.0660
  839YOPS   CNO12555  14.643   5.608   5.764 -0.0790 -0.2407 -0.2844
  839YOPS   PO412556  14.600   5.813   6.187  0.1307  0.0582  0.0655
  839YOPS   GL112557  14.821   5.567   6.369  0.0882 -0.0511 -0.2205
  839YOPS   GL212558  14.908   5.304   6.190 -0.1324  0.1102 -0.0143
  839YOPS   C1A12559  14.692   5.232   6.687 -0.0098 -0.2334  0.0938
  839YOPS   D2A12560  14.730   5.128   7.106 -0.5648  0.1927  0.3162
  839YOPS   C3A12561  14.699   4.871   7.251  0.0148  0.1789 -0.0147
  839YOPS   C4A12562  14.370   4.790   7.606  0.1147  0.2078 -0.3162
  839YOPS   C1B12563  15.163   5.175   6.469  0.0234 -0.2095  0.0726
  839YOPS   C2B12564  15.141   4.873   6.884  0.1436 -0.1463 -0.3465
  839YOPS   D3B12565  15.227   4.730   7.376 -0.0349 -0.1961  0.0010
  839YOPS   C4B12566  15.535   4.892   7.611  0.1632 -0.0537 -0.4032
  840YOPS   CNO12567   0.515  14.237   5.897 -0.1595  0.1461 -0.1521
  840YOPS   PO412568   0.341  13.949   6.075 -0.0017  0.0006  0.1063
  840YOPS   GL112569   0.578  13.997   6.375  0.0487  0.1280  0.0594
  840YOPS   GL212570   0.809  14.160   6.329 -0.1514 -0.0038  0.0368
  840YOPS   C1A12571   0.598  14.149   6.853 -0.1141 -0.0948  0.0336
  840YOPS   D2A12572   0.472  14.435   7.218  0.0685 -0.0618 -0.3879
  840YOPS   C3A12573   0.485  14.505   7.670 -0.0886  0.4747  0.0835
  840YOPS   C4A12574   0.267  14.220   7.891 -0.0598  0.2153 -0.1821
  840YOPS   C1B12575   1.017  14.181   6.652  0.0290  0.0296  0.1309
  840YOPS   C2B12576   1.062  14.426   7.004  0.1220 -0.0432 -0.1657
  840YOPS   D3B12577   0.910  14.384   7.473  0.2727 -0.2222 -0.0223
  840YOPS   C4B12578   0.974  14.725   7.778  0.3031  0.0824 -0.3903
  841POPE   NH312579  11.643  12.399   6.241 -0.1087  0.1619 -0.1256
  841POPE   PO412580  11.527  11.941   6.212  0.0873  0.0831  0.2617
  841POPE   GL112581  11.650  11.963   6.599 -0.3506 -0.0146 -0.0950
  841POPE   GL212582  11.985  12.004   6.492  0.1048 -0.2984  0.0321
  841POPE   C1A12583  11.644  12.139   6.977  0.0148  0.0628 -0.1780
  841POPE   D2A12584  11.854  12.508   7.190 -0.5290  0.1275 -0.1385
  841POPE   C3A12585  12.096  12.546   7.570 -0.0100 -0.0864 -0.2904
  841POPE   C4A12586  12.449  12.233   7.841 -0.1327 -0.0232  0.1574
  841POPE   C1B12587  12.105  11.941   7.009  0.2079  0.0403  0.0100
  841POPE   C2B12588  12.147  11.990   7.366  0.0319 -0.1730 -0.0006
  841POPE   C3B12589  12.014  11.911   7.750  0.4558  0.0959 -0.1092
  841POPE   C4B12590  12.140  11.997   8.134 -0.3116 -0.1032  0.3285
  842POPE   NH312591  10.536  14.360   5.923 -0.2088 -0.2851 -0.1900
  842POPE   PO412592  10.892  14.692   5.896  0.1298  0.0056  0.0303
  842POPE   GL112593  10.547  14.730   6.269 -0.0777 -0.2847 -0.0834
  842POPE   GL212594  10.183  14.551   6.245  0.2212  0.2871 -0.2618
  842POPE   C1A12595  10.506  14.939   6.670 -0.0813 -0.4010  0.0109
  842POPE   D2A12596  10.709  14.965   7.047 -0.1101 -0.0897  0.0580
  842POPE   C3A12597  10.997  15.293   7.262 -0.1034 -0.1138 -0.2670
  842POPE   C4A12598  10.908  15.407   7.657 -0.2233  0.0770  0.0247
  842POPE   C1B12599  10.307  14.482   6.750 -0.1745  0.3520 -0.2635
  842POPE   C2B12600  10.503  14.288   7.014  0.2694  0.1173  0.0932
  842POPE   C3B12601  10.691  14.039   7.351  0.0626 -0.2243  0.1566
  842POPE   C4B12602  11.056  14.087   7.579 -0.0799  0.0773  0.1149
  843POPE   NH312603  11.474   7.486   5.971  0.3150  0.1711  0.0242
  843POPE   PO412604  11.237   7.751   6.273 -0.0013 -0.1994  0.0229
  843POPE   GL112605  11.504   7.730   6.582  0.0317 -0.1191  0.2469
  843POPE   GL212606  11.706   7.445   6.481  0.0643 -0.1161  0.1567
  843POPE   C1A12607  11.361   7.544   6.910 -0.0304 -0.3153  0.0452
  843POPE   D2A12608  11.331   7.255   7.158  0.0871 -0.1664  0.1011
  843POPE   C3A12609  10.993   7.054   7.399 -0.2864  0.0249  0.0957
  843POPE   C4A12610  10.673   7.292   7.606 -0.1378  0.2302 -0.2116
  843POPE   C1B12611  11.831   7.331   6.981  0.2726 -0.0643 -0.1068
  843POPE   C2B12612  11.749   7.258   7.420  0.1916 -0.0295  0.1139
  843POPE   C3B12613  11.463   7.137   7.763  0.0982  0.0182 -0.0630
  843POPE   C4B12614  11.224   6.905   8.125 -0.0488  0.0710  0.2503
  844POPE   NH312615  11.960   9.910   5.955  0.2639 -0.3971  0.2432
  844POPE   PO412616  12.393   9.677   5.813 -0.1229 -0.1045  0.3344
  844POPE   GL112617  12.458   9.783   6.263 -0.0174 -0.1737  0.1997
  844POPE   GL212618  12.811   9.689   6.449 -0.3517  0.0143  0.0586
  844POPE   C1A12619  12.381   9.824   6.668 -0.2969  0.1773  0.0183
  844POPE   D2A12620  12.220  10.038   6.968 -0.1533  0.0292 -0.0724
  844POPE   C3A12621  12.162  10.001   7.396  0.1716 -0.0120 -0.1957
  844POPE   C4A12622  12.334  10.261   7.820  0.0848  0.1538  0.3318
  844POPE   C1B12623  12.815   9.707   6.903  0.0202  0.2095  0.0876
  844POPE   C2B12624  12.664   9.968   7.263 -0.0824  0.2498  0.0827
  844POPE   C3B12625  12.941   9.871   7.475 -0.1080  0.1772  0.0171
  844POPE   C4B12626  13.127   9.552   7.700  0.1776  0.0880 -0.4455
  845POPE   NH312627   0.427  17.498   6.198 -0.1083  0.0403 -0.1258
  845POPE   PO412628   0.910  17.486   6.045  0.0766 -0.1572 -0.1406
  845POPE   GL112629   0.821  17.105   6.323 -0.2244 -0.0218 -0.2148
  845POPE   GL212630   0.768  16.738   6.277 -0.3512  0.1311 -0.0905
  845POPE   C1A12631   0.781  17.228   6.724  0.0083 -0.0856  0.0719
  845POPE   D2A12632   0.777  17.480   7.124 -0.1043  0.0999 -0.0718
  845POPE   C3A12633   0.793  17.527   7.590 -0.2676  0.1253  0.2607
  845POPE   C4A12634   1.016  17.431   7.941  0.3038 -0.4369 -0.1141
  845POPE   C1B12635   0.652  16.784   6.710 -0.0399 -0.0028  0.2009
  845POPE   C2B12636   0.627  16.906   7.162  0.1131 -0.2404  0.1514
  845POPE   C3B12637   0.841  17.028   7.472  0.0388  0.1518 -0.2188
  845POPE   C4B12638   1.098  16.978   7.787  0.0138 -0.0439  0.1910
  846POPE   NH312639  13.986  14.970   5.935 -0.3009  0.1779  0.1984
  846POPE   PO412640  13.514  14.993   5.947 -0.0311 -0.0502 -0.0277
  846POPE   GL112641  13.569  14.908   6.317  0.0412  0.0011 -0.2483
  846POPE   GL212642  13.494  15.261   6.477  0.0367 -0.0425  0.2243
  846POPE   C1A12643  13.724  14.879   6.817  0.0122 -0.2888 -0.1055
  846POPE   D2A12644  13.530  14.832   7.218 -0.1260 -0.0388  0.0345
  846POPE   C3A12645  13.619  14.592   7.620  0.2102  0.2927 -0.3047
  846POPE   C4A12646  13.797  14.674   8.007  0.0366  0.3090  0.1387
  846POPE   C1B12647  13.622  15.363   6.968 -0.0586 -0.0727  0.4192
  846POPE   C2B12648  13.534  15.465   7.401  0.1970  0.1615 -0.0152
  846POPE   C3B12649  13.797  15.573   7.831 -0.0005  0.2332 -0.1500
  846POPE   C4B12650  13.947  15.931   8.008 -0.0004  0.0764  0.2880
  847POPE   NH312651  13.725   3.904   6.020 -0.2796 -0.0355  0.1170
  847POPE   PO412652  13.657   4.301   5.844  0.1646  0.0734  0.0639
  847POPE   GL112653  13.471   4.357   6.292 -0.0588 -0.0913  0.0127
  847POPE   GL212654  13.715   4.569   6.537 -0.3543  0.0850  0.1726
  847POPE   C1A12655  13.359   4.175   6.767  0.1810 -0.1318  0.2317
  847POPE   D2A12656  13.175   3.827   7.071 -0.2264  0.2572  0.1818
  847POPE   C3A12657  13.385   3.775   7.415  0.1747 -0.0924  0.1669
  847POPE   C4A12658  13.680   3.519   7.715 -0.2583 -0.2939  0.0261
  847POPE   C1B12659  14.216   4.441   6.587 -0.1380 -0.0687  0.2536
  847POPE   C2B12660  14.428   4.204   6.854  0.1583 -0.1143 -0.0649
  847POPE   C3B12661  14.525   4.052   7.243 -0.3454 -0.0941 -0.0614
  847POPE   C4B12662  14.421   3.925   7.709  0.1377 -0.1145  0.1574
  848POPE   NH312663   4.590   1.967   5.985  0.2642  0.1793 -0.0994
  848POPE   PO412664   4.712   1.710   6.143 -0.2591 -0.0235  0.0648
  848POPE   GL112665   4.869   1.627   6.403  0.0810 -0.2394  0.0787
  848POPE   GL212666   4.891   1.382   6.504  0.1218  0.0036  0.2693
  848POPE   C1A12667   5.281   1.794   6.505 -0.2896 -0.0193 -0.3283
  848POPE   D2A12668   5.650   1.851   6.734  0.0555  0.0595  0.0413
  848POPE   C3A12669   6.022   1.989   6.471 -0.0176  0.1892 -0.1154
  848POPE   C4A12670   6.454   2.109   6.428 -0.0115  0.1169  0.0329
  848POPE   C1B12671   4.644   1.213   6.720 -0.1528 -0.0047 -0.4900
  848POPE   C2B12672   4.457   1.147   7.130  0.3622  0.2448 -0.1526
  848POPE   C3B12673   4.740   0.878   7.404  0.0272 -0.0760  0.0859
  848POPE   C4B12674   4.687   0.612   7.809 -0.2733  0.0472  0.0077
  849POPE   NH312675  14.725  16.124   6.148 -0.0289 -0.0425  0.1820
  849POPE   PO412676  14.362  16.281   6.029 -0.0398 -0.2463  0.4402
  849POPE   GL112677  14.333  16.097   6.441 -0.2517 -0.0573  0.2250
  849POPE   GL212678  14.471  15.731   6.636  0.0361 -0.0497  0.0147
  849POPE   C1A12679  14.347  16.209   6.805 -0.1543 -0.2847  0.0356
  849POPE   D2A12680  14.373  16.085   7.254  0.5335 -0.0720  0.0287
  849POPE   C3A12681  14.289  15.811   7.517  0.1763  0.2077 -0.0313
  849POPE   C4A12682  14.257  15.461   7.807 -0.2308  0.2186 -0.1207
  849POPE   C1B12683  14.496  15.543   7.119 -0.1516 -0.0451 -0.1330
  849POPE   C2B12684  14.666  15.478   7.405 -0.1143 -0.0088  0.0179
  849POPE   C3B12685  14.710  15.288   7.926  0.0421  0.0333  0.0081
  849POPE   C4B12686  14.672  15.034   8.273  0.0634  0.1573 -0.2119
  850POPE   NH312687  15.708  13.392   6.023  0.2279  0.0412 -0.1660
  850POPE   PO412688  15.710  13.907   5.850 -0.1000 -0.0616  0.2042
  850POPE   GL112689  15.789  14.142   6.267 -0.0691 -0.0235  0.4373
  850POPE   GL212690  15.795  14.440   6.280  0.1674 -0.0100  0.0385
  850POPE   C1A12691  15.965  14.121   6.642 -0.3128 -0.4449 -0.1769
  850POPE   D2A12692  15.958  14.228   7.021  0.1137 -0.1040 -0.1679
  850POPE   C3A12693  15.593  14.326   7.128  0.0486  0.1102 -0.0211
  850POPE   C4A12694  15.232  14.238   7.449  0.0467 -0.1525  0.1578
  850POPE   C1B12695  15.518  14.284   6.618  0.2638  0.0729  0.1974
  850POPE   C2B12696  15.152  14.280   6.910  0.1732  0.1410  0.0312
  850POPE   C3B12697  14.891  13.975   7.158 -0.0522  0.1184 -0.1356
  850POPE   C4B12698  14.954  13.693   7.527  0.0146 -0.5407  0.1251
  851POPE   NH312699   1.845   3.184   5.759 -0.0030 -0.0779  0.1168
  851POPE   PO412700   1.935   3.111   6.145  0.1878 -0.1237 -0.0561
  851POPE   GL112701   1.766   3.320   6.443 -0.1199  0.1529  0.3695
  851POPE   GL212702   1.526   3.178   6.658 -0.1092  0.0984  0.0608
  851POPE   C1A12703   1.779   3.592   6.733 -0.0333 -0.0562  0.3022
  851POPE   D2A12704   1.973   3.518   7.102  0.0912  0.2267 -0.2395
  851POPE   C3A12705   2.129   3.842   7.372 -0.1888 -0.3440 -0.1554
  851POPE   C4A12706   1.973   4.216   7.657  0.1970 -0.1739 -0.2204
  851POPE   C1B12707   1.501   3.283   7.018  0.0504  0.2891 -0.0870
  851POPE   C2B12708   1.619   3.408   7.432 -0.3696 -0.0384 -0.0726
  851POPE   C3B12709   1.620   3.375   7.969  0.2912 -0.0757  0.0528
  851POPE   C4B12710   1.750   3.543   8.405 -0.2612 -0.1462 -0.0087
  852POPE   NH312711  17.245   3.388   6.160 -0.0808 -0.0798 -0.0236
  852POPE   PO412712  17.218   2.958   6.455  0.0355 -0.3579  0.1091
  852POPE   GL112713  17.246   2.859   6.838 -0.4143 -0.2080 -0.2816
  852POPE   GL212714  17.536   3.012   6.873 -0.1354 -0.2003  0.3203
  852POPE   C1A12715  17.046   2.831   7.298 -0.2513 -0.1359 -0.1197
  852POPE   D2A12716  17.263   2.905   7.667  0.3164 -0.1064  0.1736
  852POPE   C3A12717  17.432   3.418   7.683  0.1482  0.0380 -0.3063
  852POPE   C4A12718  17.589   3.810   7.910  0.0409 -0.2715  0.1447
  852POPE   C1B12719  17.418   3.156   7.244  0.1776 -0.3026  0.2070
  852POPE   C2B12720  17.724   3.035   7.587  0.3364 -0.1952 -0.1230
  852POPE   C3B12721  18.038   2.688   7.783 -0.1983  0.1082 -0.2193
  852POPE   C4B12722  18.033   2.269   7.677  0.0905 -0.0845  0.1085
  853POPE   NH312723  11.653  15.980   6.042  0.0822  0.1283 -0.1511
  853POPE   PO412724  12.097  15.957   6.052 -0.0579 -0.1592 -0.0796
  853POPE   GL112725  11.962  15.798   6.435  0.1725  0.2365  0.1634
  853POPE   GL212726  12.254  15.743   6.545  0.0039  0.1195  0.1498
  853POPE   C1A12727  11.672  15.574   6.708 -0.1233  0.3058 -0.3307
  853POPE   D2A12728  11.369  15.461   6.923  0.1718 -0.0883 -0.3222
  853POPE   C3A12729  11.455  15.400   7.390 -0.2103 -0.2437 -0.1926
  853POPE   C4A12730  11.495  15.211   7.747 -0.0934 -0.0886 -0.0108
  853POPE   C1B12731  12.199  15.590   6.970 -0.0427 -0.1594  0.0912
  853POPE   C2B12732  12.123  15.530   7.396 -0.1334  0.1804  0.0416
  853POPE   C3B12733  11.942  15.347   7.702 -0.1053  0.1686  0.0427
  853POPE   C4B12734  11.971  15.031   8.031  0.2021 -0.1786  0.1279
  854POPE   NH312735   5.784  16.182   5.515 -0.0807  0.2544 -0.2680
  854POPE   PO412736   5.524  15.743   5.610  0.0758  0.1377 -0.1834
  854POPE   GL112737   5.470  15.989   5.914 -0.2002 -0.1546  0.2338
  854POPE   GL212738   5.581  15.895   6.240  0.2538 -0.4126  0.1448
  854POPE   C1A12739   5.092  16.188   6.136 -0.1472 -0.3605  0.0075
  854POPE   D2A12740   4.671  16.055   6.265 -0.2375 -0.0234  0.0887
  854POPE   C3A12741   4.552  16.183   6.745 -0.1482  0.1234  0.0747
  854POPE   C4A12742   4.784  16.414   7.120 -0.2694  0.2785  0.2041
  854POPE   C1B12743   5.567  15.623   6.550 -0.3163 -0.2288 -0.1292
  854POPE   C2B12744   5.372  15.636   7.043 -0.0326 -0.0867 -0.1143
  854POPE   C3B12745   5.382  16.016   7.372 -0.2516  0.3009 -0.1711
  854POPE   C4B12746   5.104  16.383   7.483  0.2470  0.2444  0.0811
  855POPE   NH312747  13.736  12.476   6.007  0.0370  0.1183 -0.0410
  855POPE   PO412748  13.946  12.090   5.756 -0.0783 -0.2076  0.0901
  855POPE   GL112749  13.998  12.084   6.189 -0.0064 -0.2252  0.0426
  855POPE   GL212750  13.820  11.747   6.243  0.1869 -0.1041 -0.3707
  855POPE   C1A12751  13.887  12.108   6.622  0.0357  0.0460 -0.0892
  855POPE   D2A12752  13.769  11.947   6.932 -0.1449 -0.0157  0.1419
  855POPE   C3A12753  13.923  11.958   7.293 -0.0192 -0.0688 -0.1871
  855POPE   C4A12754  14.107  11.947   7.696 -0.1288 -0.1191 -0.2299
  855POPE   C1B12755  13.608  11.616   6.584  0.0993 -0.1567  0.0842
  855POPE   C2B12756  13.512  11.572   7.077 -0.1036  0.1249  0.1711
  855POPE   C3B12757  13.231  11.407   7.399  0.0537 -0.1745 -0.1116
  855POPE   C4B12758  13.033  11.686   7.631 -0.5173  0.2260 -0.1326
  856POPE   NH312759  16.403   8.470   6.120 -0.0647 -0.2242 -0.2286
  856POPE   PO412760  16.617   8.078   6.064 -0.3667  0.0777 -0.3408
  856POPE   GL112761  16.717   8.138   6.513 -0.1825  0.1012  0.3012
  856POPE   GL212762  16.624   7.898   6.609 -0.3083  0.0100  0.2818
  856POPE   C1A12763  16.985   8.197   6.921 -0.1052  0.0129 -0.1642
  856POPE   D2A12764  17.222   8.053   7.352  0.0134 -0.0063  0.2340
  856POPE   C3A12765  17.328   7.563   7.316 -0.1196 -0.0060 -0.1937
  856POPE   C4A12766  17.053   7.186   7.253 -0.2656 -0.0061 -0.1828
  856POPE   C1B12767  16.454   7.708   6.975  0.1518  0.0143  0.3493
  856POPE   C2B12768  16.387   7.725   7.361 -0.0628  0.3618 -0.0702
  856POPE   C3B12769  16.505   7.706   7.784  0.2033 -0.0720 -0.0523
  856POPE   C4B12770  16.453   7.928   8.177  0.4444 -0.1433  0.1123
  857POPE   NH312771  14.561   0.115   6.127 -0.0333  0.0752  0.3824
  857POPE   PO412772  14.133   0.144   6.086 -0.0259  0.0447 -0.0527
  857POPE   GL112773  14.121  -0.014   6.490  0.0885 -0.1253  0.0685
  857POPE   GL212774  13.874  -0.271   6.484  0.1926 -0.4109  0.1125
  857POPE   C1A12775  14.184  -0.003   6.984 -0.0879  0.3929  0.0303
  857POPE   D2A12776  14.446  -0.043   7.341 -0.2051 -0.0892 -0.2804
  857POPE   C3A12777  14.465  -0.417   7.683 -0.4795 -0.2674  0.1656
  857POPE   C4A12778  14.321  -0.839   7.866 -0.0955  0.1452 -0.1253
  857POPE   C1B12779  13.772  -0.505   6.739  0.1511 -0.2246  0.0837
  857POPE   C2B12780  13.453  -0.841   6.985 -0.1293 -0.1178  0.1418
  857POPE   C3B12781  13.581  -0.982   7.343  0.1101  0.2314 -0.2856
  857POPE   C4B12782  13.871  -0.966   7.703 -0.1208  0.1496 -0.2012
  858POPE   NH312783  16.890  14.710   5.795  0.0119 -0.0497 -0.0301
  858POPE   PO412784  16.775  14.386   5.945  0.1107  0.1804 -0.0195
  858POPE   GL112785  17.093  14.456   6.243  0.0024 -0.1135  0.1387
  858POPE   GL212786  16.842  14.562   6.511 -0.0506  0.0380 -0.0898
  858POPE   C1A12787  17.425  14.743   6.317  0.0959  0.1326  0.0775
  858POPE   D2A12788  17.595  14.910   6.609 -0.1764  0.1762 -0.0149
  858POPE   C3A12789  17.548  14.870   6.977  0.0484  0.1035 -0.4481
  858POPE   C4A12790  17.708  14.904   7.390  0.0606 -0.3603  0.1299
  858POPE   C1B12791  17.280  14.514   6.734  0.3664 -0.0375 -0.6061
  858POPE   C2B12792  17.365  14.506   7.220  0.2564 -0.0884 -0.0530
  858POPE   C3B12793  17.688  14.451   7.541  0.2216  0.2140 -0.0371
  858POPE   C4B12794  17.760  14.135   7.838  0.1730  0.0991  0.1028
  859POPE   NH312795   0.012  14.244   5.860 -0.2841  0.1872 -0.1506
  859POPE   PO412796  -0.375  14.077   6.093 -0.0324 -0.2490  0.1746
  859POPE   GL112797  -0.068  14.082   6.423  0.2334  0.1471  0.0014
  859POPE   GL212798   0.066  13.844   6.409  0.0774  0.1968  0.1785
  859POPE   C1A12799   0.134  14.052   6.860  0.1948  0.1083 -0.1575
  859POPE   D2A12800   0.307  13.880   7.189  0.0982 -0.1478 -0.0404
  859POPE   C3A12801   0.589  13.581   7.201  0.2970 -0.2185 -0.0312
  859POPE   C4A12802   0.682  13.462   7.611  0.0026 -0.2505  0.1300
  859POPE   C1B12803  -0.074  13.560   6.797 -0.2016 -0.0461  0.0666
  859POPE   C2B12804  -0.017  13.497   7.192 -0.2734  0.1982 -0.1326
  859POPE   C3B12805  -0.192  13.227   7.548 -0.1123  0.0254 -0.3628
  859POPE   C4B12806  -0.279  12.899   7.785 -0.0493 -0.1179  0.0799
  860POPE   NH312807  17.320   2.579   6.120 -0.3651 -0.0604  0.1423
  860POPE   PO412808  17.137   2.247   6.281 -0.0511 -0.1093 -0.0835
  860POPE   GL112809  17.114   2.337   6.653  0.1958 -0.3529  0.0576
  860POPE   GL212810  16.891   2.457   6.664  0.0859  0.0885 -0.2046
  860POPE   C1A12811  17.124   2.319   7.059 -0.0101  0.1733  0.2140
  860POPE   D2A12812  16.797   2.452   7.426  0.1448  0.0880 -0.2288
  860POPE   C3A12813  16.964   2.543   7.788 -0.3210 -0.2034 -0.0652
  860POPE   C4A12814  17.105   2.651   8.095 -0.0298 -0.1219 -0.0273
  860POPE   C1B12815  16.591   2.489   6.971  0.0329 -0.1194  0.0057
  860POPE   C2B12816  16.570   2.839   7.258  0.1014  0.0248  0.2099
  860POPE   C3B12817  16.712   2.955   7.640 -0.1131 -0.1391 -0.1027
  860POPE   C4B12818  16.924   3.121   8.004  0.0768 -0.1607 -0.0870
  861POPE   NH312819  12.310  16.339   5.918 -0.0672 -0.1207 -0.1733
  861POPE   PO412820  11.898  16.397   5.951 -0.1068 -0.0281 -0.2313
  861POPE   GL112821  11.881  16.389   6.375 -0.1569 -0.1111  0.0484
  861POPE   GL212822  12.194  16.302   6.504  0.2157  0.1807 -0.0922
  861POPE   C1A12823  11.906  16.574   6.799  0.0754 -0.1596 -0.3598
  861POPE   D2A12824  11.884  16.644   7.164  0.0878  0.2076 -0.2412
  861POPE   C3A12825  11.516  16.574   7.488  0.0655  0.0682 -0.3496
  861POPE   C4A12826  11.315  16.225   7.690  0.2504 -0.2070 -0.1201
  861POPE   C1B12827  12.023  16.122   6.854  0.4463 -0.0840 -0.3663
  861POPE   C2B12828  11.885  16.206   7.278  0.1270 -0.1868 -0.1857
  861POPE   C3B12829  11.853  16.231   7.709  0.2478 -0.3945  0.0999
  861POPE   C4B12830  11.736  16.087   8.054  0.0363  0.0088 -0.0032
  862POPE   NH312831   8.581   5.740   6.009  0.0396 -0.1963 -0.0115
  862POPE   PO412832   8.329   5.300   6.066  0.3831  0.1715 -0.0025
  862POPE   GL112833   8.473   5.278   6.467 -0.1053  0.3722  0.1351
  862POPE   GL212834   8.573   5.533   6.571  0.2682  0.0302 -0.4258
  862POPE   C1A12835   8.372   5.139   6.905 -0.1691 -0.1209 -0.3315
  862POPE   D2A12836   8.463   5.045   7.269  0.2781  0.2027  0.2868
  862POPE   C3A12837   8.403   5.108   7.739 -0.0028  0.0522 -0.1409
  862POPE   C4A12838   8.248   5.357   8.009 -0.1356  0.0439 -0.0828
  862POPE   C1B12839   8.585   5.620   6.975  0.1491  0.0112 -0.2752
  862POPE   C2B12840   8.610   5.582   7.324  0.1944  0.2203 -0.1139
  862POPE   C3B12841   8.837   5.576   7.725 -0.1040 -0.1063 -0.1857
  862POPE   C4B12842   9.035   5.479   8.050 -0.0762 -0.2239 -0.4107
  863POPE   NH312843   1.086   5.448   5.767  0.0107 -0.5280 -0.1367
  863POPE   PO412844   0.681   5.381   5.994  0.0318  0.1400 -0.3819
  863POPE   GL112845   0.931   5.171   6.168  0.2332 -0.1472  0.1635
  863POPE   GL212846   1.272   5.291   6.215 -0.0516 -0.0746  0.1408
  863POPE   C1A12847   1.167   4.883   6.509 -0.2408  0.1163  0.0495
  863POPE   D2A12848   1.121   5.090   6.933 -0.2387  0.0341  0.1949
  863POPE   C3A12849   1.178   4.934   7.312  0.0444 -0.0336  0.0098
  863POPE   C4A12850   1.168   4.708   7.652  0.4399 -0.2406 -0.2726
  863POPE   C1B12851   1.346   5.380   6.652  0.2128 -0.1727 -0.0566
  863POPE   C2B12852   1.276   5.648   7.082  0.1024 -0.0609  0.3500
  863POPE   C3B12853   1.320   5.837   7.512  0.0831 -0.0611 -0.0593
  863POPE   C4B12854   1.635   5.857   7.764  0.2452 -0.3082 -0.5069
  864POPE   NH312855   0.733   0.812   5.806  0.0180 -0.0752 -0.2186
  864POPE   PO412856   0.555   1.238   5.656 -0.3956  0.1473 -0.1942
  864POPE   GL112857   0.556   1.180   6.083 -0.1788 -0.0737 -0.0351
  864POPE   GL212858   0.688   1.364   6.337 -0.3268  0.0770 -0.1152
  864POPE   C1A12859   0.267   1.189   6.565 -0.0452  0.2896 -0.3598
  864POPE   D2A12860  -0.108   0.948   6.722 -0.0520 -0.0880  0.0496
  864POPE   C3A12861  -0.025   1.037   7.176 -0.1356  0.0583  0.0026
  864POPE   C4A12862   0.014   1.380   7.417 -0.0371  0.0796 -0.0168
  864POPE   C1B12863   0.747   1.097   6.730 -0.1776 -0.2022 -0.4441
  864POPE   C2B12864   1.044   0.989   7.098 -0.0866  0.0516 -0.1956
  864POPE   C3B12865   0.904   1.039   7.434  0.1311 -0.2721  0.1205
  864POPE   C4B12866   0.699   0.759   7.845  0.4067 -0.1711  0.0408
  865POPE   NH312867   3.589  15.727   5.955  0.0339  0.4686 -0.0212
  865POPE   PO412868   3.741  16.228   5.780 -0.0330 -0.1627  0.0166
  865POPE   GL112869   3.983  16.055   6.163  0.4027 -0.0923 -0.0604
  865POPE   GL212870   3.685  15.927   6.470  0.5201  0.0574  0.0218
  865POPE   C1A12871   4.184  15.963   6.542  0.0582 -0.0141  0.0177
  865POPE   D2A12872   4.179  15.972   6.997 -0.0661 -0.1101 -0.1297
  865POPE   C3A12873   4.492  16.084   7.427  0.0384  0.2172  0.0276
  865POPE   C4A12874   4.272  15.922   7.848 -0.3470 -0.4232  0.0806
  865POPE   C1B12875   3.648  16.037   6.860 -0.0098  0.0809 -0.1248
  865POPE   C2B12876   3.812  16.133   7.249  0.0469 -0.1871  0.0401
  865POPE   C3B12877   3.926  16.194   7.637 -0.5078  0.3063 -0.1439
  865POPE   C4B12878   3.725  16.176   8.143 -0.0615 -0.1962  0.3120
  866POPE   NH312879   7.979   6.470   6.411  0.2491  0.1229  0.3606
  866POPE   PO412880   8.144   6.884   6.136  0.1493 -0.1511  0.0932
  866POPE   GL112881   8.222   6.915   6.559 -0.0651  0.0310  0.0781
  866POPE   GL212882   8.527   7.180   6.619  0.0761  0.0483  0.3364
  866POPE   C1A12883   8.128   6.994   6.985  0.3071  0.1455 -0.1183
  866POPE   D2A12884   8.228   6.949   7.368 -0.1793 -0.2519  0.2636
  866POPE   C3A12885   8.318   6.754   7.816 -0.1885 -0.0310 -0.2836
  866POPE   C4A12886   8.189   6.734   8.287  0.2108  0.2401  0.2549
  866POPE   C1B12887   8.559   7.311   6.991 -0.1843  0.2325 -0.1681
  866POPE   C2B12888   8.398   7.421   7.347 -0.2922 -0.2220 -0.2256
  866POPE   C3B12889   8.205   7.263   7.759  0.0353 -0.1832  0.0201
  866POPE   C4B12890   8.312   7.179   8.157 -0.2959 -0.0312 -0.1826
  867POPE   NH312891  17.038   0.281   6.326  0.0838 -0.2548  0.1817
  867POPE   PO412892  16.984   0.719   6.481  0.3472 -0.1699 -0.2678
  867POPE   GL112893  17.197   0.659   6.899 -0.1721 -0.3779 -0.1060
  867POPE   GL212894  17.324   0.933   6.859  0.1419  0.1741  0.2562
  867POPE   C1A12895  17.095   0.470   7.265 -0.0295  0.0329  0.2373
  867POPE   D2A12896  17.248   0.698   7.663 -0.0183 -0.0460 -0.2730
  867POPE   C3A12897  17.137   1.108   7.693  0.1081 -0.1610 -0.1560
  867POPE   C4A12898  16.795   1.092   8.001  0.0132 -0.2930  0.3281
  867POPE   C1B12899  17.478   0.999   7.261 -0.1565  0.0039 -0.0550
  867POPE   C2B12900  17.851   0.965   7.651  0.3158 -0.2986  0.0717
  867POPE   C3B12901  18.131   1.040   7.949  0.1482  0.2804  0.3557
  867POPE   C4B12902  18.404   1.293   8.242 -0.2647 -0.0471 -0.2342
  868POPE   NH312903  17.053  12.210   5.996 -0.0607 -0.0586  0.3313
  868POPE   PO412904  16.722  11.841   5.984 -0.3345  0.1498  0.1142
  868POPE   GL112905  16.994  11.632   6.277  0.3202  0.0068 -0.0008
  868POPE   GL212906  17.180  11.884   6.335 -0.1204 -0.1062 -0.0950
  868POPE   C1A12907  17.017  11.366   6.538  0.0078 -0.4103 -0.2400
  868POPE   D2A12908  16.638  11.189   6.651 -0.0875 -0.0860 -0.1502
  868POPE   C3A12909  16.611  11.279   7.105  0.0092 -0.0448  0.0829
  868POPE   C4A12910  16.529  11.138   7.506 -0.1082 -0.0551  0.1599
  868POPE   C1B12911  17.414  11.718   6.499 -0.0245  0.3617 -0.1337
  868POPE   C2B12912  17.490  11.556   6.956 -0.1986 -0.0533 -0.4895
  868POPE   C3B12913  17.492  11.394   7.364 -0.1535  0.1029 -0.0184
  868POPE   C4B12914  17.825  11.454   7.655 -0.0813 -0.1169  0.1037
  869POPE   NH312915   2.666  11.555   5.581  0.1349 -0.0815  0.2945
  869POPE   PO412916   2.437  11.216   5.809 -0.1917 -0.0469 -0.0736
  869POPE   GL112917   2.179  11.058   6.217  0.3777  0.2032  0.1769
  869POPE   GL212918   2.063  10.852   6.129  0.0383  0.0886 -0.0926
  869POPE   C1A12919   2.035  11.245   6.668  0.0810  0.0853  0.1195
  869POPE   D2A12920   1.727  11.312   6.985  0.1605 -0.0017  0.0256
  869POPE   C3A12921   1.785  11.196   7.414 -0.1247  0.3410  0.1115
  869POPE   C4A12922   1.885  10.811   7.560 -0.1445 -0.3291 -0.1568
  869POPE   C1B12923   2.128  10.573   6.445 -0.0318  0.2730 -0.0191
  869POPE   C2B12924   2.348  10.437   6.878  0.0512 -0.2591  0.0144
  869POPE   C3B12925   2.437  10.565   7.293  0.3168 -0.0301 -0.1124
  869POPE   C4B12926   2.297  10.567   7.720  0.0476  0.0566 -0.3507
  870POPE   NH312927   9.953   8.107   6.003 -0.1235 -0.2393  0.2537
  870POPE   PO412928   9.558   7.941   6.326 -0.0009 -0.2308  0.0139
  870POPE   GL112929   9.856   7.704   6.567 -0.2572 -0.2518  0.1567
  870POPE   GL212930   9.591   7.531   6.753 -0.2401  0.2770  0.0602
  870POPE   C1A12931  10.029   7.606   6.961 -0.4686  0.1674 -0.1687
  870POPE   D2A12932   9.958   7.796   7.422 -0.1179 -0.0969 -0.2488
  870POPE   C3A12933  10.261   7.540   7.820 -0.0972  0.1028  0.0453
  870POPE   C4A12934  10.472   7.218   8.108 -0.2577 -0.2834 -0.1200
  870POPE   C1B12935   9.583   7.729   7.114  0.1712 -0.2034 -0.0280
  870POPE   C2B12936   9.394   7.690   7.532  0.1677  0.0031  0.1058
  870POPE   C3B12937   9.325   7.808   8.009 -0.0418  0.0041  0.3786
  870POPE   C4B12938   9.286   8.156   8.318 -0.1377  0.2402  0.0566
  871YOPE   NH312939   4.480  10.930   5.654 -0.0360  0.0841  0.1773
  871YOPE   PO412940   4.131  10.754   5.875 -0.0315 -0.2400  0.1047
  871YOPE   GL112941   3.932  11.055   6.229 -0.2592 -0.0352  0.1176
  871YOPE   GL212942   3.557  11.068   6.181  0.1551  0.0273 -0.0318
  871YOPE   C1A12943   3.963  11.264   6.620  0.1396  0.0682  0.1471
  871YOPE   D2A12944   4.096  11.466   6.999  0.1214 -0.0313  0.0153
  871YOPE   C3A12945   4.126  11.465   7.581 -0.0056  0.1349  0.1434
  871YOPE   C4A12946   4.100  11.146   7.989 -0.1026 -0.1553  0.2253
  871YOPE   C1B12947   3.478  11.082   6.583  0.0920 -0.1240  0.1782
  871YOPE   C2B12948   3.522  11.363   7.037 -0.2323  0.1099  0.0654
  871YOPE   D3B12949   3.513  11.674   7.346  0.1585 -0.1598  0.0077
  871YOPE   C4B12950   3.283  11.645   7.761  0.0625  0.2490 -0.3616
  872YOPE   NH312951  17.879   2.481   6.084  0.2801 -0.0626 -0.3837
  872YOPE   PO412952  17.614   2.224   5.937  0.2844  0.0368  0.1674
  872YOPE   GL112953  17.596   2.070   6.367  0.1795  0.1880 -0.1168
  872YOPE   GL212954  17.952   1.918   6.495 -0.2108  0.2535  0.1019
  872YOPE   C1A12955  17.645   1.914   6.895 -0.3913 -0.1578 -0.1416
  872YOPE   D2A12956  17.765   1.906   7.336  0.1852 -0.1627 -0.2222
  872YOPE   C3A12957  17.582   2.021   7.809 -0.0245  0.0598  0.2687
  872YOPE   C4A12958  17.518   1.790   8.178 -0.1910 -0.0630  0.0271
  872YOPE   C1B12959  18.151   2.154   6.777  0.0070 -0.0446  0.1237
  872YOPE   C2B12960  18.211   2.307   7.197  0.2787  0.0080 -0.1234
  872YOPE   D3B12961  18.480   2.216   7.506 -0.1200  0.1331 -0.2810
  872YOPE   C4B12962  18.449   2.268   8.031  0.4654  0.1068  0.3989
  873YOPE   NH312963   7.481  12.736   5.719 -0.1348 -0.0102 -0.0975
  873YOPE   PO412964   7.579  13.090   5.974 -0.0123 -0.0962 -0.2350
  873YOPE   GL112965   7.727  12.810   6.263  0.3088  0.0532 -0.0217
  873YOPE   GL212966   7.561  12.546   6.261  0.1371  0.0520 -0.0721
  873YOPE   C1A12967   7.840  13.057   6.575  0.2188  0.1971 -0.2722
  873YOPE   D2A12968   7.991  13.072   6.996  0.0085  0.2090 -0.0846
  873YOPE   C3A12969   7.981  12.756   7.176  0.1307  0.2372 -0.1438
  873YOPE   C4A12970   7.961  12.297   7.251 -0.0808  0.2469  0.1831
  873YOPE   C1B12971   7.618  12.590   6.720  0.2508 -0.2275  0.1015
  873YOPE   C2B12972   7.556  12.501   7.091  0.1434 -0.0055  0.1625
  873YOPE   D3B12973   7.436  12.218   7.358 -0.0879 -0.0943  0.3570
  873YOPE   C4B12974   7.372  12.307   7.749 -0.3529  0.0016  0.3068
  874YOPE   NH312975   6.832   9.245   6.234  0.1807  0.0255 -0.1002
  874YOPE   PO412976   7.218   9.528   6.244  0.1859  0.1753 -0.0660
  874YOPE   GL112977   7.245   9.814   6.567 -0.2374  0.0393  0.0007
  874YOPE   GL212978   7.374   9.740   6.783 -0.1824 -0.1503 -0.0875
  874YOPE   C1A12979   6.940   9.998   6.802 -0.2288  0.3823 -0.1389
  874YOPE   D2A12980   6.676  10.004   7.207  0.1148 -0.1160  0.1447
  874YOPE   C3A12981   6.795   9.920   7.639 -0.1090 -0.1571  0.0661
  874YOPE   C4A12982   6.957  10.114   7.972 -0.0884  0.1507 -0.0106
  874YOPE   C1B12983   7.233   9.898   7.206  0.0335 -0.2122  0.0979
  874YOPE   C2B12984   7.307   9.873   7.601 -0.2148 -0.2690 -0.0802
  874YOPE   D3B12985   7.469  10.173   7.866  0.1225 -0.0576  0.2296
  874YOPE   C4B12986   7.290  10.555   8.009  0.2245 -0.0413  0.0752
  875YOPE   NH312987   0.019   9.274   5.971 -0.2787 -0.0062 -0.1277
  875YOPE   PO412988  -0.409   9.304   5.960  0.2651 -0.1008 -0.1612
  875YOPE   GL112989  -0.355   9.221   6.408 -0.0779  0.2811 -0.4588
  875YOPE   GL212990  -0.479   9.526   6.558  0.3568  0.2415 -0.0766
  875YOPE   C1A12991  -0.273   8.896   6.853 -0.1170  0.3489  0.3131
  875YOPE   D2A12992  -0.054   8.812   7.200  0.4327  0.1611 -0.2305
  875YOPE   C3A12993  -0.212   8.759   7.692  0.1120 -0.4192 -0.0559
  875YOPE   C4A12994  -0.128   8.727   8.175  0.1994  0.1078  0.1325
  875YOPE   C1B12995  -0.394   9.428   6.900  0.3267  0.2381 -0.3100
  875YOPE   C2B12996  -0.247   9.343   7.135 -0.3007 -0.1565 -0.0022
  875YOPE   D3B12997  -0.485   9.163   7.533  0.0310 -0.2232  0.0969
  875YOPE   C4B12998  -0.617   9.403   7.932 -0.0356 -0.0479 -0.1486
  876YOPE   NH312999   8.462   0.379   5.904 -0.1250  0.0836  0.2535
  876YOPE   PO413000   8.618   0.829   5.728  0.0002 -0.1314 -0.1455
  876YOPE   GL113001   8.648   0.746   6.123  0.1519 -0.4473 -0.0508
  876YOPE   GL213002   8.306   0.649   6.300  0.1350  0.3299 -0.1648
  876YOPE   C1A13003   8.707   0.801   6.518  0.0246  0.1542  0.0516
  876YOPE   D2A13004   8.735   1.163   6.715 -0.0305  0.2496 -0.1882
  876YOPE   C3A13005   8.667   1.136   7.110 -0.3346 -0.1772 -0.0953
  876YOPE   C4A13006   8.597   1.048   7.583 -0.0946  0.2103 -0.2863
  876YOPE   C1B13007   8.269   1.071   6.413 -0.2343 -0.2008  0.2854
  876YOPE   C2B13008   8.210   1.140   6.919 -0.5758 -0.1977  0.1130
  876YOPE   D3B13009   8.107   1.385   7.274 -0.2989 -0.0841  0.1609
  876YOPE   C4B13010   8.237   1.518   7.619 -0.0797  0.1171 -0.3039
  877YOPE   NH313011  16.345   6.363   6.065  0.1230  0.1069 -0.0571
  877YOPE   PO413012  16.658   6.544   5.893 -0.1454 -0.1625  0.0233
  877YOPE   GL113013  16.822   6.635   6.308 -0.0520 -0.1231 -0.1132
  877YOPE   GL213014  16.939   6.954   6.382  0.1548 -0.1749  0.1467
  877YOPE   C1A13015  16.698   6.611   6.778  0.1407  0.3162 -0.1201
  877YOPE   D2A13016  16.527   6.614   7.205 -0.0020  0.2039 -0.1523
  877YOPE   C3A13017  16.515   6.446   7.560 -0.3424  0.0896 -0.2553
  877YOPE   C4A13018  16.666   6.445   8.031 -0.0710  0.1564  0.0176
  877YOPE   C1B13019  17.145   7.150   6.682  0.2820 -0.1455  0.2535
  877YOPE   C2B13020  17.502   7.141   7.058 -0.1168 -0.2140  0.0549
  877YOPE   D3B13021  17.693   7.262   7.433  0.0159 -0.0420 -0.3411
  877YOPE   C4B13022  18.011   7.427   7.678  0.2710  0.3113 -0.2217
  878YOPE   NH313023  11.190   2.901   6.131  0.0133  0.3859 -0.0005
  878YOPE   PO413024  11.365   3.250   6.072  0.3848  0.0052 -0.1404
  878YOPE   GL113025  11.525   3.365   6.372 -0.0761  0.0001 -0.0568
  878YOPE   GL213026  11.696   3.707   6.282 -0.0923  0.3171 -0.1777
  878YOPE   C1A13027  11.603   3.293   6.795  0.0664 -0.1294  0.2555
  878YOPE   D2A13028  11.514   3.181   7.210  0.0806 -0.0307  0.4411
  878YOPE   C3A13029  11.467   3.328   7.643 -0.0420  0.0482 -0.0837
  878YOPE   C4A13030  11.479   3.390   8.120  0.0953 -0.1102  0.0311
  878YOPE   C1B13031  11.840   3.734   6.738  0.1766  0.2396 -0.0061
  878YOPE   C2B13032  11.776   3.595   7.235 -0.0422 -0.0555 -0.2359
  878YOPE   D3B13033  11.887   3.726   7.607 -0.1423  0.0257  0.1452
  878YOPE   C4B13034  11.549   3.882   7.701  0.1476  0.3265 -0.4579
  879YOPE   NH313035   1.237  10.872   5.490 -0.0933  0.2385  0.2691
  879YOPE   PO413036   0.856  11.034   5.472  0.1471  0.2579 -0.2426
  879YOPE   GL113037   0.671  11.150   5.848 -0.0477 -0.1432 -0.0623
  879YOPE   GL213038   0.364  11.337   5.961 -0.2463  0.1888  0.0587
  879YOPE   C1A13039   0.842  11.166   6.297  0.1075 -0.1458  0.1280
  879YOPE   D2A13040   0.832  11.099   6.727 -0.0078  0.0632 -0.0478
  879YOPE   C3A13041   0.747  10.728   6.989  0.1661  0.0596 -0.0980
  879YOPE   C4A13042   0.773  10.629   7.363 -0.0370  0.0054 -0.0373
  879YOPE   C1B13043   0.324  11.346   6.425 -0.0865  0.0077 -0.1045
  879YOPE   C2B13044   0.482  11.425   6.871  0.2821 -0.4443  0.1498
  879YOPE   D3B13045   0.763  11.270   7.203  0.0101  0.0579  0.0600
  879YOPE   C4B13046   1.038  11.058   7.541  0.1237  0.3719  0.3801
  880YOPE   NH313047   9.649  14.646   6.062 -0.0805  0.0266  0.0502
  880YOPE   PO413048   9.192  14.649   5.938 -0.3705  0.0811 -0.1149
  880YOPE   GL113049   9.315  14.875   6.323  0.0354  0.3481  0.1364
  880YOPE   GL213050   9.326  15.133   6.317  0.0337  0.0555  0.2192
  880YOPE   C1A13051   9.474  14.735   6.664 -0.1849  0.1590 -0.1434
  880YOPE   D2A13052   9.604  14.754   7.125  0.1834 -0.2260  0.1345
  880YOPE   C3A13053   9.783  15.116   7.322 -0.0095 -0.1419  0.1982
  880YOPE   C4A13054  10.007  15.148   7.651 -0.1035 -0.2988 -0.0955
  880YOPE   C1B13055   9.076  15.237   6.584  0.1014 -0.0920 -0.1579
  880YOPE   C2B13056   8.719  15.138   7.013  0.0861  0.0075  0.0172
  880YOPE   D3B13057   8.733  15.002   7.419  0.0812 -0.1086 -0.1113
  880YOPE   C4B13058   8.939  14.802   7.761 -0.0111  0.3059 -0.0243
  881YOPE   NH313059   4.795   1.186   5.965 -0.2852  0.1599  0.0511
  881YOPE   PO413060   5.123   1.530   5.831 -0.0528  0.1549 -0.0809
  881YOPE   GL113061   5.362   1.377   6.301 -0.0081 -0.0160 -0.0450
  881YOPE   GL213062   5.280   1.000   6.155 -0.2104  0.1131 -0.0874
  881YOPE   C1A13063   5.453   1.352   6.751  0.2338  0.0603 -0.0626
  881YOPE   D2A13064   5.290   1.725   7.052 -0.1760 -0.1360  0.1329
  881YOPE   C3A13065   5.485   2.034   7.222 -0.0941 -0.1598  0.1013
  881YOPE   C4A13066   5.374   2.524   7.286  0.2872  0.1527 -0.0659
  881YOPE   C1B13067   5.167   0.927   6.691  0.1625  0.2258 -0.0246
  881YOPE   C2B13068   5.061   1.041   7.065  0.1343  0.1813  0.1791
  881YOPE   D3B13069   5.247   1.065   7.427  0.0167  0.2082 -0.2527
  881YOPE   C4B13070   5.464   1.378   7.813 -0.0900 -0.0269  0.2469
  882YOPE   NH313071  13.496  11.998   5.818  0.2777  0.0880  0.4749
  882YOPE   PO413072  13.586  11.527   5.893  0.3418 -0.3036  0.1562
  882YOPE   GL113073  13.312  11.590   6.199 -0.2091  0.0737 -0.1913
  882YOPE   GL213074  13.124  11.384   6.109 -0.0419 -0.2194  0.1347
  882YOPE   C1A13075  13.012  11.704   6.473  0.0115  0.2042 -0.0594
  882YOPE   D2A13076  12.925  11.553   6.797 -0.0715  0.1042  0.3396
  882YOPE   C3A13077  12.650  11.215   6.737 -0.1995  0.3049 -0.0713
  882YOPE   C4A13078  12.448  10.795   6.497 -0.0722  0.0510 -0.0054
  882YOPE   C1B13079  13.131  11.182   6.488  0.1140 -0.0603 -0.3405
  882YOPE   C2B13080  13.257  11.131   6.929 -0.1228 -0.2575  0.0619
  882YOPE   D3B13081  13.103  10.954   7.340  0.0267 -0.0553  0.0939
  882YOPE   C4B13082  13.240  10.841   7.786 -0.4025 -0.1090  0.0706
  883YOPE   NH313083   1.791   3.627   6.028 -0.1991 -0.2678 -0.0267
  883YOPE   PO413084   1.395   3.354   6.053  0.2294 -0.4847  0.0111
  883YOPE   GL113085   1.133   3.401   6.427 -0.0357 -0.2524 -0.3767
  883YOPE   GL213086   0.892   3.238   6.551  0.1951  0.4033 -0.4815
  883YOPE   C1A13087   1.199   3.681   6.808 -0.2661  0.0530 -0.1278
  883YOPE   D2A13088   1.155   3.732   7.260 -0.1068 -0.1501  0.2362
  883YOPE   C3A13089   1.155   3.369   7.658 -0.1844 -0.1766 -0.0103
  883YOPE   C4A13090   1.177   3.080   8.064  0.0428 -0.0650  0.2151
  883YOPE   C1B13091   0.800   3.448   6.963 -0.2165  0.1011 -0.2390
  883YOPE   C2B13092   0.677   3.668   7.343 -0.2188 -0.0391 -0.0295
  883YOPE   D3B13093   0.747   3.730   7.716  0.1304  0.1632  0.1532
  883YOPE   C4B13094   0.886   3.499   8.088  0.0405 -0.1001 -0.1704
  884YOPE   NH313095  14.974   6.530   6.367 -0.1543 -0.0683 -0.0366
  884YOPE   PO413096  15.259   6.948   6.334  0.1946 -0.2890  0.0226
  884YOPE   GL113097  15.294   6.725   6.761  0.0359 -0.2651 -0.1067
  884YOPE   GL213098  15.547   6.715   6.814  0.3239  0.1399  0.1751
  884YOPE   C1A13099  15.105   6.487   7.063 -0.0067 -0.1590 -0.1517
  884YOPE   D2A13100  15.026   6.518   7.518 -0.0426 -0.1845  0.1296
  884YOPE   C3A13101  14.724   6.449   7.900 -0.5021  0.2410 -0.3486
  884YOPE   C4A13102  14.791   6.068   8.169 -0.0349  0.0129  0.1410
  884YOPE   C1B13103  15.638   6.534   7.198 -0.1614 -0.0447 -0.0226
  884YOPE   C2B13104  15.504   6.299   7.523 -0.0183  0.1113  0.0001
  884YOPE   D3B13105  15.202   6.296   7.929  0.2096 -0.0688 -0.3522
  884YOPE   C4B13106  15.117   6.720   8.190 -0.0058  0.1968  0.0662
  885YOPE   NH313107   3.859   9.105   5.655 -0.1910  0.0770 -0.2115
  885YOPE   PO413108   4.292   9.156   5.439  0.2082 -0.0190 -0.2676
  885YOPE   GL113109   4.337   9.417   5.833  0.1296 -0.1486 -0.0971
  885YOPE   GL213110   4.198   9.236   6.036 -0.0614  0.1448  0.2407
  885YOPE   C1A13111   4.491   9.711   6.062 -0.0297  0.1377 -0.2313
  885YOPE   D2A13112   4.971   9.699   6.233  0.0238  0.2692  0.0767
  885YOPE   C3A13113   5.336   9.463   6.095  0.0357  0.0520  0.2446
  885YOPE   C4A13114   5.373   9.060   6.128 -0.1096  0.2227 -0.0710
  885YOPE   C1B13115   3.962   9.280   6.346  0.0265  0.0466 -0.3051
  885YOPE   C2B13116   3.899   9.279   6.808 -0.0699  0.2381  0.3479
  885YOPE   D3B13117   4.023   9.371   7.191  0.1102 -0.0495  0.0414
  885YOPE   C4B13118   4.077   9.521   7.623  0.1832 -0.0129  0.2658
  886YOPE   NH313119  15.390  12.714   5.886  0.3556 -0.2477  0.0123
  886YOPE   PO413120  15.659  12.391   6.002 -0.0841 -0.1502  0.0974
  886YOPE   GL113121  15.247  12.359   6.212 -0.0741  0.0061 -0.3266
  886YOPE   GL213122  15.378  12.278   6.423  0.0201 -0.0273  0.3350
  886YOPE   C1A13123  14.958  12.026   6.496 -0.1587 -0.3287 -0.0724
  886YOPE   D2A13124  14.797  12.020   6.918 -0.0071  0.0387 -0.1330
  886YOPE   C3A13125  14.990  11.820   7.374  0.2013 -0.2096  0.0468
  886YOPE   C4A13126  14.992  11.522   7.691 -0.2184  0.0405  0.0283
  886YOPE   C1B13127  15.452  12.148   6.863 -0.1136 -0.4240  0.0038
  886YOPE   C2B13128  15.384  12.120   7.316  0.0443 -0.0045 -0.1377
  886YOPE   D3B13129  15.441  11.974   7.794 -0.1953 -0.0109  0.0702
  886YOPE   C4B13130  15.187  11.732   8.074 -0.1197  0.0043 -0.0503
  887YOPE   NH313131   9.165  14.173   5.984 -0.0240 -0.3306  0.1023
  887YOPE   PO413132   9.611  14.120   5.967  0.0134 -0.1290 -0.0942
  887YOPE   GL113133   9.846  14.197   6.382  0.3578 -0.0949 -0.1097
  887YOPE   GL213134   9.800  14.404   6.583  0.0072 -0.2811  0.1915
  887YOPE   C1A13135  10.110  14.008   6.703 -0.2236 -0.0306  0.3074
  887YOPE   D2A13136  10.245  13.831   7.087  0.1319  0.1681 -0.0383
  887YOPE   C3A13137   9.923  13.432   7.249 -0.2385  0.3326  0.1321
  887YOPE   C4A13138   9.710  13.280   7.599 -0.2196  0.2086 -0.0145
  887YOPE   C1B13139   9.912  14.360   7.020 -0.1511  0.0243  0.3778
  887YOPE   C2B13140   9.854  14.617   7.494 -0.0467 -0.0254  0.1218
  887YOPE   D3B13141   9.917  14.382   7.947  0.4536 -0.0224  0.0189
  887YOPE   C4B13142   9.883  14.047   8.235 -0.0233  0.2250 -0.0006
  888YOPE   NH313143   5.554   6.805   6.134  0.1884 -0.1199 -0.0153
  888YOPE   PO413144   5.279   6.637   5.918 -0.2794  0.1173  0.0837
  888YOPE   GL113145   5.080   6.760   6.315 -0.1517  0.0673 -0.1729
  888YOPE   GL213146   5.231   7.062   6.427 -0.2832  0.3091 -0.0509
  888YOPE   C1A13147   5.045   6.691   6.753  0.0764  0.2356 -0.1570
  888YOPE   D2A13148   4.984   6.838   7.171  0.0797  0.0929 -0.0461
  888YOPE   C3A13149   5.103   6.714   7.547  0.4223 -0.1097 -0.1910
  888YOPE   C4A13150   4.897   6.390   7.842 -0.1325 -0.0567 -0.2574
  888YOPE   C1B13151   4.949   7.185   6.725 -0.1966 -0.0366 -0.2904
  888YOPE   C2B13152   4.975   7.388   7.143  0.0735 -0.1522  0.2259
  888YOPE   D3B13153   4.920   7.207   7.536  0.1964 -0.3461 -0.2234
  888YOPE   C4B13154   4.563   7.183   7.782  0.0861  0.2300 -0.0466
  889YOPE   NH313155   5.756   6.370   5.881  0.3664  0.0405 -0.0615
  889YOPE   PO413156   5.805   6.000   6.059  0.2907  0.1460  0.2847
  889YOPE   GL113157   5.682   5.776   6.440 -0.0384 -0.0868 -0.2586
  889YOPE   GL213158   6.010   5.761   6.671  0.0607  0.1291  0.0550
  889YOPE   C1A13159   5.537   5.405   6.749 -0.3206  0.2550  0.1694
  889YOPE   D2A13160   5.544   5.300   7.250 -0.0272  0.2187 -0.0369
  889YOPE   C3A13161   5.924   5.491   7.465  0.0511 -0.1138  0.0847
  889YOPE   C4A13162   6.076   5.475   7.913  0.1810  0.4702 -0.2042
  889YOPE   C1B13163   5.773   5.720   7.036 -0.1997  0.0875 -0.0775
  889YOPE   C2B13164   6.217   5.845   7.264  0.0422 -0.1180 -0.0121
  889YOPE   D3B13165   6.407   5.757   7.609  0.0886  0.2915  0.1998
  889YOPE   C4B13166   6.369   5.865   8.055  0.1264 -0.1997  0.3635
  890YOPE   NH313167  13.335  12.960   5.530 -0.1744  0.0949  0.0437
  890YOPE   PO413168  13.311  12.878   5.855 -0.1728 -0.1873 -0.3092
  890YOPE   GL113169  13.485  12.878   6.216 -0.0744  0.3660  0.0116
  890YOPE   GL213170  13.688  13.015   6.323  0.1558 -0.0630 -0.1601
  890YOPE   C1A13171  13.271  12.981   6.647  0.1134  0.0527 -0.1450
  890YOPE   D2A13172  13.132  12.884   7.056 -0.1501  0.2782  0.3245
  890YOPE   C3A13173  13.068  12.409   7.187  0.2730  0.1047  0.3144
  890YOPE   C4A13174  12.904  12.160   7.481  0.1475  0.1132 -0.0456
  890YOPE   C1B13175  13.790  13.040   6.691 -0.1377  0.0053 -0.2551
  890YOPE   C2B13176  13.655  12.935   7.080 -0.1313 -0.0318  0.0885
  890YOPE   D3B13177  13.473  12.751   7.475  0.0899 -0.2492  0.0769
  890YOPE   C4B13178  13.089  12.758   7.637  0.3470 -0.3584  0.1380
  891YOPE   NH313179   7.968  14.321   5.843  0.1492 -0.2261 -0.0075
  891YOPE   PO413180   7.571  14.388   5.760  0.1808  0.0193  0.2103
  891YOPE   GL113181   7.576  14.361   6.205  0.0609  0.3192 -0.0130
  891YOPE   GL213182   7.692  14.105   6.219 -0.0520  0.1085  0.2003
  891YOPE   C1A13183   7.316  14.379   6.635  0.1228  0.2081 -0.0201
  891YOPE   D2A13184   6.885  14.466   6.823 -0.1355 -0.0873 -0.2562
  891YOPE   C3A13185   6.819  14.376   7.266  0.0274  0.1909 -0.3387
  891YOPE   C4A13186   6.637  14.308   7.654  0.0958  0.1179  0.0248
  891YOPE   C1B13187   7.677  14.042   6.618 -0.0828  0.2242 -0.1126
  891YOPE   C2B13188   7.736  13.950   7.039 -0.0762 -0.0241 -0.0581
  891YOPE   D3B13189   7.609  14.132   7.451 -0.0586  0.1137  0.0329
  891YOPE   C4B13190   7.361  13.926   7.830  0.1658  0.0137  0.0921
  892YOPE   NH313191  11.075   7.027   6.066 -0.2468 -0.0689  0.0938
  892YOPE   PO413192  11.553   6.967   6.048 -0.3590 -0.1104  0.1134
  892YOPE   GL113193  11.726   6.836   6.458  0.0690  0.0450  0.0825
  892YOPE   GL213194  11.612   6.947   6.715  0.1884  0.0179  0.0554
  892YOPE   C1A13195  12.069   6.775   6.791 -0.0073  0.1336 -0.2258
  892YOPE   D2A13196  12.275   6.915   7.096 -0.0801  0.2614 -0.0373
  892YOPE   C3A13197  12.225   7.165   7.511 -0.0566 -0.1302  0.0526
  892YOPE   C4A13198  11.992   7.304   7.853  0.2183  0.0068 -0.0173
  892YOPE   C1B13199  11.633   6.838   7.195 -0.1624 -0.3042  0.4256
  892YOPE   C2B13200  11.821   6.801   7.582  0.1083 -0.0357  0.0806
  892YOPE   D3B13201  11.810   6.805   7.933 -0.0150 -0.4271 -0.0753
  892YOPE   C4B13202  11.734   7.069   8.299  0.2798  0.0387  0.1533
  893YOPE   NH313203  10.110   8.754   6.268  0.1827  0.1998 -0.1135
  893YOPE   PO413204  10.401   8.303   6.137 -0.1372 -0.2086  0.0492
  893YOPE   GL113205  10.448   8.551   6.566  0.4374  0.1962  0.1650
  893YOPE   GL213206  10.559   8.285   6.645 -0.0437  0.1318 -0.1026
  893YOPE   C1A13207  10.574   8.754   6.945  0.1682 -0.1551 -0.1032
  893YOPE   D2A13208  10.393   9.110   7.212  0.0743  0.0967 -0.2320
  893YOPE   C3A13209  10.026   9.217   7.579 -0.1467  0.1571  0.2084
  893YOPE   C4A13210   9.786   9.262   7.911  0.0185 -0.3538 -0.0015
  893YOPE   C1B13211  10.756   8.286   7.071 -0.0208  0.3694  0.1331
  893YOPE   C2B13212  10.772   8.228   7.491  0.0081  0.1792 -0.1954
  893YOPE   D3B13213  10.806   8.254   7.919  0.2232  0.1607  0.1354
  893YOPE   C4B13214  10.661   8.186   8.299  0.2373 -0.2248 -0.1347
  894YOPE   NH313215  10.260   2.732   6.091 -0.2288  0.2046 -0.1974
  894YOPE   PO413216  10.660   2.839   6.092  0.1039  0.1199  0.1888
  894YOPE   GL113217  10.519   2.944   6.467 -0.1120 -0.0423 -0.0909
  894YOPE   GL213218  10.221   3.100   6.609  0.0365  0.2327 -0.2093
  894YOPE   C1A13219  10.592   3.398   6.718  0.0252 -0.0170  0.0598
  894YOPE   D2A13220  10.733   3.736   6.880 -0.1298 -0.1847 -0.1236
  894YOPE   C3A13221  10.634   3.860   7.269  0.1192  0.3004  0.0874
  894YOPE   C4A13222  10.682   3.859   7.739 -0.1375 -0.1579 -0.1988
  894YOPE   C1B13223  10.276   2.839   6.860  0.2573  0.2687  0.1277
  894YOPE   C2B13224   9.957   2.583   7.067  0.0260  0.1581  0.2711
  894YOPE   D3B13225   9.697   2.249   7.236  0.0471  0.1183  0.0726
  894YOPE   C4B13226   9.590   1.978   7.561  0.1396  0.2583 -0.2154
  895YOPE   NH313227  12.361  14.152   6.165  0.1217 -0.1779  0.0984
  895YOPE   PO413228  12.787  14.223   6.034  0.0727  0.1886 -0.0442
  895YOPE   GL113229  12.828  14.242   6.415  0.1283  0.1273  0.0291
  895YOPE   GL213230  12.654  13.913   6.446  0.0979  0.1882  0.0073
  895YOPE   C1A13231  13.000  14.269   6.768 -0.0283  0.0086 -0.3213
  895YOPE   D2A13232  13.311  14.407   7.141 -0.3977 -0.0626 -0.1016
  895YOPE   C3A13233  13.048  14.774   7.364  0.1595 -0.3339  0.2207
  895YOPE   C4A13234  12.753  14.782   7.710 -0.0486 -0.2612 -0.0675
  895YOPE   C1B13235  12.622  13.545   6.742 -0.0256 -0.1808 -0.0382
  895YOPE   C2B13236  12.824  13.254   6.944  0.0674 -0.3166 -0.2142
  895YOPE   D3B13237  12.657  12.775   7.010 -0.3943 -0.1284  0.0485
  895YOPE   C4B13238  12.318  12.785   7.230  0.1612 -0.1779 -0.0383
  896YOPE   NH313239   6.538  11.923   5.639  0.1105  0.2757 -0.1562
  896YOPE   PO413240   6.253  12.185   5.829  0.5376 -0.2971  0.0908
  896YOPE   GL113241   6.322  12.274   6.220 -0.0145  0.0818 -0.1695
  896YOPE   GL213242   6.342  12.005   6.321 -0.0802  0.0818 -0.1836
  896YOPE   C1A13243   6.453  12.368   6.745 -0.0861 -0.0200 -0.1153
  896YOPE   D2A13244   6.543  12.680   7.137  0.1014 -0.1907 -0.1304
  896YOPE   C3A13245   6.514  12.404   7.514  0.0482  0.0193  0.1567
  896YOPE   C4A13246   6.455  12.288   7.858 -0.0676  0.0684  0.1334
  896YOPE   C1B13247   6.245  11.886   6.723  0.0550  0.2479 -0.1663
  896YOPE   C2B13248   6.490  11.979   7.143  0.0145  0.1242  0.1271
  896YOPE   D3B13249   6.756  11.708   7.547  0.0990 -0.2655  0.0628
  896YOPE   C4B13250   6.878  11.937   7.971 -0.2672 -0.1345 -0.4551
  897YOPE   NH313251   8.282   4.281   6.025 -0.1086 -0.1461 -0.0307
  897YOPE   PO413252   8.587   3.960   5.965  0.2671 -0.0199  0.2107
  897YOPE   GL113253   8.835   3.814   6.330  0.1465  0.0459  0.0137
  897YOPE   GL213254   8.865   3.551   6.388 -0.2914 -0.1238  0.0549
  897YOPE   C1A13255   9.039   3.914   6.713 -0.3313 -0.2962  0.0748
  897YOPE   D2A13256   9.197   4.031   7.215 -0.0823 -0.2346 -0.1270
  897YOPE   C3A13257   9.263   3.805   7.572 -0.2087 -0.2286 -0.2411
  897YOPE   C4A13258   9.712   3.817   7.780 -0.0229  0.1717  0.1785
  897YOPE   C1B13259   8.627   3.572   6.752 -0.2216  0.1961  0.1268
  897YOPE   C2B13260   8.834   3.782   7.096  0.0940  0.5534  0.0214
  897YOPE   D3B13261   8.745   3.940   7.563 -0.1199  0.0297 -0.0992
  897YOPE   C4B13262   8.559   4.170   7.966 -0.0488  0.1182  0.0798
  898YOPE   NH313263  14.464  13.969   5.712 -0.2336 -0.1107  0.1615
  898YOPE   PO413264  13.996  13.951   5.875 -0.1024  0.0590  0.0647
  898YOPE   GL113265  13.947  14.219   6.327 -0.1951  0.0010  0.2727
  898YOPE   GL213266  13.942  14.520   6.439  0.0977  0.0450  0.1095
  898YOPE   C1A13267  14.039  14.246   6.854  0.0261 -0.0641 -0.0841
  898YOPE   D2A13268  13.841  14.402   7.170 -0.2302  0.0375  0.1445
  898YOPE   C3A13269  13.555  14.136   7.466  0.0752  0.1562  0.0840
  898YOPE   C4A13270  13.384  13.987   7.800  0.0921  0.0915  0.1360
  898YOPE   C1B13271  13.518  14.446   6.687  0.3004 -0.1526  0.2187
  898YOPE   C2B13272  13.182  14.772   6.834  0.1000  0.1050  0.0384
  898YOPE   D3B13273  12.694  14.900   6.957  0.0671  0.1850 -0.3837
  898YOPE   C4B13274  12.284  15.104   7.082  0.0063  0.2077  0.0382
  899YOPE   NH313275  12.955   1.457   5.873  0.1160 -0.0966 -0.2181
  899YOPE   PO413276  12.596   1.670   6.146 -0.0215  0.2466  0.2931
  899YOPE   GL113277  12.449   1.593   6.555  0.0997  0.1250 -0.1177
  899YOPE   GL213278  12.363   1.800   6.632 -0.3177  0.0137  0.2379
  899YOPE   C1A13279  12.197   1.462   6.907  0.1614  0.0977 -0.0329
  899YOPE   D2A13280  12.337   1.324   7.215  0.0211 -0.1866 -0.2591
  899YOPE   C3A13281  12.527   0.916   7.152 -0.3851  0.0197  0.0819
  899YOPE   C4A13282  12.359   0.530   7.087  0.0606 -0.0711 -0.0764
  899YOPE   C1B13283  12.410   1.940   7.039 -0.0349 -0.1975 -0.0765
  899YOPE   C2B13284  12.391   1.793   7.480  0.0218  0.1388  0.5175
  899YOPE   D3B13285  12.664   1.376   7.536 -0.1025 -0.2077  0.2091
  899YOPE   C4B13286  12.749   0.920   7.579 -0.1466 -0.1521 -0.0193
  900YOPE   NH313287   2.497  13.889   5.844  0.1573  0.0380 -0.6772
  900YOPE   PO413288   2.963  13.876   5.919  0.0624  0.0526 -0.0647
  900YOPE   GL113289   2.809  13.817   6.270 -0.1926  0.1576 -0.0640
  900YOPE   GL213290   2.604  13.954   6.387 -0.0704 -0.1379 -0.2976
  900YOPE   C1A13291   2.828  13.709   6.789  0.2350 -0.1071 -0.3224
  900YOPE   D2A13292   2.808  13.497   7.199 -0.0637 -0.0093  0.3168
  900YOPE   C3A13293   3.024  13.593   7.537  0.0475 -0.1707 -0.1759
  900YOPE   C4A13294   3.121  13.516   8.023 -0.0277 -0.0079  0.2049
  900YOPE   C1B13295   2.453  14.102   6.806  0.0331 -0.0895 -0.3148
  900YOPE   C2B13296   2.460  13.890   7.154  0.0813  0.2464 -0.1153
  900YOPE   D3B13297   2.612  13.814   7.499 -0.1617 -0.0895 -0.0167
  900YOPE   C4B13298   2.818  13.969   7.890  0.0898 -0.0758 -0.0735
  901YOPE   NH313299   6.574   3.706   6.006  0.0043 -0.2452  0.3608
  901YOPE   PO413300   6.469   3.313   5.844 -0.1773 -0.2327 -0.0614
  901YOPE   GL113301   6.469   3.095   6.131  0.1576  0.0248 -0.0004
  901YOPE   GL213302   6.171   2.920   6.198  0.0132 -0.1197 -0.0710
  901YOPE   C1A13303   6.623   2.805   6.335  0.1812  0.0100 -0.0062
  901YOPE   D2A13304   6.624   2.618   6.736  0.0203  0.0042 -0.1530
  901YOPE   C3A13305   6.385   2.288   6.914 -0.1167  0.5114  0.1085
  901YOPE   C4A13306   6.043   1.994   7.077  0.0785  0.3262 -0.0914
  901YOPE   C1B13307   6.228   3.031   6.639  0.0945  0.2117  0.2304
  901YOPE   C2B13308   6.195   2.818   6.980  0.2100 -0.1985 -0.0455
  901YOPE   D3B13309   6.285   2.702   7.364 -0.2397 -0.1307  0.0108
  901YOPE   C4B13310   6.376   2.344   7.671 -0.0727  0.0626  0.1013
  902YOPE   NH313311   1.801   2.273   6.198 -0.0154  0.2997  0.3195
  902YOPE   PO413312   1.371   2.274   6.110  0.2305 -0.1122 -0.1887
  902YOPE   GL113313   1.260   2.202   6.452  0.3756 -0.0741 -0.2683
  902YOPE   GL213314   1.496   2.364   6.610 -0.4089  0.2854 -0.0846
  902YOPE   C1A13315   1.155   2.191   6.901 -0.2192 -0.1484  0.1936
  902YOPE   D2A13316   1.027   2.112   7.295  0.1736 -0.1883 -0.2295
  902YOPE   C3A13317   0.936   2.262   7.772  0.0643  0.2052 -0.0612
  902YOPE   C4A13318   0.973   2.364   8.169  0.0824  0.0101 -0.0820
  902YOPE   C1B13319   1.590   2.305   7.111  0.1682  0.0490  0.0824
  902YOPE   C2B13320   1.458   2.359   7.588  0.1617 -0.0160  0.0210
  902YOPE   D3B13321   1.855   2.404   7.821  0.1944  0.2368  0.1154
  902YOPE   C4B13322   1.986   2.538   8.249 -0.0610 -0.0679  0.0048
  903YOPE   NH313323  13.738  14.527   6.000  0.2622  0.1500  0.2487
  903YOPE   PO413324  14.174  14.539   5.898  0.0536  0.0455  0.2217
  903YOPE   GL113325  14.366  14.772   6.282 -0.2054  0.0895 -0.1405
  903YOPE   GL213326  14.731  14.857   6.231  0.2253 -0.0688 -0.2218
  903YOPE   C1A13327  14.275  14.779   6.792 -0.0738 -0.1454  0.1085
  903YOPE   D2A13328  14.090  14.814   7.254 -0.0840  0.1161 -0.0249
  903YOPE   C3A13329  14.095  14.550   7.656  0.3057 -0.2222  0.0363
  903YOPE   C4A13330  13.846  14.212   7.813 -0.2279 -0.1482 -0.1092
  903YOPE   C1B13331  14.840  14.807   6.755  0.1505  0.2458 -0.2218
  903YOPE   C2B13332  14.994  14.689   7.186 -0.4064  0.1146 -0.2568
  903YOPE   D3B13333  14.756  14.473   7.489  0.0787  0.3226  0.3709
  903YOPE   C4B13334  14.765  14.109   7.704 -0.1750  0.0573  0.1651
  904YOPE   NH313335  13.129   5.871   6.452  0.1303  0.2018 -0.0161
  904YOPE   PO413336  12.765   5.766   6.602 -0.1759 -0.1452  0.1821
  904YOPE   GL113337  12.912   5.763   6.961 -0.0326 -0.1646 -0.0523
  904YOPE   GL213338  12.869   6.092   7.046  0.2246  0.2192  0.1960
  904YOPE   C1A13339  13.000   5.724   7.417 -0.0340 -0.0410 -0.2269
  904YOPE   D2A13340  12.833   5.873   7.789 -0.1167  0.0632 -0.0864
  904YOPE   C3A13341  12.680   6.244   7.915  0.0810  0.2396  0.0380
  904YOPE   C4A13342  12.815   6.734   7.992  0.0873 -0.1200 -0.0839
  904YOPE   C1B13343  12.907   6.286   7.433 -0.0241 -0.0670  0.2289
  904YOPE   C2B13344  13.160   6.437   7.830 -0.1138 -0.1166 -0.0634
  904YOPE   D3B13345  13.306   6.502   8.215 -0.1761 -0.0232 -0.2779
  904YOPE   C4B13346  13.589   6.831   8.334 -0.0029  0.0780  0.1325
  905YOPE   NH313347   7.084  14.256   5.835 -0.3854  0.2180  0.1985
  905YOPE   PO413348   6.879  14.666   5.828  0.0398 -0.0250 -0.1149
  905YOPE   GL113349   6.523  14.736   6.125 -0.2820 -0.2553  0.0100
  905YOPE   GL213350   6.168  14.936   6.034  0.2234  0.0452 -0.0413
  905YOPE   C1A13351   6.500  14.620   6.611 -0.3002 -0.5054 -0.2758
  905YOPE   D2A13352   6.448  14.597   7.037 -0.3878 -0.0054 -0.1626
  905YOPE   C3A13353   6.150  14.597   7.371  0.0186  0.0375 -0.0478
  905YOPE   C4A13354   5.770  14.508   7.586  0.1405  0.0239  0.5577
  905YOPE   C1B13355   6.047  15.194   6.362 -0.1549  0.1683 -0.1054
  905YOPE   C2B13356   5.933  15.385   6.742 -0.0108 -0.2387 -0.0047
  905YOPE   D3B13357   5.759  15.391   7.119 -0.2454 -0.2232  0.0801
  905YOPE   C4B13358   5.586  15.434   7.493  0.0700 -0.2963 -0.3179
  906YOPE   NH313359   7.580  15.170   5.605  0.1207 -0.3734 -0.2696
  906YOPE   PO413360   7.367  14.848   5.824 -0.1730  0.0228  0.3609
  906YOPE   GL113361   7.178  15.029   6.222  0.3975 -0.0615  0.0572
  906YOPE   GL213362   6.920  15.081   6.440 -0.3502 -0.0166 -0.0210
  906YOPE   C1A13363   7.321  14.890   6.618  0.0530 -0.0707 -0.0674
  906YOPE   D2A13364   7.413  14.868   7.048  0.0003  0.1620  0.3111
  906YOPE   C3A13365   7.175  14.943   7.458  0.0020  0.1146  0.1004
  906YOPE   C4A13366   6.996  14.791   7.842  0.1003 -0.0151 -0.3016
  906YOPE   C1B13367   7.052  15.295   6.766  0.3279 -0.1184 -0.0759
  906YOPE   C2B13368   6.769  15.521   6.950  0.0483 -0.2398  0.0955
  906YOPE   D3B13369   6.698  16.025   6.945 -0.1625  0.1175 -0.0923
  906YOPE   C4B13370   6.662  16.527   7.065 -0.0201 -0.0996  0.0326
  907YOPE   NH313371   1.646  15.639   6.181 -0.2191 -0.3162  0.0886
  907YOPE   PO413372   1.373  15.284   6.040 -0.0886 -0.0514 -0.1318
  907YOPE   GL113373   1.124  15.018   6.281 -0.2887  0.1114  0.1038
  907YOPE   GL213374   0.736  14.971   6.321 -0.0643  0.2979  0.1753
  907YOPE   C1A13375   1.238  14.744   6.622 -0.0475 -0.2450 -0.1352
  907YOPE   D2A13376   1.610  14.511   6.751  0.1069  0.0231  0.2673
  907YOPE   C3A13377   1.571  14.216   7.172 -0.0457 -0.3437  0.1466
  907YOPE   C4A13378   1.290  14.077   7.426  0.2050  0.2175 -0.0011
  907YOPE   C1B13379   0.694  14.647   6.668 -0.3179  0.0774 -0.0397
  907YOPE   C2B13380   0.751  14.810   7.073  0.0224 -0.0279 -0.0989
  907YOPE   D3B13381   0.562  15.008   7.500 -0.1444 -0.1864 -0.0311
  907YOPE   C4B13382   0.562  14.978   7.899  0.1262 -0.3341 -0.2430
  908YOPE   NH313383   5.092  12.845   5.718 -0.1500  0.1479 -0.0620
  908YOPE   PO413384   5.579  12.660   5.822 -0.3630  0.1030  0.0322
  908YOPE   GL113385   5.799  12.563   6.150 -0.1567 -0.0616  0.0693
  908YOPE   GL213386   5.854  12.251   6.122 -0.2088  0.1034  0.1749
  908YOPE   C1A13387   5.967  12.849   6.424  0.1039  0.0126 -0.1024
  908YOPE   D2A13388   6.173  12.952   6.878 -0.1767 -0.1124 -0.1633
  908YOPE   C3A13389   6.325  13.175   7.138 -0.3628 -0.2278  0.0151
  908YOPE   C4A13390   6.651  13.310   7.244 -0.2433 -0.1316 -0.0508
  908YOPE   C1B13391   5.996  12.310   6.584  0.3607  0.0477 -0.2376
  908YOPE   C2B13392   6.018  12.530   7.057  0.2753  0.1796  0.1012
  908YOPE   D3B13393   6.023  12.364   7.528  0.1846 -0.0980 -0.2405
  908YOPE   C4B13394   5.865  12.181   7.876  0.0674  0.3248 -0.0531
  909YOPE   NH313395   1.644   6.090   6.026  0.2063 -0.1457  0.2109
  909YOPE   PO413396   1.296   5.863   5.929  0.0332  0.0250  0.0426
  909YOPE   GL113397   1.505   5.775   6.341  0.2604 -0.3772 -0.2673
  909YOPE   GL213398   1.825   5.924   6.485 -0.2326 -0.1410 -0.0145
  909YOPE   C1A13399   1.749   5.611   6.804  0.2545 -0.3209  0.1375
  909YOPE   D2A13400   1.736   5.682   7.261  0.0247  0.0731 -0.2643
  909YOPE   C3A13401   1.872   5.388   7.740  0.0972  0.3319  0.1072
  909YOPE   C4A13402   1.939   5.186   8.119 -0.0186  0.0684  0.0539
  909YOPE   C1B13403   1.659   6.028   6.934 -0.0906 -0.2507  0.0389
  909YOPE   C2B13404   1.665   6.165   7.382  0.2979  0.1050  0.2486
  909YOPE   D3B13405   1.933   6.418   7.566 -0.1876 -0.1784  0.1493
  909YOPE   C4B13406   2.077   6.715   7.875  0.4587  0.0514 -0.1532
  910YOPE   NH313407   9.803  13.245   6.052  0.2430 -0.1936  0.1432
  910YOPE   PO413408   9.413  13.224   5.893  0.0305  0.2142  0.0983
  910YOPE   GL113409   9.350  13.060   6.219  0.0131 -0.2639 -0.2822
  910YOPE   GL213410   9.407  13.359   6.401 -0.0860  0.0586 -0.0272
  910YOPE   C1A13411   9.553  12.857   6.597  0.2337 -0.1185  0.0896
  910YOPE   D2A13412   9.566  12.459   6.863  0.1876  0.1930  0.1331
  910YOPE   C3A13413   9.956  12.512   6.898 -0.0689 -0.3197  0.0161
  910YOPE   C4A13414  10.106  12.208   7.161 -0.2952 -0.0830 -0.0902
  910YOPE   C1B13415   9.308  13.241   6.861 -0.0472  0.1014 -0.0375
  910YOPE   C2B13416   9.395  13.498   7.227 -0.1238 -0.1801 -0.1677
  910YOPE   D3B13417   9.472  13.778   7.598 -0.0075 -0.0472  0.1855
  910YOPE   C4B13418   9.610  14.175   7.611 -0.2507 -0.0034  0.1392
  911YOPE   NH313419  12.657   6.667   6.314 -0.1345 -0.0803 -0.0485
  911YOPE   PO413420  12.616   6.246   6.449 -0.2615 -0.0181  0.2278
  911YOPE   GL113421  12.986   6.436   6.672 -0.0013  0.1774  0.0488
  911YOPE   GL213422  13.258   6.273   6.686 -0.0094  0.1774 -0.0990
  911YOPE   C1A13423  13.027   6.665   6.973 -0.3292  0.0836 -0.2201
  911YOPE   D2A13424  13.181   6.709   7.422 -0.2518 -0.0722  0.0936
  911YOPE   C3A13425  13.063   7.092   7.573  0.0414  0.2381 -0.0715
  911YOPE   C4A13426  13.024   7.476   7.455  0.0461 -0.0036 -0.0037
  911YOPE   C1B13427  13.335   6.205   7.134 -0.0239 -0.1434 -0.0472
  911YOPE   C2B13428  13.389   6.075   7.519 -0.0121 -0.4573  0.0412
  911YOPE   D3B13429  13.295   5.988   7.960 -0.0880  0.1119 -0.2065
  911YOPE   C4B13430  13.031   5.948   8.255  0.1865 -0.1927 -0.1223
  912YOPE   NH313431  14.959  12.773   6.049  0.0858 -0.2479 -0.0464
  912YOPE   PO413432  15.190  13.160   6.086 -0.1590  0.0964 -0.2236
  912YOPE   GL113433  15.004  13.005   6.482  0.1820 -0.0292  0.0547
  912YOPE   GL213434  15.007  12.576   6.545  0.0341 -0.1895 -0.3553
  912YOPE   C1A13435  14.904  12.953   6.871 -0.3475 -0.0040 -0.1318
  912YOPE   D2A13436  14.949  12.805   7.360 -0.0559 -0.0575 -0.0401
  912YOPE   C3A13437  14.752  12.785   7.612  0.0577  0.4117  0.0904
  912YOPE   C4A13438  14.784  13.001   8.009 -0.1206  0.1123  0.1881
  912YOPE   C1B13439  15.023  12.465   6.898 -0.2094  0.2166 -0.1974
  912YOPE   C2B13440  14.929  12.337   7.328  0.0107 -0.1803 -0.0466
  912YOPE   D3B13441  15.082  12.311   7.680 -0.2106  0.1462  0.1722
  912YOPE   C4B13442  14.846  12.053   7.996 -0.1209 -0.1690 -0.1018
  913YOPE   NH313443   0.423   9.322   5.660  0.1828  0.2804 -0.5543
  913YOPE   PO413444   0.781   9.520   5.892 -0.4355  0.1080  0.1259
  913YOPE   GL113445   0.790   9.730   6.234 -0.6467 -0.4365 -0.1842
  913YOPE   GL213446   1.055  10.027   6.086  0.1065  0.1718 -0.3327
  913YOPE   C1A13447   0.845   9.823   6.627  0.2269 -0.0996  0.0334
  913YOPE   D2A13448   0.727   9.750   7.129 -0.1674  0.2595 -0.0215
  913YOPE   C3A13449   0.606   9.964   7.548  0.0856 -0.4798 -0.1113
  913YOPE   C4A13450   0.594   9.893   7.923 -0.0623 -0.0878 -0.0407
  913YOPE   C1B13451   1.295   9.885   6.336 -0.1362  0.2188  0.0677
  913YOPE   C2B13452   1.428   9.877   6.824 -0.1920  0.1076 -0.3384
  913YOPE   D3B13453   1.696   9.914   7.158 -0.2093 -0.0664  0.2446
  913YOPE   C4B13454   1.636   9.969   7.469  0.3167  0.1148  0.0205
  914YOPE   NH313455  14.428   8.068   5.960 -0.1780 -0.0322  0.0106
  914YOPE   PO413456  14.693   7.797   5.959 -0.0051  0.2693  0.1623
  914YOPE   GL113457  14.948   8.093   6.170  0.0352 -0.0272 -0.0797
  914YOPE   GL213458  14.745   8.421   6.384 -0.2882  0.1158 -0.1014
  914YOPE   C1A13459  15.147   8.128   6.567  0.0428 -0.0938  0.1119
  914YOPE   D2A13460  15.199   8.342   6.981 -0.1336  0.1198 -0.0674
  914YOPE   C3A13461  15.295   8.319   7.375  0.0252 -0.1597 -0.2803
  914YOPE   C4A13462  15.466   8.291   7.778 -0.2656 -0.2342 -0.1369
  914YOPE   C1B13463  14.930   8.677   6.719  0.3791 -0.0498  0.1132
  914YOPE   C2B13464  14.965   8.738   7.095  0.4119  0.1396 -0.1178
  914YOPE   D3B13465  14.722   8.859   7.462 -0.0524  0.3475  0.1516
  914YOPE   C4B13466  14.684   8.904   7.880  0.0759 -0.1476 -0.0679
  915YOPE   NH313467  15.232  15.584   5.931 -0.3058 -0.4219  0.0383
  915YOPE   PO413468  15.360  16.018   6.102  0.2085 -0.1244 -0.0626
  915YOPE   GL113469  15.089  16.124   6.512 -0.2206  0.2174 -0.1654
  915YOPE   GL213470  14.773  16.104   6.668 -0.0342 -0.1885 -0.0922
  915YOPE   C1A13471  15.234  15.993   6.828  0.1962  0.2109 -0.0220
  915YOPE   D2A13472  15.464  15.972   7.146 -0.0159 -0.1020 -0.0593
  915YOPE   C3A13473  15.357  16.218   7.590  0.3303 -0.2769  0.0723
  915YOPE   C4A13474  15.599  16.242   8.017  0.1325 -0.0296 -0.0819
  915YOPE   C1B13475  14.820  16.210   7.084 -0.2018 -0.3646  0.1050
  915YOPE   C2B13476  14.858  15.976   7.470  0.2472 -0.1182  0.1254
  915YOPE   D3B13477  14.716  15.938   7.822 -0.2768  0.0465 -0.1489
  915YOPE   C4B13478  14.508  15.760   8.160 -0.0633  0.1597 -0.0577
  916YOPE   NH313479   2.857  15.193   5.930 -0.1848 -0.3142 -0.2192
  916YOPE   PO413480   2.673  15.511   5.926 -0.3754  0.0521  0.3416
  916YOPE   GL113481   2.742  15.510   6.325 -0.4860  0.1905  0.1074
  916YOPE   GL213482   2.498  15.634   6.489 -0.0637 -0.3869  0.0593
  916YOPE   C1A13483   2.689  15.078   6.603  0.1487 -0.1974 -0.2809
  916YOPE   D2A13484   2.764  15.002   6.985 -0.1841  0.4038  0.0275
  916YOPE   C3A13485   2.729  15.176   7.368 -0.0120  0.1741  0.2240
  916YOPE   C4A13486   2.849  15.008   7.783 -0.0502  0.1827 -0.1995
  916YOPE   C1B13487   2.900  15.457   6.817  0.0067 -0.0210  0.0697
  916YOPE   C2B13488   3.231  15.131   6.920 -0.1967 -0.3914  0.0367
  916YOPE   D3B13489   3.727  15.159   6.987  0.1266  0.1851  0.0513
  916YOPE   C4B13490   4.097  15.010   6.764 -0.0592 -0.2771  0.0872
  917YOPE   NH313491  16.022  17.095   6.142 -0.0221  0.1098 -0.2149
  917YOPE   PO413492  16.383  17.066   6.272  0.2220  0.1116  0.2157
  917YOPE   GL113493  16.170  17.159   6.636 -0.1263 -0.0560 -0.0256
  917YOPE   GL213494  16.241  17.404   6.903 -0.1064  0.1611 -0.2080
  917YOPE   C1A13495  15.913  16.983   6.954 -0.1902 -0.1035 -0.1135
  917YOPE   D2A13496  15.907  16.784   7.479 -0.1562  0.1510  0.2498
  917YOPE   C3A13497  16.298  16.904   7.713 -0.0596 -0.0957 -0.1432
  917YOPE   C4A13498  16.545  17.095   7.974  0.1952 -0.0305  0.1214
  917YOPE   C1B13499  16.157  17.226   7.378 -0.1100 -0.3665 -0.0736
  917YOPE   C2B13500  16.166  17.423   7.758  0.0366 -0.0821 -0.1075
  917YOPE   D3B13501  16.366  17.529   8.183  0.2321  0.1885 -0.1564
  917YOPE   C4B13502  16.683  17.552   8.435 -0.0883 -0.1367  0.3323
  918YOPE   NH313503   2.875  16.564   6.295 -0.0984 -0.4124  0.1611
  918YOPE   PO413504   2.952  16.270   6.139 -0.0687 -0.2140 -0.0575
  918YOPE   GL113505   2.865  16.165   6.587  0.0524  0.0462 -0.1932
  918YOPE   GL213506   2.597  16.300   6.598  0.3458 -0.1810 -0.3172
  918YOPE   C1A13507   3.177  16.015   6.826  0.1970  0.1132  0.3063
  918YOPE   D2A13508   3.284  16.012   7.287 -0.1250 -0.2149 -0.0245
  918YOPE   C3A13509   3.300  16.244   7.650 -0.0776 -0.2095  0.2459
  918YOPE   C4A13510   3.409  16.560   7.932  0.0919  0.0798  0.0122
  918YOPE   C1B13511   2.460  16.513   6.946 -0.0523 -0.0991 -0.2458
  918YOPE   C2B13512   2.411  16.691   7.359  0.2316 -0.0946 -0.1024
  918YOPE   D3B13513   2.332  16.467   7.701  0.1691 -0.1630  0.3207
  918YOPE   C4B13514   2.530  16.428   8.124 -0.0346 -0.2472  0.0617
  919YOPE   NH313515   2.015  17.772   6.117 -0.1978  0.1325 -0.1584
  919YOPE   PO413516   1.624  17.478   5.997 -0.3085  0.2134 -0.4571
  919YOPE   GL113517   1.619  17.549   6.395  0.0777  0.0271  0.0664
  919YOPE   GL213518   1.354  17.523   6.449  0.0792  0.0397  0.2627
  919YOPE   C1A13519   1.600  17.693   6.886 -0.0367 -0.1711 -0.2102
  919YOPE   D2A13520   1.639  17.874   7.332 -0.2027  0.0365 -0.1435
  919YOPE   C3A13521   1.331  18.021   7.484 -0.0816 -0.1186  0.0383
  919YOPE   C4A13522   1.149  17.921   7.972  0.1966  0.2346  0.1858
  919YOPE   C1B13523   1.192  17.445   6.821 -0.0283  0.0555  0.0915
  919YOPE   C2B13524   1.246  17.564   7.262 -0.0663  0.2887  0.0541
  919YOPE   D3B13525   1.361  17.422   7.619  0.0126  0.1671  0.1505
  919YOPE   C4B13526   1.520  17.140   7.968  0.0593  0.0203  0.0727
  920YOPE   NH313527  10.699  10.072   6.236 -0.0516  0.2028  0.1902
  920YOPE   PO413528  10.667  10.527   6.171 -0.2289  0.1080 -0.2472
  920YOPE   GL113529  10.557  10.715   6.465 -0.1169  0.2323 -0.1982
  920YOPE   GL213530  10.917  10.886   6.506  0.2796 -0.2865 -0.1851
  920YOPE   C1A13531  10.468  10.735   6.969 -0.4740  0.0033 -0.3737
  920YOPE   D2A13532  10.498  10.756   7.412 -0.3857 -0.0313  0.0103
  920YOPE   C3A13533  10.325  10.464   7.697 -0.2661 -0.2301 -0.0667
  920YOPE   C4A13534  10.124  10.606   8.143  0.2027  0.0620 -0.2577
  920YOPE   C1B13535  11.032  10.614   6.824  0.0844 -0.1862 -0.1354
  920YOPE   C2B13536  10.919  10.175   6.857  0.0469  0.0514 -0.2401
  920YOPE   D3B13537  10.665   9.984   7.191 -0.0309  0.1510  0.2526
  920YOPE   C4B13538  10.445   9.991   7.560 -0.0389  0.0557  0.1150
  921YOPE   NH313539  14.404  15.726   6.076  0.3024 -0.2308 -0.1402
  921YOPE   PO413540  14.750  15.618   5.880  0.1108 -0.2702 -0.1381
  921YOPE   GL113541  14.869  15.384   6.238  0.0609  0.3206  0.3368
  921YOPE   GL213542  14.907  15.637   6.384  0.0044 -0.1776 -0.0962
  921YOPE   C1A13543  15.092  15.171   6.531 -0.2548  0.0574 -0.2598
  921YOPE   D2A13544  15.240  15.268   6.962  0.0871 -0.0551  0.0613
  921YOPE   C3A13545  15.018  15.142   7.364  0.2990 -0.1664  0.2316
  921YOPE   C4A13546  14.930  14.883   7.684  0.0449  0.1394 -0.0118
  921YOPE   C1B13547  14.948  15.582   6.792  0.0287 -0.1513 -0.2355
  921YOPE   C2B13548  15.067  15.651   7.201 -0.3673  0.0063  0.1806
  921YOPE   D3B13549  15.158  15.645   7.634  0.2832  0.0591  0.0636
  921YOPE   C4B13550  15.173  15.819   8.031 -0.2366  0.0852  0.1533
  922YOPE   NH313551  16.315  14.266   6.110  0.2048  0.2197  0.0071
  922YOPE   PO413552  16.378  14.843   6.001  0.2085 -0.0029  0.0297
  922YOPE   GL113553  16.581  14.989   6.299  0.2284 -0.0416  0.1101
  922YOPE   GL213554  16.651  15.339   6.379 -0.1028 -0.0179  0.1428
  922YOPE   C1A13555  16.580  15.042   6.759 -0.1695 -0.2055 -0.4247
  922YOPE   D2A13556  16.683  15.249   7.146 -0.1851 -0.1611  0.1896
  922YOPE   C3A13557  16.891  15.690   7.135  0.0940 -0.1545 -0.2244
  922YOPE   C4A13558  16.917  15.893   6.712  0.0433 -0.1000  0.0322
  922YOPE   C1B13559  16.866  15.426   6.651 -0.0511  0.1688 -0.1319
  922YOPE   C2B13560  17.192  15.265   7.008 -0.1439 -0.0218 -0.0939
  922YOPE   D3B13561  17.101  15.077   7.400 -0.1542 -0.0710  0.0006
  922YOPE   C4B13562  16.830  14.951   7.691  0.1013 -0.1770 -0.4075
  923YOPE   NH313563   7.706   3.084   5.258 -0.1806  0.3785 -0.0719
  923YOPE   PO413564   7.601   3.201   5.665 -0.2076 -0.0010 -0.1067
  923YOPE   GL113565   7.366   3.122   6.125  0.1099  0.1942 -0.2538
  923YOPE   GL213566   7.107   2.803   6.149 -0.1331 -0.3320 -0.2220
  923YOPE   C1A13567   7.214   3.161   6.568  0.1080 -0.1627 -0.0681
  923YOPE   D2A13568   7.279   3.008   7.004 -0.0218 -0.1146 -0.2362
  923YOPE   C3A13569   7.489   3.087   7.396 -0.0834  0.3214  0.1824
  923YOPE   C4A13570   7.711   2.817   7.623 -0.1758  0.1187 -0.1297
  923YOPE   C1B13571   6.911   2.413   6.275  0.1361  0.0085 -0.4953
  923YOPE   C2B13572   6.851   2.095   6.707 -0.2540 -0.2117  0.0062
  923YOPE   D3B13573   6.689   1.946   7.157  0.0492  0.0542 -0.0355
  923YOPE   C4B13574   6.667   1.737   7.575  0.1613 -0.0301  0.1118
  924YOPE   NH313575  15.711   0.914   5.932  0.0937  0.0855  0.1359
  924YOPE   PO413576  16.083   0.827   6.164  0.1440 -0.3295  0.0237
  924YOPE   GL113577  15.872   0.870   6.501  0.0720  0.1890  0.0661
  924YOPE   GL213578  15.979   1.137   6.636 -0.2241 -0.0491 -0.4200
  924YOPE   C1A13579  15.843   0.701   6.934 -0.0583  0.4330  0.1918
  924YOPE   D2A13580  15.818   0.529   7.328  0.2783  0.2067  0.1922
  924YOPE   C3A13581  15.864   0.140   7.569 -0.0304  0.4165  0.0678
  924YOPE   C4A13582  15.705  -0.315   7.702  0.1480  0.1120 -0.3393
  924YOPE   C1B13583  16.053   1.187   6.985  0.0758  0.2272  0.1275
  924YOPE   C2B13584  16.087   1.252   7.413 -0.1179 -0.0924 -0.0462
  924YOPE   D3B13585  16.229   1.128   7.868  0.1371  0.2380  0.0502
  924YOPE   C4B13586  16.042   0.728   8.141  0.0608  0.0404  0.2823
  925YOPE   NH313587   1.131  12.827   5.214  0.2943 -0.1476 -0.0009
  925YOPE   PO413588   1.589  12.874   5.097  0.1623  0.2099  0.1547
  925YOPE   GL113589   1.681  12.724   5.460 -0.0771 -0.1678  0.1641
  925YOPE   GL213590   1.610  12.998   5.604 -0.4002  0.2700  0.1958
  925YOPE   C1A13591   1.684  12.365   5.780  0.3097  0.2078  0.1626
  925YOPE   D2A13592   1.580  12.029   6.195  0.2864 -0.1658  0.0676
  925YOPE   C3A13593   1.457  12.019   6.669  0.1990 -0.1870  0.0106
  925YOPE   C4A13594   1.342  12.236   6.902  0.2106 -0.0352  0.2723
  925YOPE   C1B13595   1.510  12.888   5.994 -0.2633 -0.1648  0.0716
  925YOPE   C2B13596   1.664  13.037   6.311 -0.2992  0.1236 -0.0625
  925YOPE   D3B13597   1.819  13.012   6.661  0.0021 -0.1165 -0.2555
  925YOPE   C4B13598   1.904  12.960   7.081 -0.0864  0.4846  0.2683
  926YOPE   NH313599  11.542  11.129   5.601 -0.0121  0.1069 -0.0214
  926YOPE   PO413600  11.588  11.103   5.993 -0.2424 -0.0728 -0.6046
  926YOPE   GL113601  11.637  11.233   6.463 -0.1779 -0.1134 -0.0098
  926YOPE   GL213602  11.355  11.098   6.546 -0.0701 -0.0542 -0.0728
  926YOPE   C1A13603  11.755  11.557   6.841  0.1856  0.4413  0.1004
  926YOPE   D2A13604  11.761  11.661   7.377 -0.0474 -0.0935  0.0296
  926YOPE   C3A13605  11.995  11.351   7.504  0.0780 -0.0704  0.2202
  926YOPE   C4A13606  11.756  11.084   7.699 -0.0200 -0.0617  0.2939
  926YOPE   C1B13607  11.176  11.213   6.920  0.0178  0.0583 -0.0144
  926YOPE   C2B13608  11.002  10.991   7.266  0.0081 -0.0137 -0.0001
  926YOPE   D3B13609  10.895  10.842   7.667  0.0107 -0.2080 -0.1339
  926YOPE   C4B13610  10.932  10.811   8.071 -0.0703 -0.0002  0.1538
  927YOPE   NH313611  10.616  10.994   6.053 -0.4128 -0.0915  0.0185
  927YOPE   PO413612  10.241  11.299   6.191  0.0926 -0.1889 -0.0190
  927YOPE   GL113613  10.390  11.134   6.476 -0.1309 -0.1056 -0.1126
  927YOPE   GL213614  10.205  11.102   6.738  0.0305  0.0064  0.0365
  927YOPE   C1A13615  10.698  11.170   6.911 -0.0147  0.0138 -0.0754
  927YOPE   D2A13616  10.785  11.476   7.176  0.0113  0.1815  0.0744
  927YOPE   C3A13617  10.799  11.399   7.572 -0.1443  0.0415 -0.1815
  927YOPE   C4A13618  10.795  11.324   7.973  0.2409 -0.0577 -0.1023
  927YOPE   C1B13619  10.301  11.197   7.207  0.0543 -0.2034  0.1043
  927YOPE   C2B13620  10.156  11.246   7.595  0.1510 -0.1746  0.2980
  927YOPE   D3B13621   9.878  10.962   7.793  0.0229 -0.1601 -0.1290
  927YOPE   C4B13622   9.591  10.914   8.216  0.0339 -0.1482 -0.1254
  928YOPE   NH313623   3.673   5.409   6.071  0.1041  0.0247  0.3586
  928YOPE   PO413624   4.065   5.311   6.075  0.0458  0.3491 -0.0604
  928YOPE   GL113625   3.979   5.414   6.455  0.0057 -0.1584 -0.3144
  928YOPE   GL213626   3.717   5.419   6.575 -0.0194 -0.2630 -0.4428
  928YOPE   C1A13627   4.000   5.217   6.939  0.0009  0.1025  0.1036
  928YOPE   D2A13628   4.160   4.875   7.066 -0.0735  0.0975 -0.3584
  928YOPE   C3A13629   4.090   4.710   7.470 -0.0069  0.3240 -0.0606
  928YOPE   C4A13630   4.047   4.545   7.872 -0.0261 -0.1971  0.1284
  928YOPE   C1B13631   3.748   5.763   6.944 -0.0025  0.0485 -0.2508
  928YOPE   C2B13632   3.837   5.798   7.327 -0.0266  0.5937 -0.0541
  928YOPE   D3B13633   3.949   5.836   7.731 -0.0236  0.2814 -0.0519
  928YOPE   C4B13634   4.162   5.886   8.200 -0.0387  0.2560  0.3099
  929YOPE   NH313635   3.436   1.830   5.731  0.1459 -0.2390 -0.3256
  929YOPE   PO413636   3.360   1.480   5.902 -0.2954 -0.1086 -0.0516
  929YOPE   GL113637   3.139   1.755   6.191 -0.1043 -0.0830 -0.2695
  929YOPE   GL213638   3.304   1.652   6.387  0.0471 -0.1115 -0.0791
  929YOPE   C1A13639   2.886   1.585   6.533 -0.2534  0.1093 -0.0414
  929YOPE   D2A13640   2.897   1.313   6.889 -0.2610 -0.2711 -0.1991
  929YOPE   C3A13641   2.871   1.311   7.249 -0.0294 -0.0930 -0.0989
  929YOPE   C4A13642   2.790   1.040   7.612  0.1663 -0.1914 -0.0306
  929YOPE   C1B13643   3.322   1.714   6.807  0.0411  0.0539 -0.0869
  929YOPE   C2B13644   3.390   1.531   7.125  0.1063 -0.1596 -0.0798
  929YOPE   D3B13645   3.442   1.633   7.508 -0.2040 -0.0842 -0.0097
  929YOPE   C4B13646   3.672   1.419   7.795 -0.3106 -0.1961  0.0006
  930YOPE   NH313647   9.898   3.982   6.092 -0.2270 -0.3589 -0.1100
  930YOPE   PO413648   9.513   3.774   6.120 -0.0583  0.0449  0.0288
  930YOPE   GL113649   9.466   3.924   6.392  0.1486 -0.0708  0.2907
  930YOPE   GL213650   9.400   4.192   6.427 -0.0895  0.0117 -0.0233
  930YOPE   C1A13651   9.499   3.823   6.812  0.1820 -0.0034 -0.4396
  930YOPE   D2A13652   9.677   3.839   7.262  0.2887  0.2790 -0.0282
  930YOPE   C3A13653   9.872   3.528   7.364  0.0431  0.1196  0.2246
  930YOPE   C4A13654   9.900   3.184   7.157 -0.1385 -0.2342 -0.1570
  930YOPE   C1B13655   9.481   4.337   6.820  0.0260  0.0024 -0.0564
  930YOPE   C2B13656   9.763   4.319   7.288  0.0842  0.0798  0.2279
  930YOPE   D3B13657   9.836   4.335   7.738 -0.0531 -0.1630 -0.2354
  930YOPE   C4B13658  10.205   4.472   8.032  0.1930 -0.4086 -0.0777
  931YOPE   NH313659  17.471  16.980   6.248 -0.0280 -0.0164 -0.1882
  931YOPE   PO413660  17.579  16.562   6.240  0.0859  0.0639  0.0041
  931YOPE   GL113661  17.574  16.723   6.675 -0.1375  0.0838  0.0616
  931YOPE   GL213662  17.240  16.841   6.667 -0.0693  0.2248  0.1802
  931YOPE   C1A13663  17.634  16.719   7.157  0.3176  0.1808  0.0870
  931YOPE   D2A13664  17.852  16.736   7.471  0.3465  0.2608 -0.1962
  931YOPE   C3A13665  17.807  16.652   7.891  0.0587 -0.1768  0.2330
  931YOPE   C4A13666  17.862  16.291   8.146 -0.1950  0.2658  0.0642
  931YOPE   C1B13667  17.226  17.095   7.039  0.0626  0.0743 -0.1496
  931YOPE   C2B13668  17.090  17.196   7.383  0.0435 -0.0518 -0.2458
  931YOPE   D3B13669  17.032  17.495   7.717 -0.4396  0.2466  0.0359
  931YOPE   C4B13670  17.118  17.667   8.016  0.2499  0.0483  0.3371
  932YOPE   NH313671   3.344   0.977   5.990 -0.0725  0.1417  0.1208
  932YOPE   PO413672   3.514   0.578   5.814  0.0761 -0.0018 -0.2273
  932YOPE   GL113673   3.599   0.622   6.269  0.2128 -0.1164 -0.1308
  932YOPE   GL213674   3.748   0.306   6.358 -0.0834  0.1676  0.0069
  932YOPE   C1A13675   3.904   0.730   6.493  0.3606  0.1570  0.3273
  932YOPE   D2A13676   4.209   0.952   6.674  0.0551  0.0575 -0.1258
  932YOPE   C3A13677   4.169   1.408   6.737  0.0104 -0.2466  0.1963
  932YOPE   C4A13678   3.746   1.535   6.664 -0.0356 -0.0510  0.1791
  932YOPE   C1B13679   3.485   0.188   6.695 -0.0254 -0.1484  0.1235
  932YOPE   C2B13680   3.319   0.344   7.125  0.0180  0.0859  0.0905
  932YOPE   D3B13681   3.136   0.329   7.396 -0.0036  0.0982  0.2101
  932YOPE   C4B13682   2.841   0.480   7.559  0.1677  0.2874 -0.2678
  933YOPE   NH313683   9.127   9.944   5.879  0.0455 -0.3525 -0.0242
  933YOPE   PO413684   9.611   9.913   5.934 -0.0473  0.0841 -0.2763
  933YOPE   GL113685   9.699   9.817   6.371 -0.0389  0.1708 -0.1445
  933YOPE   GL213686   9.407   9.849   6.481  0.2320 -0.2962  0.1548
  933YOPE   C1A13687   9.878   9.530   6.742  0.0500 -0.1150 -0.2406
  933YOPE   D2A13688   9.924   9.306   7.069  0.2084  0.0150  0.0658
  933YOPE   C3A13689   9.571   9.397   7.453 -0.2318  0.1093 -0.0918
  933YOPE   C4A13690   9.171   9.446   7.568  0.0878 -0.1058  0.3802
  933YOPE   C1B13691   9.483   9.830   6.903  0.1918  0.0142  0.5274
  933YOPE   C2B13692   9.433   9.857   7.291 -0.0656  0.2935  0.1006
  933YOPE   D3B13693   9.536   9.816   7.738 -0.1751 -0.2289  0.3774
  933YOPE   C4B13694   9.550   9.600   8.148 -0.2798  0.1081  0.1019
  934YOPE   NH313695  17.767   1.761   5.982 -0.1241 -0.2769  0.4392
  934YOPE   PO413696  17.738   1.386   6.065 -0.3078  0.1093 -0.0690
  934YOPE   GL113697  17.716   1.432   6.477 -0.0301  0.3605 -0.0995
  934YOPE   GL213698  17.511   1.615   6.560 -0.1173 -0.3042 -0.0162
  934YOPE   C1A13699  17.976   1.477   6.884  0.2389  0.0833  0.0520
  934YOPE   D2A13700  18.198   1.771   7.165  0.0330 -0.0576  0.2768
  934YOPE   C3A13701  18.192   1.809   7.543 -0.0104 -0.1187 -0.2841
  934YOPE   C4A13702  18.245   1.530   7.844  0.1813  0.2067 -0.1695
  934YOPE   C1B13703  17.498   1.448   6.969 -0.1058  0.3358  0.0799
  934YOPE   C2B13704  17.554   1.454   7.382  0.2028  0.1917 -0.4726
  934YOPE   D3B13705  17.725   1.539   7.809  0.1208 -0.0772 -0.2539
  934YOPE   C4B13706  17.899   1.405   8.198 -0.0465 -0.0916 -0.1798
  935YOPE   NH313707  13.499   2.375   6.392 -0.1424  0.0096  0.0723
  935YOPE   PO413708  13.795   2.034   6.218 -0.0626  0.0527  0.0273
  935YOPE   GL113709  14.000   2.343   6.564  0.0535  0.0153  0.2224
  935YOPE   GL213710  13.962   2.665   6.481 -0.2604  0.4062 -0.1481
  935YOPE   C1A13711  14.133   2.395   6.948  0.0933  0.2039  0.2374
  935YOPE   D2A13712  14.419   2.348   7.412  0.0604 -0.0076  0.1807
  935YOPE   C3A13713  14.358   2.507   7.819 -0.0395  0.0493  0.0748
  935YOPE   C4A13714  14.244   2.375   8.171 -0.0442 -0.4393 -0.2580
  935YOPE   C1B13715  13.943   3.009   6.848  0.0630  0.2633  0.0366
  935YOPE   C2B13716  14.160   3.314   7.166 -0.0738 -0.2699 -0.1976
  935YOPE   D3B13717  14.157   3.515   7.575 -0.0041  0.0003  0.0663
  935YOPE   C4B13718  14.244   3.504   8.029  0.1115  0.0252 -0.4198
  936YOPE   NH313719  15.085   4.110   5.688 -0.0138  0.1078  0.1147
  936YOPE   PO413720  15.477   3.986   5.659 -0.0979 -0.0357  0.3173
  936YOPE   GL113721  15.668   4.279   5.987  0.0670 -0.0816  0.2247
  936YOPE   GL213722  15.473   4.380   6.098  0.0693 -0.1047  0.2300
  936YOPE   C1A13723  15.845   4.180   6.488  0.0379 -0.3124  0.0077
  936YOPE   D2A13724  15.797   4.086   6.970 -0.0016  0.0291 -0.0852
  936YOPE   C3A13725  15.687   3.888   7.313 -0.1602 -0.2909 -0.0585
  936YOPE   C4A13726  15.421   3.858   7.732 -0.2519  0.0454  0.0658
  936YOPE   C1B13727  15.463   4.460   6.535 -0.2062 -0.1365  0.0173
  936YOPE   C2B13728  15.435   4.456   6.967 -0.0128 -0.3379 -0.2841
  936YOPE   D3B13729  15.267   4.188   7.229  0.0227 -0.3676 -0.0402
  936YOPE   C4B13730  15.214   4.277   7.690 -0.1835  0.1476  0.3426
  937YOPE   NH313731  10.933  11.805   6.223 -0.1695  0.0219 -0.0694
  937YOPE   PO413732  10.832  11.368   6.279  0.1397 -0.0706  0.1394
  937YOPE   GL113733  10.571  11.587   6.514 -0.0167  0.0390 -0.1137
  937YOPE   GL213734  10.715  11.661   6.760  0.0169  0.0906  0.0565
  937YOPE   C1A13735  10.352  11.939   6.620  0.1075 -0.0109  0.1970
  937YOPE   D2A13736  10.016  12.066   6.687  0.1212  0.0290 -0.3359
  937YOPE   C3A13737   9.714  11.919   6.817  0.1973 -0.2264 -0.0620
  937YOPE   C4A13738   9.291  12.038   6.933 -0.1106  0.5786 -0.2145
  937YOPE   C1B13739  10.561  11.962   7.087  0.0312 -0.2934 -0.2243
  937YOPE   C2B13740  10.508  12.297   7.447  0.1087 -0.1126  0.2932
  937YOPE   D3B13741  10.380  12.596   7.669  0.1482 -0.0648  0.0764
  937YOPE   C4B13742  10.224  12.727   7.984 -0.0300  0.3283  0.5368
  938YOPE   NH313743  12.502   4.474   6.031  0.0255 -0.0680 -0.2645
  938YOPE   PO413744  12.552   4.174   6.353 -0.0617  0.0122 -0.1268
  938YOPE   GL113745  12.383   4.249   6.655 -0.3087 -0.2279  0.0168
  938YOPE   GL213746  12.100   4.179   6.774  0.3185  0.2339 -0.0632
  938YOPE   C1A13747  12.546   4.339   7.016 -0.1329  0.0519 -0.0627
  938YOPE   D2A13748  12.621   4.563   7.372  0.1147  0.2957  0.1349
  938YOPE   C3A13749  12.544   4.465   7.745  0.1416 -0.1357  0.0739
  938YOPE   C4A13750  12.565   4.027   7.954  0.0512  0.1763  0.0713
  938YOPE   C1B13751  12.107   3.972   7.179  0.0355  0.1178  0.1877
  938YOPE   C2B13752  12.230   4.144   7.573  0.2672 -0.0880  0.1085
  938YOPE   D3B13753  12.055   4.077   7.908 -0.0164  0.1430  0.0046
  938YOPE   C4B13754  11.949   3.721   8.235  0.3384  0.2770  0.2930
  939YOPE   NH313755  10.577   4.507   5.686 -0.1346 -0.0083  0.2241
  939YOPE   PO413756  10.242   4.710   6.030  0.1588  0.1661 -0.1951
  939YOPE   GL113757  10.319   4.772   6.425 -0.1683  0.0412 -0.0850
  939YOPE   GL213758  10.671   4.556   6.444  0.1284 -0.0602  0.1176
  939YOPE   C1A13759  10.212   5.007   6.796  0.1126 -0.0582  0.0313
  939YOPE   D2A13760  10.054   5.094   7.209 -0.2597  0.1406 -0.0735
  939YOPE   C3A13761   9.785   4.864   7.576  0.1940 -0.0233 -0.1163
  939YOPE   C4A13762   9.421   4.661   7.711 -0.4063 -0.0066 -0.0090
  939YOPE   C1B13763  10.732   4.837   6.706  0.1577 -0.0786  0.1027
  939YOPE   C2B13764  10.736   4.961   7.022  0.3256 -0.1447  0.0451
  939YOPE   D3B13765  10.572   5.206   7.295  0.2787 -0.0567  0.3670
  939YOPE   C4B13766  10.703   5.236   7.664  0.3932 -0.2992 -0.1368
  940YOPE   NH313767  17.092  14.011   5.910 -0.1793 -0.1099 -0.3303
  940YOPE   PO413768  16.698  13.878   6.019  0.1671 -0.2342 -0.3788
  940YOPE   GL113769  16.838  14.006   6.364  0.0288  0.0025 -0.1152
  940YOPE   GL213770  16.563  14.134   6.492  0.1188  0.0176  0.2510
  940YOPE   C1A13771  16.964  14.021   6.763 -0.0165  0.2125  0.2844
  940YOPE   D2A13772  16.870  14.096   7.129 -0.0302 -0.1607  0.0644
  940YOPE   C3A13773  16.589  13.799   7.301 -0.2256  0.2307  0.2519
  940YOPE   C4A13774  16.576  13.578   7.675 -0.0256  0.3741 -0.2481
  940YOPE   C1B13775  16.400  14.033   6.860 -0.1561  0.0516  0.0165
  940YOPE   C2B13776  16.345  14.217   7.281 -0.0189  0.3057 -0.0356
  940YOPE   D3B13777  16.093  14.413   7.547 -0.0837  0.1707  0.0630
  940YOPE   C4B13778  15.833  14.428   7.908 -0.1702 -0.0867 -0.0321
  941POPC   NC313779  12.383  10.171   5.961 -0.1313 -0.1324 -0.2222
  941POPC   PO413780  11.957  10.397   6.067  0.0282  0.0117  0.0748
  941POPC   GL113781  12.041  10.576   6.417  0.3558 -0.1491  0.2161
  941POPC   GL213782  11.950  10.861   6.577 -0.1247 -0.1072 -0.2935
  941POPC   C1A13783  12.099  10.563   6.949  0.0663  0.3854  0.1406
  941POPC   D2A13784  12.441  10.401   7.293  0.1382  0.0625 -0.1676
  941POPC   C3A13785  12.671  10.717   7.564 -0.0715  0.1197 -0.0688
  941POPC   C4A13786  12.729  10.766   8.006  0.0016 -0.0545 -0.0940
  941POPC   C1B13787  11.888  11.007   6.996  0.1767  0.1963 -0.2069
  941POPC   C2B13788  11.562  11.198   7.234  0.0064  0.2045 -0.2936
  941POPC   C3B13789  11.315  11.301   7.516 -0.0726  0.1330 -0.1490
  941POPC   C4B13790  11.241  11.218   7.935  0.0484  0.0887  0.1009
  942POPC   NC313791  17.364   7.590   5.827  0.1999  0.1776  0.1492
  942POPC   PO413792  17.130   7.285   5.913 -0.1243  0.1758 -0.2769
  942POPC   GL113793  17.340   7.388   6.296 -0.0372 -0.3464  0.3002
  942POPC   GL213794  17.602   7.165   6.218  0.0207  0.2177 -0.1929
  942POPC   C1A13795  17.501   7.533   6.634 -0.4400  0.2029  0.0274
  942POPC   D2A13796  17.418   7.967   6.901 -0.1442  0.0056 -0.1370
  942POPC   C3A13797  17.637   8.347   6.805 -0.0275 -0.0006  0.1176
  942POPC   C4A13798  17.799   8.503   6.467  0.0961 -0.0915 -0.0075
  942POPC   C1B13799  17.658   7.022   6.579  0.3064 -0.0223  0.1811
  942POPC   C2B13800  17.770   6.682   6.796 -0.2714  0.0396 -0.2250
  942POPC   C3B13801  17.734   6.736   7.241 -0.0257  0.1050  0.0331
  942POPC   C4B13802  17.387   6.827   7.555 -0.1733 -0.2716  0.0614
  943POPC   NC313803   5.760   2.650   5.423 -0.1331 -0.0547  0.0539
  943POPC   PO413804   5.608   3.000   5.621  0.1125  0.0480  0.1766
  943POPC   GL113805   5.656   3.009   6.089  0.0700  0.3798  0.2809
  943POPC   GL213806   5.360   2.932   6.242 -0.1553 -0.0158  0.2870
  943POPC   C1A13807   5.763   3.245   6.495  0.1163  0.0326 -0.0133
  943POPC   D2A13808   5.851   3.166   6.947  0.2152 -0.2015 -0.0258
  943POPC   C3A13809   5.813   2.982   7.258  0.1771 -0.0345  0.0940
  943POPC   C4A13810   5.721   2.687   7.619  0.0564 -0.1439 -0.2573
  943POPC   C1B13811   5.260   3.055   6.748 -0.1692 -0.0350 -0.1538
  943POPC   C2B13812   5.108   3.115   7.178  0.2801  0.2174 -0.0210
  943POPC   C3B13813   4.949   2.821   7.537 -0.1600 -0.1063 -0.5375
  943POPC   C4B13814   4.975   2.876   8.004  0.2047 -0.2782  0.1025
  944POPC   NC313815   5.769   0.880   5.690  0.1289 -0.4311  0.0031
  944POPC   PO413816   6.027   1.277   5.492  0.1584  0.0042  0.1472
  944POPC   GL113817   6.035   1.470   6.000 -0.1328  0.2903 -0.0612
  944POPC   GL213818   6.289   1.541   5.926 -0.1173 -0.0610  0.0589
  944POPC   C1A13819   5.950   1.436   6.427 -0.0695 -0.2035  0.1752
  944POPC   D2A13820   5.948   1.398   6.817  0.2865  0.0216 -0.1522
  944POPC   C3A13821   5.749   1.409   7.145  0.0272  0.0455 -0.0629
  944POPC   C4A13822   5.678   1.606   7.436 -0.0481  0.1344 -0.0484
  944POPC   C1B13823   6.388   1.647   6.347 -0.1453 -0.0316  0.1970
  944POPC   C2B13824   6.413   1.693   6.823  0.0929 -0.1667 -0.0485
  944POPC   C3B13825   6.263   1.559   7.269  0.0988  0.0905  0.2633
  944POPC   C4B13826   6.094   1.391   7.688 -0.3517 -0.0489  0.2563
  945POPC   NC313827   9.854  15.261   5.822  0.0200 -0.0400  0.0923
  945POPC   PO413828  10.101  14.908   5.910 -0.0303 -0.0844  0.1380
  945POPC   GL113829   9.861  14.954   6.380  0.1481 -0.0790 -0.0529
  945POPC   GL213830   9.849  15.275   6.322  0.0847 -0.2374  0.1284
  945POPC   C1A13831  10.008  14.964   6.820  0.1253  0.0858  0.1058
  945POPC   D2A13832  10.230  15.038   7.163  0.1059  0.1325 -0.0068
  945POPC   C3A13833  10.297  14.628   7.252  0.0051 -0.2510 -0.1262
  945POPC   C4A13834  10.266  14.290   7.526 -0.1136  0.0821 -0.0174
  945POPC   C1B13835   9.623  15.234   6.727  0.2064 -0.1482  0.3527
  945POPC   C2B13836   9.297  15.141   6.995 -0.2476  0.1059  0.0949
  945POPC   C3B13837   9.134  15.284   7.393 -0.2116 -0.2099 -0.0116
  945POPC   C4B13838   9.067  15.408   7.834  0.1400 -0.4240 -0.0925
  946POPC   NC313839  14.206   9.812   5.603 -0.1878 -0.1913 -0.0010
  946POPC   PO413840  14.038   9.374   5.718  0.0915 -0.0041 -0.1477
  946POPC   GL113841  14.176   9.380   6.153  0.2339  0.0917  0.0382
  946POPC   GL213842  14.086   9.035   6.249  0.1914  0.1782 -0.2746
  946POPC   C1A13843  13.902   9.570   6.490  0.0800 -0.3005  0.0723
  946POPC   D2A13844  13.887   9.788   6.885 -0.2514  0.1113  0.2328
  946POPC   C3A13845  14.056   9.772   7.241  0.0586  0.0994 -0.0556
  946POPC   C4A13846  14.254   9.551   7.429  0.0326 -0.1102  0.0015
  946POPC   C1B13847  13.862   9.087   6.642  0.1635 -0.0114  0.2979
  946POPC   C2B13848  13.491   9.064   6.927  0.1979  0.0666  0.0994
  946POPC   C3B13849  13.339   9.099   7.357  0.1232 -0.1114  0.1522
  946POPC   C4B13850  13.607   9.161   7.632 -0.2661  0.1535 -0.2562
  947POPC   NC313851  12.145   6.301   5.962 -0.0907 -0.5725 -0.0130
  947POPC   PO413852  12.153   6.160   6.325 -0.0028  0.0397 -0.1748
  947POPC   GL113853  12.125   6.112   6.754 -0.1155  0.2291 -0.1158
  947POPC   GL213854  11.875   6.062   6.875  0.4670 -0.4546 -0.0532
  947POPC   C1A13855  12.364   6.035   7.025 -0.4623 -0.0865  0.2111
  947POPC   D2A13856  12.465   5.935   7.357 -0.1278  0.1004 -0.1504
  947POPC   C3A13857  12.279   5.894   7.710  0.1198  0.5495  0.2295
  947POPC   C4A13858  12.337   5.870   8.167  0.1355  0.0751  0.3696
  947POPC   C1B13859  12.053   6.386   7.178  0.2080 -0.0432  0.1461
  947POPC   C2B13860  12.031   6.333   7.613 -0.1225  0.0604 -0.0418
  947POPC   C3B13861  12.205   6.340   8.088 -0.2064 -0.1190 -0.1017
  947POPC   C4B13862  12.043   6.162   8.465 -0.0848 -0.0393 -0.0355
  948POPC   NC313863  16.673   2.280   6.153  0.3626 -0.1219 -0.0215
  948POPC   PO413864  16.305   2.555   6.155 -0.0237 -0.1654  0.2466
  948POPC   GL113865  16.281   2.444   6.538  0.2942  0.0151 -0.1693
  948POPC   GL213866  16.212   2.158   6.658 -0.0381 -0.0077  0.1329
  948POPC   C1A13867  16.134   2.712   6.844 -0.0161 -0.3204 -0.0080
  948POPC   D2A13868  16.033   3.116   6.834 -0.1784  0.2010  0.2815
  948POPC   C3A13869  16.194   3.175   7.235 -0.0010  0.0857 -0.2830
  948POPC   C4A13870  16.472   3.353   7.442  0.0380 -0.0597  0.2499
  948POPC   C1B13871  16.206   2.216   7.086  0.0363 -0.0172 -0.3930
  948POPC   C2B13872  16.295   2.368   7.483 -0.1640 -0.3488  0.1136
  948POPC   C3B13873  16.420   2.551   7.891 -0.2800  0.0315  0.0707
  948POPC   C4B13874  16.591   2.844   8.224  0.0785  0.2286 -0.0723
  949POPC   NC313875   1.537   1.086   5.734 -0.1085  0.1378 -0.1495
  949POPC   PO413876   2.010   0.943   5.948  0.2167 -0.1569 -0.0852
  949POPC   GL113877   2.140   0.823   6.331 -0.1565  0.5370 -0.0955
  949POPC   GL213878   1.893   0.620   6.415 -0.1805  0.2371  0.0587
  949POPC   C1A13879   2.340   1.101   6.638 -0.1830  0.1034 -0.2850
  949POPC   D2A13880   2.449   0.981   7.171  0.0247  0.0733 -0.1015
  949POPC   C3A13881   2.303   1.243   7.456 -0.1004 -0.2818 -0.1265
  949POPC   C4A13882   2.014   1.383   7.818 -0.3730  0.1750  0.2078
  949POPC   C1B13883   2.036   0.635   6.875 -0.2285 -0.2046 -0.0993
  949POPC   C2B13884   2.007   0.730   7.310 -0.0745  0.1840  0.1603
  949POPC   C3B13885   1.877   0.870   7.727  0.0208  0.1256 -0.0491
  949POPC   C4B13886   1.580   1.123   7.944  0.3683 -0.2943 -0.0779
  950POPC   NC313887  16.068   5.018   5.849 -0.0409  0.0521 -0.0986
  950POPC   PO413888  15.625   4.820   5.853 -0.0298 -0.1265  0.2540
  950POPC   GL113889  15.750   4.813   6.231  0.2785  0.0237 -0.2836
  950POPC   GL213890  16.025   4.733   6.351 -0.0357 -0.0470  0.1151
  950POPC   C1A13891  15.586   4.966   6.623 -0.0511 -0.1061  0.1633
  950POPC   D2A13892  15.659   5.095   7.028  0.0497  0.1144 -0.1138
  950POPC   C3A13893  15.821   5.492   7.151 -0.3671 -0.1953 -0.0053
  950POPC   C4A13894  15.823   5.873   7.404  0.1195  0.2539 -0.0258
  950POPC   C1B13895  16.135   5.046   6.589  0.0558  0.0634  0.4230
  950POPC   C2B13896  16.215   4.942   7.084  0.0245  0.1922 -0.0547
  950POPC   C3B13897  15.997   5.096   7.422  0.1449  0.4294  0.1463
  950POPC   C4B13898  15.836   5.094   7.923 -0.0095 -0.1225  0.1006
  951POPC   NC313899   3.138   2.455   5.808 -0.2597  0.2034 -0.2917
  951POPC   PO413900   3.064   2.116   5.844 -0.0591  0.0126 -0.3351
  951POPC   GL113901   2.965   2.298   6.292 -0.0024  0.1976 -0.3828
  951POPC   GL213902   3.218   2.178   6.504 -0.0150  0.1195  0.0669
  951POPC   C1A13903   3.096   2.566   6.706  0.1831 -0.1836 -0.2636
  951POPC   D2A13904   3.138   2.513   7.154  0.2986  0.0511  0.1856
  951POPC   C3A13905   3.347   2.151   7.387  0.0467 -0.1842  0.0034
  951POPC   C4A13906   3.697   2.032   7.590 -0.2256 -0.0922 -0.4696
  951POPC   C1B13907   3.431   2.195   6.898  0.0650  0.0951 -0.1066
  951POPC   C2B13908   3.664   1.941   7.043 -0.2676 -0.1048 -0.0072
  951POPC   C3B13909   3.884   1.577   7.132 -0.1225  0.0168 -0.0055
  951POPC   C4B13910   4.344   1.591   7.261 -0.0749  0.1186  0.0006
  952POPC   NC313911   6.627   0.918   5.680  0.1369  0.0170  0.0352
  952POPC   PO413912   6.657   1.356   5.597 -0.0477 -0.0978  0.0563
  952POPC   GL113913   6.760   1.391   6.013 -0.2253  0.0221 -0.1153
  952POPC   GL213914   6.635   1.169   6.208 -0.0079 -0.1967  0.0667
  952POPC   C1A13915   7.073   1.195   6.321  0.3978 -0.2632  0.2706
  952POPC   D2A13916   7.219   1.158   6.690  0.1509 -0.0603 -0.1135
  952POPC   C3A13917   7.193   1.175   7.176 -0.1505  0.1609 -0.2223
  952POPC   C4A13918   7.121   0.991   7.599 -0.1508 -0.0554 -0.1581
  952POPC   C1B13919   6.658   1.196   6.684 -0.1151 -0.1202  0.3153
  952POPC   C2B13920   6.744   1.383   7.074  0.1495  0.1145  0.0526
  952POPC   C3B13921   6.756   1.276   7.416 -0.1233 -0.1774 -0.2846
  952POPC   C4B13922   6.569   1.161   7.824  0.2687 -0.1444  0.0754
  953POPC   NC313923   5.808  17.010   5.398 -0.1476  0.1875  0.0732
  953POPC   PO413924   6.010  17.202   5.655 -0.0104 -0.1783  0.4141
  953POPC   GL113925   5.893  17.442   6.072  0.2632 -0.1734  0.1256
  953POPC   GL213926   6.164  17.635   6.240  0.2597 -0.0038 -0.3071
  953POPC   C1A13927   5.720  17.664   6.445 -0.0615 -0.1126 -0.2411
  953POPC   D2A13928   5.598  17.829   6.922  0.2524 -0.0412 -0.0959
  953POPC   C3A13929   5.591  17.472   7.199  0.2198 -0.3228 -0.1046
  953POPC   C4A13930   5.555  17.238   7.547  0.0648  0.0690  0.2419
  953POPC   C1B13931   6.064  17.288   6.508  0.2726 -0.2521 -0.1390
  953POPC   C2B13932   5.698  17.157   6.780  0.2996  0.0098 -0.1521
  953POPC   C3B13933   5.401  17.001   7.052 -0.1978  0.0758  0.2231
  953POPC   C4B13934   5.362  16.625   7.146 -0.1904  0.3512  0.0957
  954POPC   NC313935  13.348  11.140   5.739  0.1808  0.2426  0.0971
  954POPC   PO413936  13.397  10.588   5.763 -0.1453  0.1979 -0.0885
  954POPC   GL113937  13.264  10.677   6.136  0.1030 -0.1460  0.3297
  954POPC   GL213938  12.898  10.740   6.326 -0.1023 -0.1419 -0.4147
  954POPC   C1A13939  13.386  10.732   6.560 -0.1038 -0.1919  0.1463
  954POPC   D2A13940  13.340  10.615   6.918  0.0210 -0.0014 -0.0784
  954POPC   C3A13941  13.561  10.658   7.323 -0.1428 -0.5077  0.1718
  954POPC   C4A13942  13.852  10.571   7.633 -0.1344 -0.0739 -0.1149
  954POPC   C1B13943  12.900  10.726   6.686  0.1300 -0.0297 -0.1456
  954POPC   C2B13944  12.622  10.774   7.050 -0.1054 -0.1091  0.0835
  954POPC   C3B13945  12.170  10.843   7.371 -0.1135 -0.2041  0.0996
  954POPC   C4B13946  12.283  10.968   7.812  0.1339  0.0503 -0.1495
  955POPC   NC313947   0.592  15.099   5.847 -0.1071  0.3167  0.1343
  955POPC   PO413948   0.391  14.744   5.916  0.2675  0.1910 -0.1782
  955POPC   GL113949   0.167  14.806   6.264 -0.2335 -0.3647  0.4823
  955POPC   GL213950  -0.134  14.601   6.198 -0.2681  0.1203  0.0605
  955POPC   C1A13951   0.260  14.826   6.694  0.0807  0.0747 -0.1061
  955POPC   D2A13952   0.139  14.820   7.165  0.0876  0.1290  0.1037
  955POPC   C3A13953   0.123  14.856   7.681 -0.0735 -0.0851  0.1796
  955POPC   C4A13954  -0.362  14.908   7.950 -0.0359  0.1961 -0.2409
  955POPC   C1B13955  -0.162  14.460   6.647  0.1615  0.2974 -0.3049
  955POPC   C2B13956  -0.162  14.439   7.080 -0.1283  0.0531 -0.1724
  955POPC   C3B13957   0.064  14.209   7.405  0.0756 -0.2345 -0.1587
  955POPC   C4B13958   0.081  13.845   7.606 -0.1003  0.5002  0.1167
  956POPC   NC313959   1.560   1.846   5.901  0.0127  0.0168 -0.1412
  956POPC   PO413960   1.485   1.461   6.070 -0.0760  0.0285 -0.0405
  956POPC   GL113961   1.554   1.520   6.503  0.3574  0.0754 -0.0439
  956POPC   GL213962   1.605   1.858   6.449 -0.0984 -0.0589  0.0741
  956POPC   C1A13963   1.980   1.600   6.759 -0.0590  0.0726  0.0101
  956POPC   D2A13964   2.398   1.494   6.930 -0.2992  0.1561 -0.0761
  956POPC   C3A13965   2.461   1.794   7.294 -0.2035 -0.0770  0.1722
  956POPC   C4A13966   2.413   1.668   7.694 -0.1947 -0.0941  0.1207
  956POPC   C1B13967   1.533   1.911   6.836 -0.1303  0.1583  0.3720
  956POPC   C2B13968   1.467   1.846   7.342 -0.0033 -0.0426 -0.1711
  956POPC   C3B13969   1.353   1.896   7.687  0.1532  0.0648  0.1103
  956POPC   C4B13970   1.464   2.073   8.043  0.0822 -0.3591 -0.0048
  957POPC   NC313971  15.843   3.690   5.600  0.0555  0.5582 -0.0137
  957POPC   PO413972  16.067   3.937   5.905 -0.1589  0.1408 -0.0970
  957POPC   GL113973  16.347   3.948   6.233  0.0785  0.1082  0.0053
  957POPC   GL213974  16.513   3.660   6.280 -0.4662  0.0571  0.0063
  957POPC   C1A13975  16.334   3.982   6.668  0.0985 -0.2634  0.0848
  957POPC   D2A13976  16.326   4.140   7.027 -0.0248  0.1489  0.2774
  957POPC   C3A13977  16.205   4.376   7.287  0.2076 -0.1921 -0.5651
  957POPC   C4A13978  16.107   4.651   7.618 -0.0603  0.1471 -0.3476
  957POPC   C1B13979  16.474   3.490   6.591 -0.0540  0.1030 -0.2208
  957POPC   C2B13980  16.565   3.338   6.934  0.1788  0.0734 -0.2688
  957POPC   C3B13981  16.928   3.305   7.222 -0.1183 -0.2834  0.0290
  957POPC   C4B13982  16.958   3.463   7.608  0.0968  0.3320  0.3585
  958POPC   NC313983   5.874   3.376   5.748  0.0415 -0.0452 -0.0316
  958POPC   PO413984   6.087   3.539   6.064  0.1736 -0.2076  0.3374
  958POPC   GL113985   6.364   3.512   6.408  0.1638  0.1076  0.0470
  958POPC   GL213986   6.389   3.958   6.411  0.5911  0.2604  0.0378
  958POPC   C1A13987   6.420   3.545   6.841  0.2583 -0.0949  0.1487
  958POPC   D2A13988   6.177   3.589   7.098  0.1009 -0.2713 -0.0921
  958POPC   C3A13989   6.163   3.877   7.449 -0.1300  0.3784  0.2180
  958POPC   C4A13990   6.423   4.111   7.750 -0.4297 -0.1092  0.1563
  958POPC   C1B13991   6.204   4.045   6.874  0.4312  0.0075 -0.2867
  958POPC   C2B13992   6.452   4.244   7.224 -0.1064  0.2154  0.1485
  958POPC   C3B13993   6.836   4.106   7.428 -0.4682 -0.1301 -0.1329
  958POPC   C4B13994   7.228   4.386   7.441 -0.1866 -0.1369 -0.1662
  959POPC   NC313995   7.989   2.446   5.782 -0.0321  0.0757 -0.0992
  959POPC   PO413996   8.024   2.812   5.691  0.0690  0.0642  0.1014
  959POPC   GL113997   7.899   3.020   6.110 -0.0137  0.1797 -0.2059
  959POPC   GL213998   8.063   3.356   6.164  0.0583 -0.3025 -0.0557
  959POPC   C1A13999   7.599   2.823   6.469  0.1605  0.2249 -0.3638
  959POPC   D2A14000   7.226   2.625   6.602 -0.0787  0.1519 -0.0827
  959POPC   C3A14001   7.075   2.534   6.974  0.0452  0.0894 -0.1215
  959POPC   C4A14002   6.713   2.496   7.190 -0.0601 -0.3116  0.0543
  959POPC   C1B14003   7.913   3.140   6.682  0.1929 -0.1759 -0.0121
  959POPC   C2B14004   7.866   2.976   7.018 -0.0830  0.0871  0.2637
  959POPC   C3B14005   7.559   2.598   7.121  0.1638  0.2193  0.3295
  959POPC   C4B14006   7.467   2.361   7.463 -0.1378  0.1533  0.0609
  960POPC   NC314007   5.872  10.803   5.841 -0.1587 -0.1541 -0.0331
  960POPC   PO414008   5.391  10.657   5.734 -0.2481  0.2530 -0.4697
  960POPC   GL114009   5.291  10.674   6.226  0.0303 -0.1020  0.1565
  960POPC   GL214010   4.981  10.808   6.138 -0.2746 -0.1732 -0.1897
  960POPC   C1A14011   5.230  10.734   6.776 -0.2018  0.0711  0.1528
  960POPC   D2A14012   5.312  10.759   7.254  0.0142 -0.1247 -0.1783
  960POPC   C3A14013   5.103  11.074   7.597  0.3838  0.0797  0.2628
  960POPC   C4A14014   5.027  11.055   8.059  0.0206 -0.2382 -0.1271
  960POPC   C1B14015   4.772  10.635   6.445 -0.1834 -0.1214 -0.1120
  960POPC   C2B14016   4.859  10.368   6.797 -0.2715  0.1236 -0.0760
  960POPC   C3B14017   5.068  10.325   7.269 -0.0463 -0.0942 -0.3564
  960POPC   C4B14018   4.929   9.917   7.543  0.0291 -0.3091  0.0362
  961POPC   NC314019  11.417  17.179   6.118  0.0876  0.0155 -0.0553
  961POPC   PO414020  11.424  17.670   6.040  0.0118 -0.0398 -0.0007
  961POPC   GL114021  11.557  17.813   6.480  0.0312  0.0263 -0.2045
  961POPC   GL214022  11.592  17.538   6.639  0.1764  0.2556 -0.1158
  961POPC   C1A14023  11.607  18.017   6.988  0.4162 -0.1028  0.2857
  961POPC   D2A14024  11.670  17.971   7.382 -0.1780 -0.1114 -0.1873
  961POPC   C3A14025  11.508  18.243   7.600  0.2425 -0.1041 -0.5168
  961POPC   C4A14026  11.547  18.333   8.028 -0.0871  0.0899 -0.0162
  961POPC   C1B14027  11.402  17.580   6.912 -0.0681  0.0949  0.0994
  961POPC   C2B14028  11.406  17.544   7.323 -0.1205 -0.1454  0.2227
  961POPC   C3B14029  11.475  17.549   7.739  0.0364 -0.0582 -0.0915
  961POPC   C4B14030  11.574  17.481   8.157  0.0103 -0.0554 -0.1238
  962POPC   NC314031  16.714  17.481   6.165 -0.2622 -0.2012  0.0008
  962POPC   PO414032  17.106  17.261   6.392  0.2035 -0.2370 -0.0125
  962POPC   GL114033  17.092  17.452   6.785 -0.2385  0.0476  0.4466
  962POPC   GL214034  17.367  17.675   6.922 -0.4086  0.2920  0.1405
  962POPC   C1A14035  16.852  17.500   7.134 -0.0057  0.1302 -0.2174
  962POPC   D2A14036  16.612  17.395   7.532 -0.0572  0.2618  0.0934
  962POPC   C3A14037  16.621  17.718   7.829 -0.0119  0.0063  0.0489
  962POPC   C4A14038  16.704  17.942   8.083  0.2498  0.0124 -0.0250
  962POPC   C1B14039  17.270  17.701   7.311  0.1260  0.1790  0.0595
  962POPC   C2B14040  17.329  18.031   7.572  0.2045 -0.0252  0.0815
  962POPC   C3B14041  17.312  18.177   8.006 -0.3193  0.2623  0.0630
  962POPC   C4B14042  17.145  17.989   8.397 -0.2712  0.0359  0.2601
  963POPC   NC314043   9.535   1.961   5.778  0.0848  0.1461 -0.3702
  963POPC   PO414044   9.509   2.394   5.807 -0.1615 -0.0155 -0.0933
  963POPC   GL114045   9.515   2.716   6.232  0.2022 -0.0007 -0.0507
  963POPC   GL214046   9.800   2.646   6.391 -0.0525  0.0546 -0.2647
  963POPC   C1A14047   9.228   2.791   6.605  0.1276 -0.2012  0.0269
  963POPC   D2A14048   8.856   2.706   6.898  0.2370 -0.0490  0.2123
  963POPC   C3A14049   8.820   2.457   7.251 -0.1672 -0.1018  0.0561
  963POPC   C4A14050   8.703   2.308   7.609  0.1519  0.3214  0.1764
  963POPC   C1B14051   9.548   2.412   6.729 -0.1487  0.0244  0.0221
  963POPC   C2B14052   9.247   2.294   7.035 -0.1284 -0.1236  0.0942
  963POPC   C3B14053   9.322   2.417   7.538 -0.1898 -0.2092 -0.1587
  963POPC   C4B14054   9.348   2.436   7.974  0.2488 -0.0527 -0.2489
  964POPC   NC314055   6.187   6.142   6.369  0.1851 -0.2191  0.1547
  964POPC   PO414056   5.984   6.593   6.274  0.0615  0.0079 -0.2037
  964POPC   GL114057   5.824   6.475   6.599  0.2543  0.4032 -0.0248
  964POPC   GL214058   5.620   6.614   6.728  0.1092 -0.0837  0.2210
  964POPC   C1A14059   5.895   6.221   6.969 -0.1342  0.0345 -0.0535
  964POPC   D2A14060   5.694   6.156   7.323 -0.1623  0.0755  0.0138
  964POPC   C3A14061   5.953   6.010   7.681 -0.1745 -0.0951 -0.1634
  964POPC   C4A14062   5.830   5.948   8.141 -0.0086 -0.0247  0.2659
  964POPC   C1B14063   5.392   6.478   7.121  0.3110 -0.0168 -0.1524
  964POPC   C2B14064   5.214   6.219   7.487 -0.0058 -0.0451  0.0336
  964POPC   C3B14065   5.273   5.969   7.850  0.3788  0.0683  0.1919
  964POPC   C4B14066   5.176   6.251   8.247  0.0319 -0.0277 -0.1072
  965POPC   NC314067   3.463  14.680   5.737 -0.0653  0.1822  0.1566
  965POPC   PO414068   3.195  14.820   5.952 -0.3163  0.0523 -0.0751
  965POPC   GL114069   3.467  14.566   6.256  0.2501 -0.2057 -0.0628
  965POPC   GL214070   3.878  14.501   6.388 -0.0281 -0.0032 -0.1145
  965POPC   C1A14071   3.455  14.297   6.667 -0.2250 -0.1612  0.2200
  965POPC   D2A14072   3.429  14.233   7.109 -0.0003  0.1139 -0.1185
  965POPC   C3A14073   3.496  14.320   7.541  0.2096  0.0165 -0.2702
  965POPC   C4A14074   3.894  14.279   7.881 -0.1977  0.1317  0.3024
  965POPC   C1B14075   4.093  14.521   6.795 -0.1955  0.1263 -0.0245
  965POPC   C2B14076   4.257  14.697   7.099 -0.0286 -0.1167  0.2471
  965POPC   C3B14077   4.487  14.824   7.489  0.1690  0.0635  0.0530
  965POPC   C4B14078   4.424  15.050   7.776  0.1098 -0.2910  0.1066
  966POPC   NC314079  12.583   2.107   6.362  0.2410  0.3372  0.0331
  966POPC   PO414080  12.418   2.399   6.281  0.0796  0.1886  0.0144
  966POPC   GL114081  12.243   2.303   6.707 -0.4172  0.0104  0.1879
  966POPC   GL214082  11.918   2.404   6.640  0.1957 -0.3403 -0.0914
  966POPC   C1A14083  12.114   2.420   7.094 -0.2900 -0.0621  0.0992
  966POPC   D2A14084  12.101   2.409   7.495 -0.2532  0.2177 -0.0760
  966POPC   C3A14085  12.134   2.587   7.936 -0.1908 -0.2731  0.0744
  966POPC   C4A14086  12.164   2.790   8.363  0.0280 -0.0530  0.1749
  966POPC   C1B14087  11.632   2.335   6.937  0.1256  0.0713  0.0065
  966POPC   C2B14088  11.648   2.534   7.373 -0.0305  0.0891  0.0649
  966POPC   C3B14089  11.638   2.359   7.782 -0.0564 -0.1271 -0.2952
  966POPC   C4B14090  11.753   2.149   8.156  0.3487  0.1473  0.0963
  967POPC   NC314091  13.827  13.472   5.938  0.0862  0.0231  0.1529
  967POPC   PO414092  13.367  13.415   5.778 -0.0163 -0.0111  0.3281
  967POPC   GL114093  13.248  13.353   6.232 -0.0262 -0.1092 -0.1113
  967POPC   GL214094  13.490  13.472   6.490 -0.0649 -0.4203 -0.1220
  967POPC   C1A14095  12.813  13.187   6.453 -0.0377  0.2373  0.2425
  967POPC   D2A14096  12.619  12.846   6.503  0.1571  0.2616 -0.2202
  967POPC   C3A14097  12.938  12.505   6.672  0.0006 -0.1091 -0.0084
  967POPC   C4A14098  12.825  12.068   6.782  0.0514 -0.1160  0.0624
  967POPC   C1B14099  13.427  13.366   6.927 -0.0888 -0.1170 -0.1348
  967POPC   C2B14100  13.371  13.250   7.397 -0.0621 -0.0312  0.1391
  967POPC   C3B14101  13.330  13.358   7.819  0.0877 -0.0867  0.2102
  967POPC   C4B14102  13.154  13.063   8.138 -0.3932 -0.0702  0.2612
  968POPC   NC314103   6.513  12.525   5.507 -0.0770 -0.2762  0.0310
  968POPC   PO414104   6.531  12.964   5.478  0.0512 -0.1173 -0.1126
  968POPC   GL114105   6.390  12.979   5.881  0.1625 -0.2183  0.1205
  968POPC   GL214106   6.390  12.682   5.978 -0.1204 -0.1315 -0.1889
  968POPC   C1A14107   6.337  13.213   6.237  0.0220 -0.2614  0.0565
  968POPC   D2A14108   6.563  13.205   6.672  0.1895  0.0289  0.0643
  968POPC   C3A14109   6.911  13.277   6.836  0.0382  0.2175 -0.1982
  968POPC   C4A14110   7.178  13.536   6.608 -0.1291  0.2513 -0.2268
  968POPC   C1B14111   6.535  12.699   6.333 -0.0528  0.3417  0.0238
  968POPC   C2B14112   6.782  12.811   6.735 -0.2155 -0.0637 -0.0738
  968POPC   C3B14113   7.067  12.700   7.175  0.1905  0.1625 -0.2895
  968POPC   C4B14114   7.234  12.708   7.463 -0.1285  0.2317 -0.0091
  969POPC   NC314115   5.176   5.755   6.227 -0.1976 -0.2059  0.2398
  969POPC   PO414116   4.942   5.364   6.153  0.0484 -0.0642  0.1414
  969POPC   GL114117   4.951   5.315   6.552 -0.0734 -0.0228  0.1446
  969POPC   GL214118   5.145   5.043   6.664 -0.0130 -0.1831 -0.0085
  969POPC   C1A14119   4.982   5.312   7.028  0.1336 -0.0610 -0.1298
  969POPC   D2A14120   4.811   5.375   7.513 -0.0721  0.2681 -0.1049
  969POPC   C3A14121   4.833   5.035   7.920  0.0251  0.1618 -0.0030
  969POPC   C4A14122   4.896   5.148   8.393 -0.3243  0.2002 -0.1967
  969POPC   C1B14123   5.480   4.905   7.004 -0.2045 -0.3405 -0.0416
  969POPC   C2B14124   5.573   4.684   7.484 -0.1365 -0.1634 -0.1088
  969POPC   C3B14125   5.719   4.636   7.921 -0.0057  0.1976 -0.1260
  969POPC   C4B14126   5.590   4.946   8.233 -0.1031  0.3077  0.0897
  970POPC   NC314127  13.211   4.577   5.912  0.2261  0.0901 -0.2563
  970POPC   PO414128  12.983   4.317   6.132 -0.3280  0.1477 -0.2337
  970POPC   GL114129  12.949   4.412   6.629 -0.1283 -0.2059 -0.1537
  970POPC   GL214130  13.229   4.644   6.684 -0.5153 -0.1491 -0.0970
  970POPC   C1A14131  13.031   4.358   7.068 -0.3135  0.0193  0.1065
  970POPC   D2A14132  13.375   4.254   7.274 -0.0625 -0.0513 -0.0171
  970POPC   C3A14133  13.629   4.417   7.632  0.0658 -0.0068 -0.0551
  970POPC   C4A14134  13.499   4.590   7.989  0.1893 -0.2350  0.2986
  970POPC   C1B14135  13.605   4.737   6.982  0.1411 -0.0193 -0.1091
  970POPC   C2B14136  13.812   4.881   7.382  0.0907 -0.1664 -0.0453
  970POPC   C3B14137  13.738   4.941   7.723  0.3238  0.1250  0.0246
  970POPC   C4B14138  14.045   4.908   8.046  0.0123  0.1218  0.0998
  971POPC   NC314139   0.763   3.321   6.030  0.2349  0.2806 -0.1327
  971POPC   PO414140   0.505   3.021   6.194 -0.0463 -0.0883 -0.1460
  971POPC   GL114141   0.472   3.004   6.574  0.1457  0.2005 -0.1366
  971POPC   GL214142   0.339   3.255   6.668 -0.1018  0.0759  0.1089
  971POPC   C1A14143   0.678   2.955   6.983 -0.1605  0.0943 -0.2009
  971POPC   D2A14144   0.845   3.173   7.330 -0.3708 -0.0214  0.4156
  971POPC   C3A14145   0.711   3.175   7.675  0.3370  0.2465  0.1976
  971POPC   C4A14146   0.455   3.235   8.027  0.0225 -0.1116 -0.0087
  971POPC   C1B14147   0.308   3.288   7.258 -0.0862  0.1565 -0.2973
  971POPC   C2B14148   0.173   3.142   7.640  0.1363 -0.3782  0.0234
  971POPC   C3B14149  -0.100   3.370   7.933  0.0734  0.2406 -0.2459
  971POPC   C4B14150  -0.159   3.473   8.320  0.0339  0.0313 -0.3176
  972POPC   NC314151   9.016   3.579   5.873  0.1524 -0.0018  0.1814
  972POPC   PO414152   9.006   3.123   5.883  0.2969  0.0182  0.1654
  972POPC   GL114153   8.891   2.951   6.288 -0.1071  0.0218  0.2717
  972POPC   GL214154   8.717   2.737   6.419 -0.0551  0.1623 -0.1024
  972POPC   C1A14155   8.851   3.146   6.649 -0.4008  0.0607 -0.3544
  972POPC   D2A14156   8.874   3.134   7.100 -0.0242  0.3694 -0.0173
  972POPC   C3A14157   9.115   2.867   7.392 -0.3298  0.0072 -0.0327
  972POPC   C4A14158   9.297   2.919   7.843 -0.2075 -0.2209  0.0309
  972POPC   C1B14159   8.519   2.429   6.631  0.1387  0.1777  0.1903
  972POPC   C2B14160   8.382   2.466   7.127  0.2373 -0.0402  0.2316
  972POPC   C3B14161   8.022   2.517   7.336 -0.0916 -0.0645 -0.1192
  972POPC   C4B14162   7.878   2.301   7.702  0.0136 -0.1018 -0.1465
  973POPC   NC314163  11.236   0.506   5.775  0.0216 -0.2886 -0.2801
  973POPC   PO414164  11.109   0.699   6.268  0.1025  0.0599  0.1769
  973POPC   GL114165  10.846   0.665   6.571 -0.2505  0.0963  0.0376
  973POPC   GL214166  10.660   1.032   6.644 -0.2273  0.1076  0.0894
  973POPC   C1A14167  10.705   0.585   6.961 -0.0281  0.3407  0.0747
  973POPC   D2A14168  10.553   0.809   7.378  0.0636 -0.1303  0.0280
  973POPC   C3A14169  10.394   0.621   7.778  0.4652 -0.0532 -0.3292
  973POPC   C4A14170  10.697   0.532   8.144  0.1221  0.2283 -0.1377
  973POPC   C1B14171  10.444   0.964   6.915  0.2168 -0.2221 -0.1245
  973POPC   C2B14172  10.176   1.119   7.212 -0.0019  0.2517  0.1000
  973POPC   C3B14173  10.243   1.135   7.615  0.1293 -0.2576  0.3789
  973POPC   C4B14174  10.085   1.253   8.117 -0.1054  0.1278  0.1375
  974POPC   NC314175  14.095  12.470   5.542 -0.2633 -0.4574 -0.5355
  974POPC   PO414176  14.433  12.235   5.745 -0.1354 -0.0521  0.0031
  974POPC   GL114177  14.568  12.216   6.114  0.0548 -0.1528 -0.3922
  974POPC   GL214178  14.645  12.464   6.252  0.1856 -0.1382 -0.1004
  974POPC   C1A14179  14.423  12.174   6.558  0.0266 -0.0790 -0.2289
  974POPC   D2A14180  14.340  12.182   6.981  0.0394 -0.0381  0.0605
  974POPC   C3A14181  14.449  11.887   7.274  0.1410 -0.1449  0.1082
  974POPC   C4A14182  14.559  11.728   7.648  0.1566  0.0418  0.1408
  974POPC   C1B14183  14.562  12.628   6.709  0.1376 -0.1404  0.3793
  974POPC   C2B14184  14.566  12.583   7.108 -0.0213  0.0237  0.2710
  974POPC   C3B14185  14.476  12.406   7.579 -0.3766  0.2375 -0.0933
  974POPC   C4B14186  14.301  12.391   7.968 -0.1650  0.0140  0.2897
  975POPC   NC314187  12.405   0.559   6.000 -0.1978  0.1360  0.1725
  975POPC   PO414188  12.608   0.625   6.313 -0.2013 -0.0522  0.0719
  975POPC   GL114189  12.671   0.417   6.631  0.2513 -0.0857  0.0313
  975POPC   GL214190  12.834   0.601   6.844  0.1225 -0.0262 -0.1414
  975POPC   C1A14191  12.561   0.072   7.015  0.0530 -0.0503 -0.1044
  975POPC   D2A14192  12.723  -0.002   7.328  0.2412  0.3664  0.0601
  975POPC   C3A14193  12.616  -0.066   7.755  0.2422 -0.0791 -0.1854
  975POPC   C4A14194  12.360  -0.153   8.103  0.0857  0.2099  0.3826
  975POPC   C1B14195  12.750   0.487   7.344 -0.0640 -0.1817  0.0669
  975POPC   C2B14196  12.745   0.389   7.714 -0.1609 -0.0162  0.0546
  975POPC   C3B14197  12.922   0.073   8.128 -0.2249  0.4307  0.3039
  975POPC   C4B14198  12.851  -0.353   8.359 -0.2414  0.1571  0.2457
  976POPC   NC314199   0.498  16.536   5.872  0.0533  0.1516  0.0267
  976POPC   PO414200   0.042  16.295   6.001 -0.2707  0.1200  0.1175
  976POPC   GL114201   0.305  16.214   6.298  0.1833 -0.0126  0.1851
  976POPC   GL214202   0.122  15.988   6.488  0.1694  0.0263 -0.0969
  976POPC   C1A14203   0.578  15.993   6.418 -0.1770  0.0210 -0.3511
  976POPC   D2A14204   0.735  15.784   6.818  0.1276  0.1085  0.0946
  976POPC   C3A14205   0.823  15.846   7.244 -0.1997 -0.0099 -0.1168
  976POPC   C4A14206   0.860  15.886   7.698 -0.0648 -0.0596  0.1141
  976POPC   C1B14207   0.216  15.765   6.836 -0.0842 -0.0953  0.0720
  976POPC   C2B14208   0.324  15.738   7.257 -0.2665 -0.0328 -0.2375
  976POPC   C3B14209   0.362  15.415   7.658 -0.1500 -0.4202 -0.3386
  976POPC   C4B14210   0.807  15.398   7.779 -0.3116  0.1047  0.1704
  977POPC   NC314211   9.454  16.492   5.580 -0.1681  0.3429 -0.3562
  977POPC   PO414212   9.343  16.299   5.926  0.0645  0.1986  0.1161
  977POPC   GL114213   9.361  16.539   6.286  0.0242 -0.1668 -0.2423
  977POPC   GL214214   9.029  16.676   6.368 -0.0106 -0.2293  0.2461
  977POPC   C1A14215   9.296  16.596   6.808  0.2151  0.0884 -0.1610
  977POPC   D2A14216   9.304  16.802   7.302 -0.2067 -0.0407 -0.2772
  977POPC   C3A14217   9.503  16.697   7.653 -0.0164 -0.1588  0.0763
  977POPC   C4A14218   9.623  16.876   8.051 -0.1745  0.2678  0.0520
  977POPC   C1B14219   8.802  16.773   6.825  0.4964 -0.1875  0.2732
  977POPC   C2B14220   8.835  16.738   7.232  0.2981  0.0346  0.2537
  977POPC   C3B14221   8.529  16.888   7.573 -0.2108 -0.3008  0.4745
  977POPC   C4B14222   8.281  16.963   7.904 -0.0828  0.0950  0.0470
  978POPC   NC314223   6.603  10.094   5.842  0.1101 -0.1239  0.2250
  978POPC   PO414224   6.528   9.667   6.013  0.0320  0.0841  0.3405
  978POPC   GL114225   6.509   9.813   6.356 -0.0389 -0.3174  0.0096
  978POPC   GL214226   6.754   9.686   6.494  0.0450 -0.1657 -0.3415
  978POPC   C1A14227   6.401  10.054   6.736 -0.0179 -0.1113  0.0279
  978POPC   D2A14228   6.470  10.369   6.809  0.0290  0.3107 -0.1000
  978POPC   C3A14229   6.582  10.478   7.272  0.3168  0.2227 -0.0490
  978POPC   C4A14230   6.346  10.674   7.517  0.0314  0.2658 -0.0218
  978POPC   C1B14231   6.603   9.634   6.875  0.1901  0.1228  0.0265
  978POPC   C2B14232   6.843   9.526   7.168 -0.1138 -0.0226 -0.1134
  978POPC   C3B14233   6.929   9.488   7.557  0.0999  0.2988  0.1850
  978POPC   C4B14234   7.050   9.556   7.929 -0.2027  0.0585  0.2926
  979POPC   NC314235   5.111  15.653   5.392 -0.0315 -0.2135  0.0734
  979POPC   PO414236   4.896  15.354   5.674 -0.0214  0.0634 -0.2101
  979POPC   GL114237   5.026  15.208   6.171  0.1185 -0.2060 -0.0850
  979POPC   GL214238   5.326  15.226   6.323 -0.0773  0.0474 -0.0849
  979POPC   C1A14239   5.001  15.335   6.696 -0.3803 -0.1665 -0.0885
  979POPC   D2A14240   4.941  15.388   7.146  0.1397 -0.0771  0.2720
  979POPC   C3A14241   4.557  15.413   7.366  0.0807 -0.0725 -0.1440
  979POPC   C4A14242   4.624  15.581   7.780 -0.2261 -0.1183  0.1521
  979POPC   C1B14243   5.520  15.066   6.770 -0.0433 -0.0318 -0.1283
  979POPC   C2B14244   5.377  15.121   7.202  0.2039 -0.1344  0.0467
  979POPC   C3B14245   5.475  14.969   7.631 -0.1558 -0.4566 -0.2286
  979POPC   C4B14246   5.442  14.738   7.930  0.1980  0.0079  0.1445
  980POPC   NC314247  15.228   7.119   5.706  0.4722  0.0830  0.0638
  980POPC   PO414248  15.516   7.325   5.998 -0.0469 -0.1890  0.0489
  980POPC   GL114249  15.594   7.357   6.466  0.2671 -0.1107 -0.2285
  980POPC   GL214250  15.292   7.335   6.629  0.1183 -0.2292  0.0038
  980POPC   C1A14251  15.461   7.784   6.701 -0.0311  0.3738  0.1167
  980POPC   D2A14252  15.469   7.945   7.073 -0.0388  0.1055  0.0885
  980POPC   C3A14253  15.749   7.930   7.488  0.0925 -0.2968  0.2472
  980POPC   C4A14254  16.009   7.765   7.734  0.2272  0.0946 -0.1029
  980POPC   C1B14255  15.367   7.418   7.081  0.2339 -0.0556  0.0894
  980POPC   C2B14256  15.371   7.448   7.405  0.0585 -0.1349 -0.2507
  980POPC   C3B14257  15.036   7.334   7.533 -0.1028  0.1351 -0.0582
  980POPC   C4B14258  14.751   6.945   7.560 -0.0059  0.1035 -0.2160
  981YOPC   NC314259  15.030   5.838   5.986 -0.1867  0.1599 -0.2249
  981YOPC   PO414260  14.850   6.176   6.043 -0.0391 -0.2292 -0.1767
  981YOPC   GL114261  14.922   6.063   6.490 -0.0292 -0.0070  0.0876
  981YOPC   GL214262  14.868   6.242   6.736  0.0589  0.3848  0.2364
  981YOPC   C1A14263  15.024   5.765   6.748  0.0535  0.1151  0.1972
  981YOPC   D2A14264  14.794   5.637   7.107 -0.2699 -0.2552 -0.0205
  981YOPC   C3A14265  14.794   5.422   7.508 -0.0375  0.0005 -0.2351
  981YOPC   C4A14266  14.801   5.062   7.692  0.0598  0.2122  0.2212
  981YOPC   C1B14267  14.874   6.088   7.205  0.2867  0.1988 -0.1361
  981YOPC   C2B14268  14.772   6.002   7.607 -0.3024 -0.2513 -0.2157
  981YOPC   D3B14269  14.983   5.754   7.864 -0.2999  0.2165  0.0764
  981YOPC   C4B14270  15.228   5.363   7.834 -0.0047  0.1450 -0.1192
  982YOPC   NC314271  12.027   2.600   6.092  0.2635 -0.0347 -0.1091
  982YOPC   PO414272  11.542   2.521   6.215  0.0780 -0.2687  0.3008
  982YOPC   GL114273  11.264   2.521   6.511 -0.1195 -0.1724 -0.0932
  982YOPC   GL214274  10.913   2.655   6.591  0.1272  0.1456  0.2424
  982YOPC   C1A14275  11.269   2.716   6.892 -0.0360  0.1268 -0.0245
  982YOPC   D2A14276  11.115   2.699   7.308  0.3022  0.0585 -0.0685
  982YOPC   C3A14277  11.053   3.085   7.516  0.0463 -0.0964 -0.0919
  982YOPC   C4A14278  10.859   3.234   7.806  0.0280  0.3719 -0.2413
  982YOPC   C1B14279  10.768   2.707   6.957  0.2357 -0.0173 -0.2493
  982YOPC   C2B14280  10.689   2.476   7.358  0.1242  0.2162 -0.0736
  982YOPC   D3B14281  10.854   2.703   7.760 -0.1201  0.1693 -0.0577
  982YOPC   C4B14282  10.683   2.793   8.263 -0.3484  0.0106  0.1611
  983YOPC   NC314283   6.148   4.073   5.966 -0.1661 -0.0544  0.0100
  983YOPC   PO414284   5.930   4.275   6.321 -0.1320  0.0300 -0.1505
  983YOPC   GL114285   5.649   4.178   6.590 -0.0750  0.5638 -0.2116
  983YOPC   GL214286   5.603   3.889   6.679 -0.0906 -0.1703  0.1546
  983YOPC   C1A14287   5.534   4.279   6.997  0.0321 -0.0317 -0.1356
  983YOPC   D2A14288   5.527   4.225   7.481 -0.0067 -0.1742 -0.3996
  983YOPC   C3A14289   5.861   4.148   7.801 -0.0551 -0.2729 -0.0596
  983YOPC   C4A14290   5.891   4.123   8.267  0.1735 -0.1575  0.3720
  983YOPC   C1B14291   5.723   3.849   7.158 -0.4469  0.0901  0.0963
  983YOPC   C2B14292   5.668   3.735   7.636  0.2837 -0.3026  0.0439
  983YOPC   D3B14293   5.399   3.910   7.900  0.1950  0.4384  0.0407
  983YOPC   C4B14294   5.060   3.982   8.113  0.2142  0.0287  0.0530
  984YOPC   NC314295   1.509  13.450   5.211 -0.1641 -0.2635 -0.1103
  984YOPC   PO414296   1.131  13.268   5.446  0.0221 -0.0573 -0.3215
  984YOPC   GL114297   1.019  12.960   5.785 -0.0603  0.2576  0.1534
  984YOPC   GL214298   0.674  13.005   5.935  0.0687  0.0456 -0.0578
  984YOPC   C1A14299   1.026  12.839   6.229 -0.0121 -0.1089 -0.3150
  984YOPC   D2A14300   0.934  12.699   6.644 -0.0925 -0.3242  0.2664
  984YOPC   C3A14301   1.039  12.686   7.039  0.0041 -0.1140 -0.2909
  984YOPC   C4A14302   0.913  12.518   7.464 -0.0261  0.3920  0.1551
  984YOPC   C1B14303   0.458  12.674   5.807  0.1969  0.0433 -0.0344
  984YOPC   C2B14304   0.188  12.400   6.012 -0.1562 -0.3333  0.2356
  984YOPC   D3B14305   0.141  12.344   6.448  0.3051 -0.1125  0.0267
  984YOPC   C4B14306   0.328  12.463   6.791 -0.2214 -0.1956  0.0809
  985YOPC   NC314307  16.786  16.324   5.795  0.1606 -0.3544 -0.0523
  985YOPC   PO414308  17.054  16.592   6.233 -0.1555  0.0428 -0.1912
  985YOPC   GL114309  16.849  16.559   6.629 -0.3067 -0.1510  0.1711
  985YOPC   GL214310  16.769  16.914   6.503 -0.2871 -0.4420  0.1825
  985YOPC   C1A14311  16.907  16.585   6.980 -0.0922  0.0763 -0.0154
  985YOPC   D2A14312  17.151  16.719   7.308  0.3983  0.2581  0.1586
  985YOPC   C3A14313  17.402  16.722   7.603 -0.0981 -0.2831 -0.1596
  985YOPC   C4A14314  17.490  17.162   7.675  0.2396  0.0638 -0.0448
  985YOPC   C1B14315  16.722  17.036   6.860  0.0092 -0.1010 -0.1730
  985YOPC   C2B14316  16.606  16.970   7.249  0.2082  0.2602 -0.1247
  985YOPC   D3B14317  16.779  16.748   7.609  0.0208  0.1647 -0.2744
  985YOPC   C4B14318  16.939  16.555   7.840  0.1180  0.0650  0.0058
  986YOPC   NC314319  10.788   6.762   6.322  0.1285  0.0774  0.1364
  986YOPC   PO414320  10.563   7.169   6.234  0.0093  0.0848 -0.1032
  986YOPC   GL114321  10.621   7.522   6.497 -0.0351 -0.2590  0.2437
  986YOPC   GL214322  10.864   7.621   6.607  0.0901  0.0699 -0.2141
  986YOPC   C1A14323  10.441   7.782   6.815 -0.0135  0.1841  0.2478
  986YOPC   D2A14324  10.485   7.857   7.232 -0.2288  0.2825  0.1978
  986YOPC   C3A14325  10.358   8.004   7.670 -0.1885  0.2444 -0.1301
  986YOPC   C4A14326  10.203   8.014   8.103 -0.2678  0.0853  0.1186
  986YOPC   C1B14327  10.904   7.640   6.975 -0.1385  0.0648  0.0574
  986YOPC   C2B14328  10.904   7.618   7.298  0.0578  0.0750  0.2909
  986YOPC   D3B14329  10.776   7.767   7.694 -0.0474 -0.1046 -0.0139
  986YOPC   C4B14330  10.621   7.686   8.106  0.0955 -0.4216 -0.1829
  987YOPC   NC314331  11.050  16.488   5.776  0.4517  0.0740  0.0149
  987YOPC   PO414332  11.150  16.041   6.017 -0.0102  0.0916  0.3604
  987YOPC   GL114333  11.128  15.881   6.429  0.1605  0.3092  0.2678
  987YOPC   GL214334  11.377  15.876   6.525  0.1606  0.0100 -0.1799
  987YOPC   C1A14335  11.006  15.818   6.858  0.1143 -0.0548  0.0019
  987YOPC   D2A14336  11.207  15.882   7.253 -0.3427 -0.0506 -0.0298
  987YOPC   C3A14337  11.219  16.328   7.157 -0.2854  0.0767 -0.1728
  987YOPC   C4A14338  11.436  16.615   6.987 -0.0282  0.0917  0.0845
  987YOPC   C1B14339  11.513  16.029   6.819  0.2345 -0.0701 -0.3557
  987YOPC   C2B14340  11.712  15.769   7.196 -0.4282  0.2562  0.0831
  987YOPC   D3B14341  11.583  15.782   7.689 -0.0834 -0.3436 -0.0750
  987YOPC   C4B14342  11.550  15.603   8.032  0.0356 -0.2510 -0.0437
  988YOPC   NC314343  17.132   5.865   6.298  0.1668 -0.2597 -0.2383
  988YOPC   PO414344  16.737   6.091   6.220  0.0753  0.0734  0.1777
  988YOPC   GL114345  16.818   6.154   6.607 -0.0521 -0.0228  0.1056
  988YOPC   GL214346  16.943   5.850   6.758 -0.1492  0.1444 -0.1056
  988YOPC   C1A14347  17.032   6.300   7.001 -0.2039  0.1168 -0.2371
  988YOPC   D2A14348  17.327   6.319   7.365 -0.0848  0.2636  0.3415
  988YOPC   C3A14349  17.626   6.389   7.693 -0.3481 -0.5324  0.2851
  988YOPC   C4A14350  17.678   6.429   8.175 -0.0004  0.3782  0.2130
  988YOPC   C1B14351  16.808   5.813   7.118 -0.0998  0.1177 -0.0110
  988YOPC   C2B14352  16.882   6.047   7.511 -0.0338 -0.3900  0.2964
  988YOPC   D3B14353  16.944   5.806   7.899 -0.0019 -0.3909 -0.0644
  988YOPC   C4B14354  17.117   5.917   8.371  0.1066  0.0022 -0.0384
  989YOPC   NC314355  11.932   0.449   6.110 -0.0775 -0.2500  0.0087
  989YOPC   PO414356  11.458   0.299   6.116  0.0722  0.2353 -0.2092
  989YOPC   GL114357  11.532   0.340   6.494  0.0791  0.0256  0.0821
  989YOPC   GL214358  11.803   0.240   6.537  0.0426 -0.0950  0.0002
  989YOPC   C1A14359  11.267   0.398   6.814  0.3058 -0.1497 -0.2284
  989YOPC   D2A14360  11.221   0.440   7.209  0.0155  0.0015 -0.1053
  989YOPC   C3A14361  11.039   0.830   7.244  0.4121 -0.1491 -0.3125
  989YOPC   C4A14362  11.204   1.183   7.279 -0.1074 -0.0868  0.2566
  989YOPC   C1B14363  11.913   0.466   6.888 -0.0708  0.0716 -0.0898
  989YOPC   C2B14364  11.910   0.481   7.360  0.0834  0.1089  0.3045
  989YOPC   D3B14365  12.246   0.551   7.620  0.0094 -0.0576 -0.0078
  989YOPC   C4B14366  12.307   0.876   7.891 -0.2884 -0.1018 -0.1418
  990YOPC   NC314367  13.533   9.281   5.664  0.0071 -0.0568 -0.3677
  990YOPC   PO414368  13.346   9.664   5.906  0.2466  0.1626  0.4239
  990YOPC   GL114369  13.262   9.556   6.334  0.0191 -0.0037  0.1499
  990YOPC   GL214370  13.241   9.280   6.418 -0.0936  0.1743 -0.0271
  990YOPC   C1A14371  13.372   9.663   6.713 -0.0772  0.2482  0.0913
  990YOPC   D2A14372  13.383   9.582   7.226 -0.0960  0.0625  0.0299
  990YOPC   C3A14373  13.631   9.665   7.575 -0.1091 -0.0746 -0.0903
  990YOPC   C4A14374  14.014   9.537   7.908 -0.0364  0.1766  0.0570
  990YOPC   C1B14375  13.045   9.268   6.843  0.0505 -0.0123  0.1138
  990YOPC   C2B14376  12.837   9.312   7.351 -0.1808 -0.0180 -0.0760
  990YOPC   D3B14377  12.998   9.075   7.767  0.2331  0.5862  0.2001
  990YOPC   C4B14378  12.839   8.789   8.028  0.0177  0.0351  0.1889
  991YOPC   NC314379  15.049   9.414   5.185  0.2100 -0.2003 -0.3495
  991YOPC   PO414380  14.978   9.273   5.632 -0.1172  0.1080 -0.1855
  991YOPC   GL114381  14.971   9.162   6.039 -0.0836 -0.0652  0.0218
  991YOPC   GL214382  14.913   8.873   6.187  0.2091 -0.1371  0.1861
  991YOPC   C1A14383  14.983   9.298   6.532 -0.1493  0.3987  0.1859
  991YOPC   D2A14384  15.145   9.397   6.983  0.1606 -0.0517  0.0526
  991YOPC   C3A14385  14.969   9.246   7.450 -0.3443 -0.1269  0.0703
  991YOPC   C4A14386  14.617   9.349   7.718  0.2261 -0.2574 -0.1864
  991YOPC   C1B14387  14.605   8.985   6.399  0.0946 -0.2692 -0.1093
  991YOPC   C2B14388  14.493   9.357   6.602  0.3161 -0.2129 -0.0125
  991YOPC   D3B14389  14.210   9.375   6.900 -0.0296 -0.0987 -0.0239
  991YOPC   C4B14390  13.829   9.270   7.193 -0.1852  0.1571  0.1784
  992YOPC   NC314391   6.265   6.997   6.260  0.0076 -0.0557  0.0041
  992YOPC   PO414392   6.642   7.317   6.301  0.0308  0.2687  0.0003
  992YOPC   GL114393   6.601   7.653   6.602 -0.0282 -0.1663 -0.0421
  992YOPC   GL214394   6.762   7.911   6.687 -0.2873 -0.1238  0.1227
  992YOPC   C1A14395   6.366   7.701   7.035  0.1485  0.0221 -0.2163
  992YOPC   D2A14396   6.185   7.833   7.464  0.0708  0.2075  0.2288
  992YOPC   C3A14397   6.315   7.778   7.794 -0.0443 -0.0373 -0.1747
  992YOPC   C4A14398   6.588   7.911   8.181  0.0776  0.4291 -0.1348
  992YOPC   C1B14399   6.748   8.149   7.062 -0.1235  0.0152 -0.0759
  992YOPC   C2B14400   6.610   8.061   7.497 -0.3453  0.0414  0.0462
  992YOPC   D3B14401   6.483   8.243   7.862  0.0817 -0.1826 -0.0392
  992YOPC   C4B14402   6.248   8.362   8.215  0.0337  0.0289 -0.0811
  993YOPC   NC314403  16.370   5.814   5.949  0.0041  0.0722  0.1504
  993YOPC   PO414404  16.013   5.536   5.900 -0.0198 -0.0511  0.2232
  993YOPC   GL114405  15.900   5.489   6.324  0.0258 -0.3296 -0.0249
  993YOPC   GL214406  16.064   5.482   6.546 -0.0048  0.1769 -0.1295
  993YOPC   C1A14407  15.576   5.486   6.659 -0.0185  0.0120  0.1829
  993YOPC   D2A14408  15.177   5.348   6.921  0.1389 -0.0374 -0.1175
  993YOPC   C3A14409  15.280   5.326   7.336 -0.1080 -0.1447  0.0476
  993YOPC   C4A14410  15.680   5.423   7.586 -0.1462  0.5547  0.0639
  993YOPC   C1B14411  16.015   5.888   6.787  0.1775 -0.0611 -0.4905
  993YOPC   C2B14412  15.944   6.280   6.875  0.1649  0.1052 -0.2245
  993YOPC   D3B14413  16.076   6.347   7.277 -0.1316  0.3573  0.0005
  993YOPC   C4B14414  16.005   6.246   7.714 -0.2065  0.0603 -0.1418
  994YOPC   NC314415  11.410  12.748   5.847 -0.2226 -0.0090  0.3439
  994YOPC   PO414416  11.037  12.750   6.045 -0.1150 -0.0349  0.2302
  994YOPC   GL114417  10.746  12.675   6.400  0.2201 -0.0445  0.0794
  994YOPC   GL214418  10.513  12.958   6.409 -0.4598  0.1215  0.2650
  994YOPC   C1A14419  10.908  12.749   6.869 -0.0651  0.3348  0.1396
  994YOPC   D2A14420  10.792  12.682   7.292 -0.0992  0.2105 -0.0303
  994YOPC   C3A14421  10.596  13.037   7.527  0.0426 -0.0084  0.0648
  994YOPC   C4A14422  10.193  13.081   7.502 -0.1906  0.2959 -0.3671
  994YOPC   C1B14423  10.349  12.961   6.820  0.0889 -0.1112 -0.1060
  994YOPC   C2B14424  10.324  12.714   7.193 -0.0905 -0.1725 -0.0153
  994YOPC   D3B14425   9.954  12.692   7.393 -0.0369  0.0559 -0.3224
  994YOPC   C4B14426   9.676  12.696   7.736  0.0618  0.2332 -0.3972
  995YOPC   NC314427   4.082   2.529   6.255 -0.0935  0.0210 -0.0501
  995YOPC   PO414428   4.099   2.154   6.150 -0.1918  0.0017 -0.2803
  995YOPC   GL114429   4.132   1.813   6.469 -0.1838 -0.0262  0.1810
  995YOPC   GL214430   4.470   1.999   6.491  0.0678  0.1080  0.1919
  995YOPC   C1A14431   4.145   1.878   6.915  0.1442 -0.3808 -0.1738
  995YOPC   D2A14432   4.132   1.999   7.352  0.0099 -0.3013 -0.0064
  995YOPC   C3A14433   4.071   1.693   7.656  0.0235  0.1559 -0.1025
  995YOPC   C4A14434   4.032   1.176   7.570 -0.0827 -0.2668  0.1407
  995YOPC   C1B14435   4.562   1.702   6.809 -0.0109  0.0478  0.0290
  995YOPC   C2B14436   4.838   1.535   7.081  0.3152  0.2768  0.0363
  995YOPC   D3B14437   4.852   1.434   7.539 -0.0538 -0.1197  0.0856
  995YOPC   C4B14438   4.498   1.278   7.742 -0.1871  0.3828  0.3977
  996YOPC   NC314439   1.462   8.340   6.149  0.0935  0.3850  0.0051
  996YOPC   PO414440   1.472   7.926   6.131  0.1207  0.2433 -0.0560
  996YOPC   GL114441   1.532   7.954   6.506  0.1152 -0.0407  0.0448
  996YOPC   GL214442   1.505   8.326   6.649 -0.1131  0.0262 -0.1322
  996YOPC   C1A14443   1.556   7.842   6.977  0.0353  0.0729 -0.1246
  996YOPC   D2A14444   1.524   7.546   7.309  0.1706  0.2177 -0.2042
  996YOPC   C3A14445   1.663   7.218   7.427 -0.1126 -0.0478  0.0524
  996YOPC   C4A14446   2.016   6.953   7.461  0.0969  0.0336  0.3108
  996YOPC   C1B14447   1.536   8.544   7.032  0.0754  0.3536 -0.1242
  996YOPC   C2B14448   1.757   8.600   7.492 -0.3054  0.0998  0.2272
  996YOPC   D3B14449   2.094   8.330   7.642 -0.0719  0.0765  0.0892
  996YOPC   C4B14450   2.519   8.318   7.819  0.0482 -0.0856 -0.0066
  997YOPC   NC314451  17.498  11.953   5.468  0.1142 -0.1925 -0.0283
  997YOPC   PO414452  17.318  11.828   5.803 -0.2433  0.0347  0.2109
  997YOPC   GL114453  17.691  11.983   6.029  0.0433  0.1646  0.0405
  997YOPC   GL214454  17.852  11.864   6.274  0.1496  0.1430 -0.1850
  997YOPC   C1A14455  17.590  12.201   6.530  0.5396  0.1790  0.0748
  997YOPC   D2A14456  17.482  12.057   6.934 -0.0217  0.0080 -0.2966
  997YOPC   C3A14457  17.634  12.021   7.278  0.0110  0.0813  0.0931
  997YOPC   C4A14458  18.021  11.918   7.585  0.0741 -0.2664  0.0114
  997YOPC   C1B14459  17.841  11.816   6.784  0.0322 -0.0117  0.3215
  997YOPC   C2B14460  17.938  11.614   7.187 -0.1002  0.0838 -0.2111
  997YOPC   D3B14461  18.264  11.286   7.335 -0.4791 -0.0982  0.2165
  997YOPC   C4B14462  18.531  11.084   7.620  0.0596  0.1688  0.0853
  998YOPC   NC314463  16.079   2.964   5.994  0.1534  0.1315  0.0802
  998YOPC   PO414464  15.692   3.289   5.891  0.1715  0.3404  0.0969
  998YOPC   GL114465  15.776   3.274   6.363 -0.0667 -0.0850 -0.0354
  998YOPC   GL214466  15.559   3.222   6.618 -0.1598 -0.2274  0.0403
  998YOPC   C1A14467  15.966   3.611   6.587 -0.1405  0.2769 -0.0759
  998YOPC   D2A14468  16.176   3.643   6.971 -0.0428  0.3455 -0.2326
  998YOPC   C3A14469  16.137   3.745   7.383  0.0070 -0.0961 -0.2008
  998YOPC   C4A14470  16.045   4.060   7.668  0.2839 -0.0892  0.5109
  998YOPC   C1B14471  15.569   3.328   7.094  0.0093  0.1044  0.0131
  998YOPC   C2B14472  15.664   3.405   7.482 -0.2010  0.1212  0.2220
  998YOPC   D3B14473  16.023   3.378   7.731  0.1002 -0.1015 -0.1142
  998YOPC   C4B14474  16.376   3.331   7.920  0.3044  0.0463 -0.0266
  999YOPC   NC314475   2.420   4.078   5.911 -0.1689 -0.0569 -0.0037
  999YOPC   PO414476   1.985   4.120   5.905 -0.0022  0.1936 -0.2852
  999YOPC   GL114477   1.950   4.123   6.306 -0.1885 -0.2722  0.2684
  999YOPC   GL214478   2.045   3.950   6.449  0.2836 -0.0054 -0.1487
  999YOPC   C1A14479   2.151   4.431   6.651  0.0603  0.3649  0.0225
  999YOPC   D2A14480   1.974   4.805   6.970  0.0180  0.0105 -0.0063
  999YOPC   C3A14481   2.051   4.808   7.461 -0.1179 -0.1705 -0.0290
  999YOPC   C4A14482   1.988   4.680   7.916 -0.0100 -0.2766  0.1448
  999YOPC   C1B14483   2.070   4.003   6.864 -0.2540 -0.0787  0.0210
  999YOPC   C2B14484   2.110   4.324   7.163  0.3577 -0.0830 -0.3113
  999YOPC   D3B14485   2.435   4.407   7.480  0.2067 -0.1025  0.1347
  999YOPC   C4B14486   2.529   4.692   7.750  0.1710 -0.1652  0.1110
 1000YOPC   NC314487   0.816  17.980   5.945 -0.0255 -0.3095 -0.1738
 1000YOPC   PO414488   0.714  17.937   6.270  0.1612  0.0604  0.2405
 1000YOPC   GL114489   1.071  17.878   6.609  0.1017  0.2316 -0.1217
 1000YOPC   GL214490   1.321  18.019   6.546 -0.1184  0.0586  0.2292
 1000YOPC   C1A14491   1.234  18.036   7.034  0.0125  0.3282  0.2711
 1000YOPC   D2A14492   1.585  18.321   7.099 -0.0553  0.0355 -0.2787
 1000YOPC   C3A14493   1.550  18.404   7.450  0.1454 -0.2227 -0.2327
 1000YOPC   C4A14494   1.508  18.571   7.934 -0.1881  0.3688 -0.2774
 1000YOPC   C1B14495   1.783  18.114   6.709 -0.0047  0.1535  0.1295
 1000YOPC   C2B14496   2.101  17.791   6.724  0.0868 -0.0385 -0.2723
 1000YOPC   D3B14497   2.094  17.634   7.158  0.1878  0.0477  0.2481
 1000YOPC   C4B14498   2.209  17.793   7.532 -0.0765 -0.1638 -0.1577
 1001YOPC   NC314499  16.018  10.225   6.292  0.0195 -0.0764  0.1091
 1001YOPC   PO414500  16.417   9.993   6.194 -0.2782  0.1153 -0.0604
 1001YOPC   GL114501  16.297  10.049   6.717  0.1729 -0.1063  0.4688
 1001YOPC   GL214502  15.966   9.943   6.700 -0.0222  0.2069  0.0651
 1001YOPC   C1A14503  16.362   9.984   7.102  0.0953 -0.1424 -0.1841
 1001YOPC   D2A14504  16.394   9.906   7.458 -0.1906 -0.1640  0.2430
 1001YOPC   C3A14505  16.666   9.947   7.620 -0.2556 -0.1583 -0.1031
 1001YOPC   C4A14506  16.947  10.226   7.831  0.0441  0.1863 -0.3311
 1001YOPC   C1B14507  16.021   9.584   7.012 -0.0035  0.1084 -0.1285
 1001YOPC   C2B14508  16.081   9.535   7.456  0.3996  0.1050  0.1402
 1001YOPC   D3B14509  16.150   9.689   7.859 -0.0208 -0.0229 -0.1335
 1001YOPC   C4B14510  16.203   9.632   8.312  0.1712  0.1285 -0.1552
 1002YOPC   NC314511  16.674  10.176   5.753 -0.0616  0.1377 -0.0413
 1002YOPC   PO414512  16.739  10.641   5.940  0.0221 -0.2068  0.3129
 1002YOPC   GL114513  16.560  10.747   6.385  0.0242 -0.3764  0.0978
 1002YOPC   GL214514  16.348  10.583   6.485  0.2294  0.1195 -0.0893
 1002YOPC   C1A14515  16.256  10.936   6.795 -0.1488  0.2812 -0.3881
 1002YOPC   D2A14516  16.197  10.760   7.280  0.2553  0.0241 -0.2060
 1002YOPC   C3A14517  15.979  10.903   7.585  0.4145  0.0776  0.0819
 1002YOPC   C4A14518  16.134  10.952   7.970 -0.3832 -0.2021  0.1601
 1002YOPC   C1B14519  16.443  10.527   6.929 -0.0299 -0.0872  0.1957
 1002YOPC   C2B14520  16.506  10.428   7.399 -0.1524  0.3398  0.1360
 1002YOPC   D3B14521  16.233  10.414   7.716 -0.1257 -0.3115  0.2609
 1002YOPC   C4B14522  16.200  10.477   8.177  0.1715  0.0705  0.3025
 1003YOPC   NC314523   7.265  11.419   5.660 -0.1561 -0.0791  0.0288
 1003YOPC   PO414524   7.534  11.090   5.560 -0.1102  0.2355  0.0937
 1003YOPC   GL114525   7.552  11.198   5.985 -0.0712  0.3409 -0.2090
 1003YOPC   GL214526   7.291  11.317   6.142 -0.4674  0.2138 -0.2230
 1003YOPC   C1A14527   7.727  11.492   6.341  0.1940  0.1118 -0.0881
 1003YOPC   D2A14528   8.035  11.784   6.478 -0.5409 -0.2361  0.2192
 1003YOPC   C3A14529   7.957  12.261   6.507  0.3428 -0.1950 -0.0459
 1003YOPC   C4A14530   8.127  12.691   6.624 -0.2582 -0.3844 -0.0128
 1003YOPC   C1B14531   7.159  11.562   6.454  0.0225  0.0677  0.2717
 1003YOPC   C2B14532   7.301  11.502   6.863 -0.1432 -0.2948 -0.2648
 1003YOPC   D3B14533   7.195  11.728   7.266 -0.0436  0.1830  0.2247
 1003YOPC   C4B14534   7.309  11.832   7.690 -0.3650 -0.3098  0.2987
 1004YOPC   NC314535  13.509   7.586   5.880 -0.0475 -0.1827 -0.0289
 1004YOPC   PO414536  13.262   8.013   5.813 -0.3775 -0.1353  0.0298
 1004YOPC   GL114537  13.312   8.081   6.307  0.0864  0.2471  0.1772
 1004YOPC   GL214538  13.219   7.717   6.355  0.1199 -0.4316  0.1223
 1004YOPC   C1A14539  13.415   8.305   6.669  0.5223  0.0772 -0.1234
 1004YOPC   D2A14540  13.570   8.228   7.088  0.1564  0.2768  0.0784
 1004YOPC   C3A14541  13.513   8.370   7.462  0.3179 -0.0023  0.2306
 1004YOPC   C4A14542  13.325   8.673   7.547  0.1320  0.4125  0.0817
 1004YOPC   C1B14543  13.434   7.775   6.723  0.1834  0.0337 -0.2163
 1004YOPC   C2B14544  13.791   7.730   6.982  0.2081  0.3303 -0.0317
 1004YOPC   D3B14545  13.892   7.972   7.407 -0.1583  0.0120 -0.3268
 1004YOPC   C4B14546  13.898   8.225   7.842  0.1158  0.1261 -0.1893
 1005YOPC   NC314547  12.974   0.946   6.471 -0.2487 -0.1515  0.4150
 1005YOPC   PO414548  13.366   1.171   6.490  0.0047 -0.0772 -0.1606
 1005YOPC   GL114549  13.172   1.297   6.814 -0.1597 -0.1355 -0.0876
 1005YOPC   GL214550  12.804   1.259   6.875  0.3492  0.0566  0.2031
 1005YOPC   C1A14551  13.095   1.411   7.248  0.0780  0.1776  0.1589
 1005YOPC   D2A14552  13.165   1.373   7.710 -0.3334  0.3516  0.0142
 1005YOPC   C3A14553  12.991   1.627   8.127  0.2925  0.1777  0.1291
 1005YOPC   C4A14554  12.867   1.682   8.635  0.1268  0.3008  0.1773
 1005YOPC   C1B14555  13.047   0.929   7.114 -0.0446 -0.0111 -0.0641
 1005YOPC   C2B14556  13.188   0.729   7.412 -0.2315 -0.1318  0.0610
 1005YOPC   D3B14557  13.221   0.902   7.746  0.1579 -0.2497  0.1560
 1005YOPC   C4B14558  13.144   1.159   8.114  0.1640 -0.1448 -0.0557
 1006YOPC   NC314559  14.848   0.965   6.261  0.1644 -0.1079  0.3213
 1006YOPC   PO414560  14.882   0.500   6.251  0.4229  0.1049  0.0324
 1006YOPC   GL114561  15.046   0.455   6.642 -0.0502 -0.0754 -0.0516
 1006YOPC   GL214562  15.398   0.512   6.679 -0.1539 -0.0435 -0.1924
 1006YOPC   C1A14563  14.905   0.374   6.955 -0.0161  0.1663 -0.3919
 1006YOPC   D2A14564  14.790   0.295   7.317 -0.1572 -0.0730 -0.2858
 1006YOPC   C3A14565  14.978   0.480   7.673 -0.0651 -0.2017 -0.1157
 1006YOPC   C4A14566  15.123   0.454   8.088  0.3174 -0.0092 -0.0925
 1006YOPC   C1B14567  15.313   0.549   7.215  0.2642  0.1448  0.0739
 1006YOPC   C2B14568  15.265   0.834   7.505 -0.2370 -0.0485  0.0076
 1006YOPC   D3B14569  15.197   0.906   7.996  0.2304 -0.2022 -0.0263
 1006YOPC   C4B14570  15.063   0.949   8.383  0.2043 -0.2353 -0.2288
 1007YOPC   NC314571   9.060   7.696   6.024  0.1012 -0.0574 -0.3275
 1007YOPC   PO414572   9.026   7.965   6.372  0.2361  0.2793 -0.2182
 1007YOPC   GL114573   9.180   8.079   6.703 -0.1356 -0.1658  0.0827
 1007YOPC   GL214574   9.563   8.259   6.783 -0.0878 -0.0068 -0.1571
 1007YOPC   C1A14575   9.024   8.254   7.037 -0.1556 -0.1610  0.1581
 1007YOPC   D2A14576   9.161   8.184   7.395  0.0086  0.1673  0.1683
 1007YOPC   C3A14577   8.965   8.218   7.853 -0.1542  0.1676  0.0963
 1007YOPC   C4A14578   8.844   8.410   8.176 -0.1621  0.0928  0.0742
 1007YOPC   C1B14579   9.683   8.195   7.270  0.0178 -0.1341 -0.1416
 1007YOPC   C2B14580   9.876   8.195   7.702 -0.1286  0.0865 -0.0550
 1007YOPC   D3B14581   9.831   7.737   7.866  0.3556 -0.0312  0.2243
 1007YOPC   C4B14582   9.690   7.429   8.008  0.4088 -0.0850  0.0343
 1008YOPC   NC314583   4.880   6.943   5.729  0.0826 -0.1640 -0.0242
 1008YOPC   PO414584   4.383   7.119   5.806  0.1022  0.1343  0.2917
 1008YOPC   GL114585   4.267   7.425   6.125  0.0086 -0.1917  0.2863
 1008YOPC   GL214586   4.475   7.684   6.141  0.0579 -0.0066 -0.0697
 1008YOPC   C1A14587   3.869   7.506   6.472  0.0750 -0.1821  0.1856
 1008YOPC   D2A14588   3.464   7.479   6.585 -0.3664  0.2946 -0.1348
 1008YOPC   C3A14589   3.114   7.570   6.364 -0.2964  0.2605  0.0245
 1008YOPC   C4A14590   2.741   7.556   6.384 -0.3383  0.0253  0.0237
 1008YOPC   C1B14591   4.521   7.614   6.554 -0.0166  0.0952  0.1493
 1008YOPC   C2B14592   4.484   7.485   6.933 -0.1681 -0.0204  0.0411
 1008YOPC   D3B14593   4.116   7.534   6.923 -0.0440 -0.2490  0.1684
 1008YOPC   C4B14594   3.756   7.337   7.000 -0.0417 -0.0074 -0.2938
 1009YOPC   NC314595  15.787   1.732   6.303  0.1480  0.1736  0.1264
 1009YOPC   PO414596  15.594   1.349   6.196  0.0212  0.0612 -0.0252
 1009YOPC   GL114597  15.473   1.335   6.603 -0.1225 -0.1347 -0.3068
 1009YOPC   GL214598  15.548   1.037   6.854 -0.4010  0.1866  0.1195
 1009YOPC   C1A14599  15.701   1.533   6.912 -0.1721  0.0576  0.2313
 1009YOPC   D2A14600  15.654   1.596   7.330 -0.0211  0.0394  0.0799
 1009YOPC   C3A14601  15.856   1.460   7.774 -0.0548 -0.1551  0.0454
 1009YOPC   C4A14602  16.209   1.624   7.907 -0.1703 -0.0725  0.0412
 1009YOPC   C1B14603  15.576   1.103   7.249  0.2715  0.1238  0.0515
 1009YOPC   C2B14604  15.438   1.249   7.685 -0.3358 -0.3061 -0.4053
 1009YOPC   D3B14605  15.631   1.162   8.101  0.1667 -0.0500  0.2984
 1009YOPC   C4B14606  15.921   1.399   8.274  0.1322  0.2473 -0.1619
 1010YOPC   NC314607   8.969  14.353   5.571  0.0235 -0.0851  0.0572
 1010YOPC   PO414608   8.733  14.444   5.895  0.1008 -0.0423  0.0747
 1010YOPC   GL114609   8.771  14.502   6.279 -0.1090 -0.1692 -0.2481
 1010YOPC   GL214610   8.824  14.181   6.353  0.0044  0.1611  0.2403
 1010YOPC   C1A14611   8.984  14.645   6.643  0.0672  0.0091  0.1530
 1010YOPC   D2A14612   9.022  14.674   7.043 -0.0725 -0.4448 -0.1079
 1010YOPC   C3A14613   9.303  14.759   7.480 -0.1577  0.1010  0.3153
 1010YOPC   C4A14614   9.524  14.998   7.729  0.1134 -0.1339  0.0364
 1010YOPC   C1B14615   8.744  14.144   6.772  0.0926 -0.0554  0.0276
 1010YOPC   C2B14616   8.716  14.182   7.160 -0.0238 -0.1951 -0.2774
 1010YOPC   D3B14617   8.650  14.514   7.422 -0.0593 -0.0743  0.2404
 1010YOPC   C4B14618   8.507  14.544   7.904 -0.0237  0.1458 -0.2161
 1011YOPC   NC314619   4.033  17.503   5.865 -0.1722  0.2507 -0.1044
 1011YOPC   PO414620   4.054  17.855   5.927 -0.3597 -0.3160  0.2634
 1011YOPC   GL114621   3.900  17.858   6.239 -0.1924  0.0857  0.0168
 1011YOPC   GL214622   3.643  17.712   6.255 -0.1675  0.1243 -0.1433
 1011YOPC   C1A14623   3.830  17.897   6.691 -0.2802 -0.4185  0.0107
 1011YOPC   D2A14624   3.772  18.040   7.157 -0.1603 -0.0768 -0.0263
 1011YOPC   C3A14625   3.805  17.612   7.571  0.0835 -0.0855  0.1342
 1011YOPC   C4A14626   3.927  17.616   7.981 -0.0220 -0.2530 -0.0737
 1011YOPC   C1B14627   3.567  17.399   6.607 -0.2404 -0.0777 -0.0909
 1011YOPC   C2B14628   3.582  17.480   7.004  0.0606 -0.2061  0.0735
 1011YOPC   D3B14629   3.629  17.209   7.277 -0.2640 -0.1079  0.0522
 1011YOPC   C4B14630   3.692  17.163   7.761 -0.0586  0.0275  0.0553
 1012YOPC   NC314631   6.983  16.803   5.453  0.0209  0.1293  0.1113
 1012YOPC   PO414632   7.371  16.817   5.713  0.0641  0.1723 -0.3384
 1012YOPC   GL114633   7.634  16.738   6.047 -0.0307 -0.1327  0.0423
 1012YOPC   GL214634   7.697  16.429   6.120 -0.1265 -0.0930 -0.0394
 1012YOPC   C1A14635   7.813  16.800   6.525 -0.1454  0.0592  0.2284
 1012YOPC   D2A14636   7.719  16.784   6.957 -0.3302 -0.1995  0.0774
 1012YOPC   C3A14637   7.574  17.111   7.226 -0.5584  0.1792  0.0709
 1012YOPC   C4A14638   7.248  17.424   7.147 -0.0126 -0.1719 -0.1030
 1012YOPC   C1B14639   7.542  16.423   6.522 -0.1142 -0.0125  0.2214
 1012YOPC   C2B14640   7.447  16.403   6.902  0.0618  0.0543 -0.1818
 1012YOPC   D3B14641   7.510  16.385   7.174  0.1702 -0.1829 -0.2899
 1012YOPC   C4B14642   7.510  16.117   7.516 -0.0880 -0.3282 -0.3882
 1013YOPC   NC314643   4.037   3.279   6.101  0.0204  0.0681  0.0977
 1013YOPC   PO414644   3.910   3.007   6.265 -0.0349  0.0511  0.0775
 1013YOPC   GL114645   3.727   3.033   6.704  0.2110 -0.0679  0.3191
 1013YOPC   GL214646   3.389   3.008   6.579 -0.2284 -0.0005 -0.2894
 1013YOPC   C1A14647   3.602   2.651   6.954  0.1903 -0.0391  0.2691
 1013YOPC   D2A14648   3.783   2.404   7.278  0.0378  0.0030 -0.3796
 1013YOPC   C3A14649   3.961   2.474   7.650 -0.2427  0.3507  0.1250
 1013YOPC   C4A14650   4.190   2.281   7.864 -0.2066 -0.0011 -0.0282
 1013YOPC   C1B14651   3.189   3.102   6.996  0.1363  0.2214 -0.0331
 1013YOPC   C2B14652   2.993   2.969   7.348  0.0530 -0.1596 -0.1538
 1013YOPC   D3B14653   3.067   2.515   7.678 -0.0433 -0.1106  0.0539
 1013YOPC   C4B14654   3.032   2.559   8.137  0.1005  0.0751 -0.0980
 1014YOPC   NC314655  17.417   1.053   6.390  0.2445 -0.2921 -0.1184
 1014YOPC   PO414656  17.046   1.248   6.469 -0.1332  0.0204 -0.0615
 1014YOPC   GL114657  17.012   1.484   6.789  0.0234 -0.1904 -0.0792
 1014YOPC   GL214658  17.151   1.807   6.822 -0.1533 -0.0355 -0.0967
 1014YOPC   C1A14659  17.052   1.411   7.256  0.1722 -0.2718 -0.1880
 1014YOPC   D2A14660  17.205   1.609   7.699  0.0285  0.0486  0.1135
 1014YOPC   C3A14661  17.307   1.364   8.072  0.2417  0.1891  0.1133
 1014YOPC   C4A14662  17.356   1.460   8.482  0.2362  0.0106  0.1289
 1014YOPC   C1B14663  17.267   1.856   7.298 -0.1552 -0.1567  0.2600
 1014YOPC   C2B14664  17.199   2.134   7.541 -0.0752 -0.0868 -0.1997
 1014YOPC   D3B14665  17.096   2.040   7.910  0.1231  0.1155 -0.0051
 1014YOPC   C4B14666  17.043   1.900   8.228  0.2247 -0.0899  0.0329
 1015YOPC   NC314667  16.635   7.624   5.912  0.3308  0.1873  0.1587
 1015YOPC   PO414668  16.355   7.481   6.269 -0.0271 -0.0556  0.2657
 1015YOPC   GL114669  16.133   7.386   6.586 -0.1771 -0.2112  0.2840
 1015YOPC   GL214670  15.911   7.046   6.616  0.2263 -0.3209  0.2944
 1015YOPC   C1A14671  16.033   7.421   6.962 -0.2638  0.1997 -0.3612
 1015YOPC   D2A14672  15.891   7.477   7.346  0.2554  0.1233  0.0751
 1015YOPC   C3A14673  16.199   7.284   7.660 -0.1888 -0.0279  0.0417
 1015YOPC   C4A14674  16.433   6.914   7.678 -0.0456 -0.0053 -0.0955
 1015YOPC   C1B14675  15.711   7.062   7.118  0.3651 -0.0271  0.0472
 1015YOPC   C2B14676  15.665   7.113   7.569 -0.1583 -0.0983  0.1085
 1015YOPC   D3B14677  15.689   7.430   7.889  0.0297 -0.3311  0.3010
 1015YOPC   C4B14678  15.607   7.464   8.286  0.2286  0.0829  0.1107
 1016YOPC   NC314679   8.834  16.245   6.051  0.1444 -0.3725  0.2983
 1016YOPC   PO414680   8.504  16.304   5.931  0.0370 -0.1826  0.0936
 1016YOPC   GL114681   8.532  16.475   6.410  0.0141  0.0807  0.0676
 1016YOPC   GL214682   8.548  16.330   6.653  0.0509  0.0749  0.0047
 1016YOPC   C1A14683   8.279  16.735   6.764 -0.4130 -0.1540 -0.0183
 1016YOPC   D2A14684   8.327  16.807   7.158  0.1921  0.2372 -0.0544
 1016YOPC   C3A14685   8.060  16.954   7.449 -0.1580 -0.1090  0.0199
 1016YOPC   C4A14686   7.809  17.315   7.645  0.1133  0.1233  0.1628
 1016YOPC   C1B14687   8.502  16.369   7.092 -0.1461  0.0003 -0.2033
 1016YOPC   C2B14688   8.666  16.319   7.478 -0.0997  0.0656 -0.2047
 1016YOPC   D3B14689   8.649  15.931   7.718  0.0482  0.0332 -0.1986
 1016YOPC   C4B14690   8.487  15.508   8.019 -0.0717 -0.0125  0.1619
 1017YOPC   NC314691   3.473  13.284   5.223 -0.0343  0.4386 -0.1128
 1017YOPC   PO414692   3.666  13.360   5.592 -0.2629 -0.1659  0.0139
 1017YOPC   GL114693   3.774  13.366   5.990  0.0320  0.1647  0.0214
 1017YOPC   GL214694   4.063  13.317   6.224 -0.2204 -0.1228  0.0662
 1017YOPC   C1A14695   3.588  13.321   6.430 -0.0641 -0.3049  0.1542
 1017YOPC   D2A14696   3.544  13.223   6.848 -0.3386  0.1332  0.1257
 1017YOPC   C3A14697   3.270  13.198   7.158 -0.0854 -0.0469 -0.1568
 1017YOPC   C4A14698   2.928  13.018   7.368  0.0401 -0.2684  0.3762
 1017YOPC   C1B14699   4.000  13.000   6.564 -0.0281 -0.3032 -0.0185
 1017YOPC   C2B14700   3.958  12.651   6.783  0.0196  0.1590  0.0751
 1017YOPC   D3B14701   3.659  12.788   7.050  0.2363 -0.0598  0.1062
 1017YOPC   C4B14702   3.326  12.658   7.286 -0.3563  0.5681  0.4372
 1018YOPC   NC314703  17.018   4.949   5.805  0.0859 -0.1861  0.0084
 1018YOPC   PO414704  16.590   4.787   5.958  0.3051 -0.1212 -0.0705
 1018YOPC   GL114705  16.633   4.768   6.481 -0.2032 -0.0650 -0.0158
 1018YOPC   GL214706  16.482   4.479   6.290  0.2428  0.0921 -0.2617
 1018YOPC   C1A14707  16.621   4.986   6.782  0.0052  0.1795 -0.1621
 1018YOPC   D2A14708  16.570   5.407   6.750 -0.1812 -0.0343 -0.0461
 1018YOPC   C3A14709  16.346   5.508   7.123  0.1704 -0.0872  0.1060
 1018YOPC   C4A14710  16.133   5.550   7.652  0.0788  0.1456  0.1114
 1018YOPC   C1B14711  16.266   4.500   6.697  0.2997  0.2059  0.0041
 1018YOPC   C2B14712  15.913   4.594   6.842 -0.0245 -0.1789 -0.1747
 1018YOPC   D3B14713  15.796   4.649   7.236  0.0644  0.3201  0.0586
 1018YOPC   C4B14714  15.681   4.363   7.528  0.0451 -0.1545 -0.0348
 1019YOPC   NC314715  12.632   2.882   6.190 -0.2757 -0.3944  0.1629
 1019YOPC   PO414716  12.217   3.082   6.141 -0.2009 -0.0003 -0.1289
 1019YOPC   GL114717  12.185   2.842   6.495 -0.0127 -0.1022  0.0381
 1019YOPC   GL214718  12.371   2.888   6.639 -0.2253  0.0705 -0.5678
 1019YOPC   C1A14719  11.920   2.871   6.865 -0.1341  0.0078  0.2176
 1019YOPC   D2A14720  11.984   2.996   7.250  0.1752  0.1372  0.1613
 1019YOPC   C3A14721  11.796   2.946   7.641 -0.1508  0.0915 -0.1975
 1019YOPC   C4A14722  11.407   2.787   7.711 -0.1983 -0.0773 -0.0614
 1019YOPC   C1B14723  12.407   2.818   7.084 -0.0723  0.2252 -0.0870
 1019YOPC   C2B14724  12.385   2.784   7.428 -0.1567 -0.0004  0.0189
 1019YOPC   D3B14725  12.312   3.075   7.651  0.1684  0.3303  0.0154
 1019YOPC   C4B14726  11.912   3.292   7.934 -0.0448 -0.3000 -0.0456
 1020YOPC   NC314727  14.895  11.496   5.839  0.2113 -0.0276  0.2607
 1020YOPC   PO414728  15.255  11.434   6.138 -0.1390  0.4856 -0.2983
 1020YOPC   GL114729  15.529  11.485   6.503  0.3007 -0.0265 -0.1658
 1020YOPC   GL214730  15.419  11.756   6.506 -0.1133  0.1788 -0.1806
 1020YOPC   C1A14731  15.671  11.584   6.936 -0.0268  0.0390 -0.1063
 1020YOPC   D2A14732  15.797  11.818   7.196  0.3617 -0.4912 -0.1586
 1020YOPC   C3A14733  15.898  11.762   7.618  0.1642  0.0988  0.0188
 1020YOPC   C4A14734  16.141  11.415   7.769 -0.1234  0.5560  0.0593
 1020YOPC   C1B14735  15.199  11.712   6.836 -0.0943 -0.3236 -0.0643
 1020YOPC   C2B14736  14.860  11.479   7.043 -0.2729 -0.0836  0.0546
 1020YOPC   D3B14737  14.487  11.346   7.303  0.0696 -0.2575  0.2984
 1020YOPC   C4B14738  14.065  11.462   7.556 -0.0293  0.0973 -0.1279
 1021YOPC   NC314739  13.563   1.558   6.298  0.3216  0.1323 -0.0408
 1021YOPC   PO414740  13.197   1.981   6.371 -0.0013  0.1834 -0.2714
 1021YOPC   GL114741  13.405   1.797   6.697 -0.1759  0.0197  0.2613
 1021YOPC   GL214742  13.688   1.917   6.712 -0.0786 -0.0023 -0.1106
 1021YOPC   C1A14743  13.541   1.564   7.136 -0.1426 -0.0816  0.1123
 1021YOPC   D2A14744  13.532   1.676   7.477 -0.1972 -0.0863  0.3304
 1021YOPC   C3A14745  13.583   1.590   7.866 -0.0560  0.0441 -0.4203
 1021YOPC   C4A14746  13.522   1.713   8.297 -0.2465  0.1252  0.1762
 1021YOPC   C1B14747  13.591   2.102   7.116 -0.1382  0.1795  0.1431
 1021YOPC   C2B14748  13.500   2.214   7.551 -0.2642 -0.0588 -0.0144
 1021YOPC   D3B14749  13.393   2.011   7.887 -0.0488  0.2145 -0.1483
 1021YOPC   C4B14750  13.213   2.216   8.347 -0.1438 -0.1043 -0.0922
 1022YOPC   NC314751   7.643   0.822   5.712 -0.2275 -0.1900  0.1364
 1022YOPC   PO414752   7.285   0.659   5.545  0.0243 -0.0201 -0.1474
 1022YOPC   GL114753   7.309   0.533   6.053 -0.1086 -0.2336  0.2431
 1022YOPC   GL214754   7.306   0.199   6.075  0.0821 -0.2086 -0.2476
 1022YOPC   C1A14755   7.332   0.764   6.388 -0.1197  0.1014 -0.1568
 1022YOPC   D2A14756   7.417   0.707   6.781  0.1165 -0.1615  0.0953
 1022YOPC   C3A14757   7.331   0.737   7.227 -0.1772  0.1025 -0.0265
 1022YOPC   C4A14758   7.615   0.761   7.645  0.2905 -0.1418  0.0260
 1022YOPC   C1B14759   7.147   0.289   6.464 -0.1146  0.0664  0.1800
 1022YOPC   C2B14760   7.067   0.263   6.822 -0.3464 -0.1604 -0.1618
 1022YOPC   D3B14761   7.051   0.334   7.110  0.1466  0.1814 -0.3084
 1022YOPC   C4B14762   7.020   0.466   7.533  0.3931  0.4090 -0.1121
 1023YOPC   NC314763   3.122   8.586   5.495 -0.2411 -0.2619 -0.1155
 1023YOPC   PO414764   2.957   8.551   5.887  0.3737  0.0748  0.1210
 1023YOPC   GL114765   3.038   8.847   6.216  0.0647 -0.3655 -0.0363
 1023YOPC   GL214766   3.027   8.698   6.499 -0.0178 -0.0822 -0.0585
 1023YOPC   C1A14767   3.429   8.982   6.333  0.0676  0.1212 -0.0960
 1023YOPC   D2A14768   3.774   8.830   6.579  0.3427 -0.1892  0.1554
 1023YOPC   C3A14769   3.688   8.887   6.945 -0.1868 -0.1896  0.2235
 1023YOPC   C4A14770   3.507   9.117   7.205  0.0308 -0.1355 -0.0974
 1023YOPC   C1B14771   2.902   8.496   6.900 -0.0873 -0.1488 -0.2287
 1023YOPC   C2B14772   2.836   8.482   7.272  0.0575  0.0337 -0.0435
 1023YOPC   D3B14773   2.536   8.178   7.372 -0.1927  0.1723  0.0800
 1023YOPC   C4B14774   2.386   7.812   7.690  0.1307  0.0643 -0.1996
 1024YOPC   NC314775   5.699   7.675   6.014  0.0881 -0.0985  0.2215
 1024YOPC   PO414776   5.248   7.723   5.894  0.0051  0.1320  0.0708
 1024YOPC   GL114777   5.015   7.532   6.226  0.0036  0.0269  0.2436
 1024YOPC   GL214778   4.770   7.247   6.186  0.0604 -0.1289  0.2076
 1024YOPC   C1A14779   5.020   7.667   6.686  0.1181 -0.2143 -0.1362
 1024YOPC   D2A14780   4.821   7.936   6.922  0.1787  0.1951 -0.0528
 1024YOPC   C3A14781   4.622   7.801   7.340 -0.3093 -0.0819  0.0779
 1024YOPC   C4A14782   4.283   7.530   7.498  0.0879  0.0070  0.0961
 1024YOPC   C1B14783   4.598   7.007   6.480 -0.1283 -0.2124  0.4898
 1024YOPC   C2B14784   4.466   6.688   6.632  0.0243  0.5492  0.3989
 1024YOPC   D3B14785   4.409   6.753   7.063  0.2674  0.0240  0.0370
 1024YOPC   C4B14786   4.501   7.103   7.269 -0.0615 -0.1990  0.1176
 1025YOPC   NC314787   7.029   3.005   5.728 -0.0162 -0.1531 -0.0235
 1025YOPC   PO414788   6.959   3.382   5.954 -0.0098  0.0134  0.0985
 1025YOPC   GL114789   6.829   3.355   6.331  0.2011  0.0243  0.1663
 1025YOPC   GL214790   6.881   3.609   6.430  0.0849 -0.1130  0.2177
 1025YOPC   C1A14791   6.737   3.137   6.718 -0.1649  0.0732 -0.2959
 1025YOPC   D2A14792   6.761   3.212   7.163 -0.2243  0.1638  0.1834
 1025YOPC   C3A14793   6.992   3.015   7.402  0.1404 -0.0394 -0.2355
 1025YOPC   C4A14794   7.187   3.174   7.836  0.2633  0.4342 -0.1927
 1025YOPC   C1B14795   6.942   3.535   6.846  0.0616  0.1044  0.0937
 1025YOPC   C2B14796   7.156   3.468   7.223 -0.2324  0.3520 -0.2060
 1025YOPC   D3B14797   7.013   3.511   7.620  0.1776  0.0584  0.0132
 1025YOPC   C4B14798   6.942   3.904   7.892 -0.1104  0.1059  0.2628
 1026YOPC   NC314799   2.454   8.168   5.895 -0.0039 -0.1753 -0.3684
 1026YOPC   PO414800   2.331   7.850   6.037 -0.6686 -0.3425  0.1649
 1026YOPC   GL114801   2.019   7.946   6.381  0.1936  0.1110  0.0001
 1026YOPC   GL214802   1.962   8.298   6.371 -0.1289  0.2456 -0.1590
 1026YOPC   C1A14803   2.050   7.943   6.741 -0.3131 -0.0914  0.1320
 1026YOPC   D2A14804   2.023   8.134   7.152 -0.0014 -0.1162  0.1223
 1026YOPC   C3A14805   1.653   8.089   7.521 -0.0501 -0.2198  0.0228
 1026YOPC   C4A14806   1.287   8.253   7.622 -0.1613  0.2042 -0.0048
 1026YOPC   C1B14807   2.015   8.439   6.740 -0.0333 -0.0953 -0.0009
 1026YOPC   C2B14808   2.382   8.463   6.992  0.1146 -0.0970 -0.0561
 1026YOPC   D3B14809   2.259   8.669   7.282 -0.2360  0.0232  0.1386
 1026YOPC   C4B14810   2.532   8.824   7.516 -0.1235 -0.1383  0.1734
 1027YOPC   NC314811   1.466   4.122   6.066  0.1793 -0.1762 -0.0859
 1027YOPC   PO414812   1.765   4.531   6.126  0.1509  0.0961  0.1798
 1027YOPC   GL114813   1.642   4.818   6.453 -0.2083 -0.1015 -0.1254
 1027YOPC   GL214814   1.706   5.107   6.567 -0.4955  0.2137 -0.1596
 1027YOPC   C1A14815   1.500   4.731   6.905  0.0027  0.2422  0.0690
 1027YOPC   D2A14816   1.621   4.650   7.318 -0.1837  0.0853  0.0611
 1027YOPC   C3A14817   1.582   4.912   7.688  0.1748 -0.1489 -0.1166
 1027YOPC   C4A14818   1.467   4.960   8.067 -0.0032  0.2661  0.0565
 1027YOPC   C1B14819   1.618   5.171   7.007  0.3684 -0.1558  0.1080
 1027YOPC   C2B14820   1.698   5.163   7.283  0.1956  0.0119 -0.0292
 1027YOPC   D3B14821   1.411   5.344   7.486 -0.1161 -0.0653 -0.0174
 1027YOPC   C4B14822   1.122   5.164   7.770 -0.2835 -0.0547  0.2559
 1028YOPC   NC314823   0.238   4.683   6.120  0.5086  0.0270  0.2334
 1028YOPC   PO414824   0.034   4.342   6.224 -0.0970 -0.2069 -0.1644
 1028YOPC   GL114825  -0.103   4.190   6.568  0.0717  0.1680 -0.2929
 1028YOPC   GL214826   0.080   4.003   6.602  0.0457 -0.0975  0.2387
 1028YOPC   C1A14827  -0.346   4.391   6.962 -0.1002 -0.0784 -0.1850
 1028YOPC   D2A14828  -0.528   4.498   7.317  0.2097 -0.0309 -0.0372
 1028YOPC   C3A14829  -0.540   4.279   7.805  0.0078  0.2477 -0.0776
 1028YOPC   C4A14830  -0.707   4.162   8.206  0.2856  0.2570  0.1221
 1028YOPC   C1B14831  -0.148   3.958   6.997 -0.0722  0.2586 -0.4373
 1028YOPC   C2B14832  -0.237   4.132   7.384 -0.0195 -0.0104  0.1513
 1028YOPC   D3B14833  -0.002   4.002   7.750 -0.1144 -0.0757 -0.0846
 1028YOPC   C4B14834   0.330   4.215   7.934 -0.0971 -0.2019  0.0935
 1029YOPC   NC314835   4.121  14.270   6.051 -0.1953 -0.0813  0.2659
 1029YOPC   PO414836   3.743  14.250   5.910  0.1969  0.4467 -0.0601
 1029YOPC   GL114837   3.866  13.979   6.335  0.1131  0.0855 -0.1569
 1029YOPC   GL214838   3.838  13.744   6.292  0.3585 -0.0261  0.2206
 1029YOPC   C1A14839   3.906  14.030   6.726 -0.1440  0.1132  0.1182
 1029YOPC   D2A14840   3.886  14.254   7.149  0.2151 -0.0144 -0.0336
 1029YOPC   C3A14841   4.215  14.347   7.441  0.0328  0.0113  0.1428
 1029YOPC   C4A14842   4.367  14.378   7.805 -0.0241  0.1599  0.1692
 1029YOPC   C1B14843   4.004  13.528   6.726 -0.0403  0.1605  0.0857
 1029YOPC   C2B14844   4.108  13.657   7.108  0.0145 -0.1143 -0.0515
 1029YOPC   D3B14845   4.130  13.452   7.566  0.0375  0.2463 -0.1097
 1029YOPC   C4B14846   4.133  13.329   7.941  0.1767  0.0808 -0.5119
 1030YOPC   NC314847   6.182   8.499   6.034 -0.0324  0.2993 -0.0747
 1030YOPC   PO414848   6.500   8.812   6.174  0.3005  0.2179  0.1204
 1030YOPC   GL114849   6.664   8.931   6.559  0.2663 -0.0582  0.0074
 1030YOPC   GL214850   6.844   8.793   6.704 -0.1010  0.0117  0.0641
 1030YOPC   C1A14851   6.647   9.141   6.956  0.1473 -0.1247 -0.0847
 1030YOPC   D2A14852   6.779   9.072   7.311 -0.0212  0.0876  0.1758
 1030YOPC   C3A14853   6.583   9.132   7.679  0.1511 -0.1659  0.1327
 1030YOPC   C4A14854   6.457   9.150   8.112  0.0635  0.0328 -0.0706
 1030YOPC   C1B14855   6.645   8.589   6.955  0.0884  0.0838 -0.0930
 1030YOPC   C2B14856   6.683   8.584   7.454  0.1408 -0.2784 -0.0969
 1030YOPC   D3B14857   6.277   8.737   7.768 -0.0553 -0.1969  0.0835
 1030YOPC   C4B14858   5.997   8.799   8.179  0.0237  0.1390 -0.1010
 1031YOPC   NC314859   0.533   8.198   6.070 -0.1637 -0.2557 -0.0872
 1031YOPC   PO414860   0.374   8.617   5.824 -0.3778 -0.1180 -0.5217
 1031YOPC   GL114861   0.281   8.632   6.345 -0.0669  0.0027  0.4400
 1031YOPC   GL214862   0.114   8.940   6.510  0.1507 -0.4917  0.0828
 1031YOPC   C1A14863   0.278   8.577   6.860 -0.0188 -0.2022  0.1120
 1031YOPC   D2A14864   0.481   8.705   7.104  0.1263 -0.2500  0.0866
 1031YOPC   C3A14865   0.262   8.566   7.469  0.0625  0.0934  0.2014
 1031YOPC   C4A14866   0.029   8.260   7.680 -0.3223  0.1323 -0.0978
 1031YOPC   C1B14867   0.235   9.119   6.868 -0.0487 -0.0277 -0.2232
 1031YOPC   C2B14868   0.363   9.228   7.255  0.3362 -0.2411 -0.1884
 1031YOPC   D3B14869   0.128   9.185   7.578  0.1670 -0.2570  0.1877
 1031YOPC   C4B14870   0.174   9.019   7.895  0.2183  0.0468 -0.2929
 1032YOPC   NC314871  16.155  12.519   5.860 -0.0055 -0.0565 -0.0616
 1032YOPC   PO414872  16.549  12.403   5.850 -0.1052 -0.0131 -0.0076
 1032YOPC   GL114873  16.427  12.342   6.315  0.0523 -0.1308 -0.1859
 1032YOPC   GL214874  16.778  12.199   6.380 -0.1653 -0.1458 -0.1351
 1032YOPC   C1A14875  16.494  12.215   6.808 -0.3091 -0.1713 -0.0966
 1032YOPC   D2A14876  16.420  12.324   7.204 -0.1423 -0.4408  0.0856
 1032YOPC   C3A14877  16.208  12.132   7.559 -0.0744 -0.1508  0.4284
 1032YOPC   C4A14878  16.208  12.326   7.984 -0.0299 -0.0158  0.1258
 1032YOPC   C1B14879  16.992  12.284   6.743  0.1653  0.0601 -0.1166
 1032YOPC   C2B14880  16.994  12.267   7.160  0.1323 -0.1548  0.0534
 1032YOPC   D3B14881  17.300  12.396   7.381  0.0004  0.0640  0.0788
 1032YOPC   C4B14882  17.755  12.429   7.547  0.1388  0.1192  0.1904
 1033YOPC   NC314883  11.411   5.582   5.955  0.0187 -0.4078  0.0520
 1033YOPC   PO414884  11.514   5.107   6.030 -0.1981  0.0129 -0.0453
 1033YOPC   GL114885  11.580   4.817   6.417  0.1026 -0.0823 -0.1716
 1033YOPC   GL214886  11.246   4.836   6.454 -0.2491  0.1133  0.1205
 1033YOPC   C1A14887  11.648   4.763   6.820  0.2603 -0.2556 -0.0090
 1033YOPC   D2A14888  11.783   4.776   7.190  0.0900  0.3190  0.1945
 1033YOPC   C3A14889  11.502   4.759   7.580  0.0677  0.2095  0.0920
 1033YOPC   C4A14890  11.138   4.663   7.826  0.3518 -0.2187 -0.4702
 1033YOPC   C1B14891  11.195   4.603   6.926  0.0479  0.0337  0.2097
 1033YOPC   C2B14892  11.097   4.547   7.305 -0.2004  0.2762  0.0207
 1033YOPC   D3B14893  10.831   4.806   7.482  0.0258 -0.1920 -0.2002
 1033YOPC   C4B14894  10.609   4.869   7.976  0.0686 -0.0322 -0.2053
 1034YOPC   NC314895   5.085   4.380   5.900 -0.2354 -0.0125 -0.2253
 1034YOPC   PO414896   5.425   4.353   6.158 -0.0796  0.3351 -0.2820
 1034YOPC   GL114897   5.371   4.598   6.533  0.1752 -0.1916 -0.2819
 1034YOPC   GL214898   5.694   4.693   6.622 -0.1219  0.0915  0.2190
 1034YOPC   C1A14899   5.056   4.605   6.880 -0.1787  0.0111  0.3980
 1034YOPC   D2A14900   5.128   4.545   7.317 -0.2753  0.2357  0.1314
 1034YOPC   C3A14901   5.096   4.850   7.548 -0.1169  0.0103  0.1424
 1034YOPC   C4A14902   5.326   5.145   7.842  0.0821  0.1108 -0.1079
 1034YOPC   C1B14903   5.963   4.587   7.043  0.1574 -0.2284 -0.0075
 1034YOPC   C2B14904   6.030   4.368   7.408 -0.1206 -0.2528  0.1049
 1034YOPC   D3B14905   6.197   4.590   7.738  0.0879  0.0395 -0.0983
 1034YOPC   C4B14906   6.331   4.463   8.116 -0.3604  0.2014  0.1689
 1035YOPC   NC314907  17.067   6.258   5.889 -0.0668  0.1728  0.2227
 1035YOPC   PO414908  17.390   6.293   6.116 -0.0186  0.1551  0.1413
 1035YOPC   GL114909  17.294   6.333   6.458  0.0874  0.2295  0.1216
 1035YOPC   GL214910  17.355   6.621   6.505  0.2914 -0.1557 -0.0679
 1035YOPC   C1A14911  17.466   6.259   6.809  0.2253  0.0187  0.2056
 1035YOPC   D2A14912  17.759   6.167   7.039  0.1606  0.2346 -0.1979
 1035YOPC   C3A14913  18.082   6.367   6.927  0.0444  0.0704  0.2463
 1035YOPC   C4A14914  18.261   6.421   6.618  0.2042 -0.2122 -0.3864
 1035YOPC   C1B14915  17.238   6.744   6.975  0.2834 -0.0462  0.2402
 1035YOPC   C2B14916  16.999   6.673   7.287 -0.1336 -0.2260 -0.1087
 1035YOPC   D3B14917  16.925   6.834   7.667  0.2380  0.2274 -0.1411
 1035YOPC   C4B14918  16.845   6.872   8.166  0.1555 -0.3440 -0.1136
 1036YOPC   NC314919   2.231   2.215   5.850  0.0645 -0.1562 -0.3431
 1036YOPC   PO414920   2.118   1.859   6.014  0.0205 -0.3423  0.3403
 1036YOPC   GL114921   2.160   1.961   6.454  0.0485  0.3574 -0.0102
 1036YOPC   GL214922   2.369   2.197   6.349  0.0833  0.0851  0.2185
 1036YOPC   C1A14923   2.035   2.011   6.921  0.1498  0.2532  0.0372
 1036YOPC   D2A14924   2.114   2.217   7.244  0.0371 -0.0322 -0.1037
 1036YOPC   C3A14925   2.318   2.177   7.551  0.1284  0.1846 -0.1465
 1036YOPC   C4A14926   2.733   2.081   7.647 -0.0482  0.0635 -0.2061
 1036YOPC   C1B14927   2.584   2.056   6.623  0.0775  0.2229 -0.1412
 1036YOPC   C2B14928   2.819   2.175   6.924 -0.1320  0.1157  0.0566
 1036YOPC   D3B14929   3.028   1.907   7.139 -0.0690 -0.0680  0.2652
 1036YOPC   C4B14930   2.928   1.622   7.619 -0.1303  0.0137  0.0730
 1037YOPC   NC314931   5.695   4.745   6.114 -0.0993  0.2277 -0.0656
 1037YOPC   PO414932   5.992   5.091   6.137 -0.1850  0.1971  0.1823
 1037YOPC   GL114933   6.016   5.168   6.537 -0.0708  0.0967  0.0040
 1037YOPC   GL214934   6.199   5.305   6.603  0.0299  0.0366 -0.1739
 1037YOPC   C1A14935   6.002   5.180   7.023  0.0689  0.0666  0.2810
 1037YOPC   D2A14936   5.984   4.964   7.458  0.1914 -0.1014 -0.1933
 1037YOPC   C3A14937   5.785   5.073   7.772 -0.0777  0.1565 -0.1739
 1037YOPC   C4A14938   5.579   5.528   7.900  0.2815 -0.0384 -0.0330
 1037YOPC   C1B14939   6.395   5.481   6.985  0.4149 -0.0287  0.0894
 1037YOPC   C2B14940   6.419   5.380   7.306  0.2330 -0.0535 -0.0635
 1037YOPC   D3B14941   6.391   5.127   7.676  0.1436  0.3100  0.1577
 1037YOPC   C4B14942   6.491   5.342   8.143  0.0194 -0.0169 -0.2202
 1038YOPC   NC314943  17.976  16.769   6.021  0.1249  0.1190  0.1307
 1038YOPC   PO414944  18.376  16.990   6.062  0.1202 -0.0116 -0.3235
 1038YOPC   GL114945  18.304  16.706   6.379 -0.0022  0.2999 -0.2996
 1038YOPC   GL214946  18.014  16.577   6.492 -0.2326  0.2382  0.1806
 1038YOPC   C1A14947  18.381  16.369   6.737 -0.0846 -0.3239 -0.1078
 1038YOPC   D2A14948  18.424  16.180   7.034 -0.2105  0.0328 -0.0106
 1038YOPC   C3A14949  18.369  16.201   7.472  0.0459 -0.1373 -0.1152
 1038YOPC   C4A14950  18.115  16.239   7.729  0.2399  0.1070  0.0722
 1038YOPC   C1B14951  17.911  16.387   6.917  0.0680 -0.3580 -0.1905
 1038YOPC   C2B14952  17.982  16.100   7.177  0.3303 -0.1526 -0.3723
 1038YOPC   D3B14953  17.824  15.818   7.489 -0.1850  0.2402 -0.1745
 1038YOPC   C4B14954  17.466  15.600   7.737 -0.1180 -0.0155 -0.1532
 1039YOPC   NC314955   5.227   3.427   5.692 -0.0337  0.3229 -0.3408
 1039YOPC   PO414956   5.457   3.488   5.976 -0.2459  0.0558  0.4655
 1039YOPC   GL114957   5.339   3.485   6.481  0.0374 -0.0691 -0.0216
 1039YOPC   GL214958   5.018   3.367   6.434  0.0791  0.0694 -0.2165
 1039YOPC   C1A14959   5.403   3.515   6.950  0.0500 -0.2828  0.0232
 1039YOPC   D2A14960   5.548   3.395   7.272  0.2445 -0.2050 -0.2920
 1039YOPC   C3A14961   5.368   3.203   7.653 -0.2945  0.1312 -0.0852
 1039YOPC   C4A14962   5.212   3.453   8.072  0.1919 -0.0655  0.1061
 1039YOPC   C1B14963   4.926   3.515   6.869  0.2678  0.1337 -0.0895
 1039YOPC   C2B14964   4.690   3.477   7.221 -0.3644 -0.0059  0.1749
 1039YOPC   D3B14965   4.509   3.139   7.353 -0.1512  0.2767  0.0291
 1039YOPC   C4B14966   4.311   3.117   7.737 -0.1688 -0.0649 -0.1130
 1040YOPC   NC314967  12.006   8.555   6.305 -0.2117  0.1603 -0.3380
 1040YOPC   PO414968  12.402   8.738   6.173 -0.0359  0.4666  0.0170
 1040YOPC   GL114969  12.433   8.613   6.601  0.0105  0.3374 -0.0417
 1040YOPC   GL214970  12.355   8.330   6.746  0.3347  0.3968 -0.1105
 1040YOPC   C1A14971  12.583   8.963   6.919  0.0180  0.0713  0.1318
 1040YOPC   D2A14972  12.514   9.325   6.800  0.0771  0.1464  0.1679
 1040YOPC   C3A14973  12.386   9.580   7.141 -0.1042 -0.1368  0.0170
 1040YOPC   C4A14974  12.417   9.537   7.519 -0.2914  0.1211  0.0264
 1040YOPC   C1B14975  12.691   8.490   7.041 -0.0951 -0.2615  0.0870
 1040YOPC   C2B14976  12.895   8.350   7.369  0.0188 -0.1591 -0.0361
 1040YOPC   D3B14977  12.892   7.950   7.547 -0.5053  0.1782 -0.0759
 1040YOPC   C4B14978  12.692   7.964   7.846  0.0596 -0.1660  0.1124
 1041YOPC   NC314979  15.963  12.849   5.326 -0.0217 -0.1433  0.5565
 1041YOPC   PO414980  15.816  12.946   5.750  0.1442  0.0056  0.1212
 1041YOPC   GL114981  15.895  12.947   6.201  0.2668  0.0613 -0.4405
 1041YOPC   GL214982  15.826  13.139   6.485  0.5516  0.1373  0.0825
 1041YOPC   C1A14983  16.108  12.725   6.507  0.1864  0.1143  0.2381
 1041YOPC   D2A14984  16.227  12.615   6.852 -0.2197  0.1232  0.2738
 1041YOPC   C3A14985  16.124  12.740   7.276  0.2117 -0.0319  0.0204
 1041YOPC   C4A14986  15.962  12.749   7.647  0.1699 -0.1647  0.1034
 1041YOPC   C1B14987  15.998  13.087   6.878  0.1702  0.0520 -0.2006
 1041YOPC   C2B14988  16.099  13.195   7.336 -0.0636  0.0200 -0.3137
 1041YOPC   D3B14989  15.982  13.436   7.609  0.0273 -0.1326 -0.1650
 1041YOPC   C4B14990  15.884  13.362   8.170 -0.0041 -0.0760 -0.1613
 1042YOPC   NC314991   7.240  12.835   5.182  0.0157  0.0524 -0.2684
 1042YOPC   PO414992   7.025  12.664   5.531  0.0077  0.2105  0.0409
 1042YOPC   GL114993   6.860  12.899   5.888 -0.2074  0.2536 -0.0588
 1042YOPC   GL214994   7.071  12.712   6.079 -0.0376 -0.0061 -0.2422
 1042YOPC   C1A14995   6.870  13.190   6.241  0.0609  0.2980  0.2106
 1042YOPC   D2A14996   7.283  13.046   6.494  0.2544 -0.1654  0.0204
 1042YOPC   C3A14997   7.426  13.052   6.899  0.0813 -0.0064 -0.2095
 1042YOPC   C4A14998   7.148  13.239   7.295 -0.2337 -0.0405 -0.4343
 1042YOPC   C1B14999   7.002  12.514   6.362  0.1569  0.0573 -0.1645
 1042YOPC   C2B15000   7.084  12.381   6.811 -0.3178 -0.1006 -0.2055
 1042YOPC   D3B15001   6.927  12.210   7.174 -0.0012  0.0065 -0.1203
 1042YOPC   C4B15002   6.959  12.139   7.525 -0.0136 -0.0914  0.3680
 1043YOPC   NC315003  12.936   3.522   5.559  0.0096  0.3573 -0.1545
 1043YOPC   PO415004  13.036   3.404   6.077 -0.0337  0.1130  0.1222
 1043YOPC   GL115005  13.084   3.536   6.568  0.0290  0.1680 -0.1885
 1043YOPC   GL215006  12.897   3.883   6.637  0.5071  0.1776 -0.0063
 1043YOPC   C1A15007  12.875   3.445   6.953  0.1214 -0.1725 -0.3665
 1043YOPC   D2A15008  12.887   3.524   7.413 -0.0584  0.0805 -0.1008
 1043YOPC   C3A15009  12.792   3.378   7.821  0.0368 -0.0673  0.0758
 1043YOPC   C4A15010  12.667   3.569   8.223  0.0469 -0.0216 -0.0323
 1043YOPC   C1B15011  12.617   3.863   7.041  0.2429  0.0690  0.0261
 1043YOPC   C2B15012  12.709   4.037   7.459  0.1016 -0.0587 -0.0197
 1043YOPC   D3B15013  13.004   4.031   7.603  0.2569  0.1286 -0.1324
 1043YOPC   C4B15014  13.380   4.007   7.872 -0.1518 -0.0355  0.4333
 1044YOPC   NC315015   7.772  13.526   5.877  0.1444  0.1838 -0.1074
 1044YOPC   PO415016   7.968  13.822   5.927 -0.3006  0.0963  0.3488
 1044YOPC   GL115017   8.076  13.762   6.301 -0.0039  0.2092 -0.0237
 1044YOPC   GL215018   8.432  13.802   6.406 -0.0917 -0.1940  0.1881
 1044YOPC   C1A15019   7.956  13.590   6.760  0.3005  0.3405 -0.3190
 1044YOPC   D2A15020   7.652  13.455   7.083  0.2001 -0.1785 -0.1822
 1044YOPC   C3A15021   7.639  13.048   7.385 -0.0323 -0.0879  0.0555
 1044YOPC   C4A15022   7.734  12.616   7.607 -0.0283 -0.0206  0.1273
 1044YOPC   C1B15023   8.433  13.733   6.863 -0.2310 -0.4207  0.0304
 1044YOPC   C2B15024   8.564  13.604   7.198  0.1387 -0.0940 -0.0760
 1044YOPC   D3B15025   8.356  13.315   7.495 -0.1805  0.0275  0.0511
 1044YOPC   C4B15026   8.000  13.324   7.736 -0.0125 -0.2466 -0.0715
 1045YOPC   NC315027   4.318  11.801   5.785  0.2325 -0.1594 -0.0291
 1045YOPC   PO415028   3.982  11.925   5.397 -0.1924 -0.2715  0.0678
 1045YOPC   GL115029   3.719  12.021   5.769  0.3821  0.3673 -0.3477
 1045YOPC   GL215030   3.480  11.854   5.900 -0.1188  0.0965  0.1690
 1045YOPC   C1A15031   3.561  12.463   5.956  0.1013  0.4019  0.3218
 1045YOPC   D2A15032   3.616  12.798   6.309 -0.0848 -0.1541 -0.1796
 1045YOPC   C3A15033   3.220  12.895   6.637  0.0467  0.1467  0.0902
 1045YOPC   C4A15034   2.861  13.062   6.894  0.0782 -0.0216  0.0472
 1045YOPC   C1B15035   3.232  12.045   6.121  0.0228  0.0611 -0.2773
 1045YOPC   C2B15036   3.200  12.365   6.404  0.0306  0.4868  0.1921
 1045YOPC   D3B15037   2.917  12.302   6.802  0.2985  0.1047  0.0407
 1045YOPC   C4B15038   2.744  11.990   7.019 -0.1671  0.0252 -0.0807
 1046YOPC   NC315039   3.953   6.763   5.883  0.0371 -0.1292  0.0801
 1046YOPC   PO415040   3.955   6.356   5.997  0.1519 -0.0903 -0.1522
 1046YOPC   GL115041   3.948   6.439   6.502  0.2083 -0.0166 -0.4204
 1046YOPC   GL215042   3.672   6.198   6.703  0.0573 -0.0683 -0.0367
 1046YOPC   C1A15043   3.857   6.636   6.945  0.3640 -0.1635  0.0543
 1046YOPC   D2A15044   3.685   6.804   7.178  0.1864 -0.2959  0.0584
 1046YOPC   C3A15045   3.654   6.855   7.702 -0.1257 -0.1289  0.1753
 1046YOPC   C4A15046   3.360   7.032   8.055  0.0046  0.0345  0.1898
 1046YOPC   C1B15047   3.588   6.218   7.168 -0.2141  0.1071 -0.0625
 1046YOPC   C2B15048   3.765   6.387   7.490 -0.0909 -0.2050 -0.1326
 1046YOPC   D3B15049   4.064   6.753   7.469  0.3029 -0.1380 -0.3170
 1046YOPC   C4B15050   4.027   7.097   7.335 -0.1533  0.2051  0.0953
 1047YOPC   NC315051   5.862  15.247   5.614 -0.2023 -0.1784 -0.0592
 1047YOPC   PO415052   5.473  14.906   5.474  0.1783  0.0159  0.1096
 1047YOPC   GL115053   5.254  14.655   5.776 -0.1299  0.3552  0.0089
 1047YOPC   GL215054   5.021  14.850   5.746  0.0160  0.0542  0.2639
 1047YOPC   C1A15055   5.169  14.304   5.975  0.1755 -0.1607 -0.5282
 1047YOPC   D2A15056   5.333  14.148   6.367 -0.0482  0.1290 -0.0093
 1047YOPC   C3A15057   5.457  14.381   6.673  0.0121 -0.1724 -0.2332
 1047YOPC   C4A15058   5.519  14.582   7.100 -0.2475 -0.3071 -0.1648
 1047YOPC   C1B15059   4.768  14.626   6.105  0.1825  0.1658  0.2532
 1047YOPC   C2B15060   4.461  14.452   6.397 -0.0817  0.2335 -0.2300
 1047YOPC   D3B15061   4.569  14.507   6.831  0.0634  0.1832 -0.2286
 1047YOPC   C4B15062   4.657  14.432   7.230  0.1885  0.0252 -0.0610
 1048YOPC   NC315063   1.572  16.372   5.774 -0.2762  0.1254 -0.0374
 1048YOPC   PO415064   1.886  16.049   5.984 -0.0818  0.0701  0.0617
 1048YOPC   GL115065   2.029  15.872   6.393 -0.1394 -0.1895 -0.0820
 1048YOPC   GL215066   1.757  15.963   6.647  0.3724  0.0026  0.5504
 1048YOPC   C1A15067   2.254  15.909   6.794 -0.1944 -0.0345 -0.0706
 1048YOPC   D2A15068   2.673  15.858   7.081  0.0875 -0.1529 -0.0051
 1048YOPC   C3A15069   2.754  15.703   7.448  0.2385 -0.0631  0.0774
 1048YOPC   C4A15070   2.482  15.552   7.800 -0.2189  0.2386  0.1535
 1048YOPC   C1B15071   1.924  16.388   6.788  0.3224 -0.1120 -0.1412
 1048YOPC   C2B15072   2.114  16.810   6.691  0.0235 -0.2663 -0.2860
 1048YOPC   D3B15073   2.284  16.992   6.972 -0.2621 -0.2410 -0.2040
 1048YOPC   C4B15074   2.193  17.134   7.367 -0.1517  0.3537  0.0790
 1049YOPC   NC315075  13.192  17.099   6.071  0.1089 -0.2725 -0.1260
 1049YOPC   PO415076  13.148  16.707   6.275 -0.2285 -0.2717 -0.1706
 1049YOPC   GL115077  13.037  16.639   6.709 -0.0519 -0.2014 -0.2482
 1049YOPC   GL215078  12.940  16.422   6.815 -0.1544 -0.3972  0.0704
 1049YOPC   C1A15079  13.213  16.712   7.081  0.0017 -0.3004 -0.0975
 1049YOPC   D2A15080  13.185  16.691   7.503 -0.0110  0.0445 -0.1135
 1049YOPC   C3A15081  13.496  16.437   7.745  0.3634  0.4064 -0.2669
 1049YOPC   C4A15082  13.781  16.390   8.111  0.2640  0.1007 -0.1673
 1049YOPC   C1B15083  12.849  16.317   7.262  0.3370  0.0068  0.0179
 1049YOPC   C2B15084  13.127  16.131   7.590 -0.2561 -0.1837 -0.0767
 1049YOPC   D3B15085  13.004  15.946   7.991  0.0946 -0.1985  0.0384
 1049YOPC   C4B15086  12.665  15.824   8.020  0.4156 -0.0029  0.0903
 1050YOPC   NC315087   1.283  17.066   6.110 -0.0811  0.4594  0.1196
 1050YOPC   PO415088   1.217  16.610   6.138 -0.2538 -0.1864 -0.1186
 1050YOPC   GL115089   1.322  16.680   6.452  0.2337 -0.0958 -0.0042
 1050YOPC   GL215090   1.515  16.536   6.595  0.3141  0.1438 -0.2394
 1050YOPC   C1A15091   1.157  16.865   6.796  0.0930  0.3972 -0.1255
 1050YOPC   D2A15092   1.223  17.046   7.177  0.0427  0.2668 -0.1614
 1050YOPC   C3A15093   1.485  16.782   7.518  0.4144  0.2438 -0.0567
 1050YOPC   C4A15094   1.718  16.338   7.600 -0.0546  0.0747 -0.0132
 1050YOPC   C1B15095   1.500  16.546   7.080  0.1478 -0.3051 -0.1851
 1050YOPC   C2B15096   1.875  16.643   7.256 -0.2756 -0.2084 -0.1860
 1050YOPC   D3B15097   2.121  16.311   7.285  0.1336 -0.2809  0.0402
 1050YOPC   C4B15098   2.301  15.973   7.339  0.0562  0.0210 -0.0186
 1051YOPC   NC315099  17.360   9.696   6.091 -0.3665 -0.1520 -0.0163
 1051YOPC   PO415100  17.077  10.090   6.024 -0.1494  0.1369 -0.2872
 1051YOPC   GL115101  17.108   9.872   6.481  0.1146 -0.0719  0.5630
 1051YOPC   GL215102  16.857   9.730   6.439  0.0606 -0.0792  0.1164
 1051YOPC   C1A15103  17.200   9.702   6.906  0.1477  0.2067  0.2467
 1051YOPC   D2A15104  17.336   9.587   7.280  0.0064  0.3360  0.0557
 1051YOPC   C3A15105  17.032   9.633   7.634 -0.1716  0.1528 -0.1857
 1051YOPC   C4A15106  17.207   9.889   8.058 -0.0518  0.0628 -0.3232
 1051YOPC   C1B15107  16.583   9.650   6.720  0.0415  0.0420 -0.1932
 1051YOPC   C2B15108  16.753   9.631   7.224  0.2345  0.0992 -0.2044
 1051YOPC   D3B15109  16.567   9.459   7.727  0.1254 -0.1604 -0.1243
 1051YOPC   C4B15110  16.587   9.413   8.094 -0.0687 -0.0864 -0.0393
 1052YOPC   NC315111   1.296   0.494   5.227 -0.0923  0.3206  0.2045
 1052YOPC   PO415112   1.158   0.655   5.637  0.1685  0.1366 -0.0013
 1052YOPC   GL115113   1.462   0.683   6.103 -0.1042 -0.0935 -0.1127
 1052YOPC   GL215114   1.567   1.011   6.249 -0.2703  0.0689 -0.0463
 1052YOPC   C1A15115   1.413   0.633   6.621  0.0846  0.0019  0.0456
 1052YOPC   D2A15116   1.557   0.870   7.025 -0.2135  0.0753 -0.0074
 1052YOPC   C3A15117   1.408   0.919   7.502 -0.2190 -0.3570  0.3614
 1052YOPC   C4A15118   1.176   0.913   7.836 -0.0857  0.2445 -0.0590
 1052YOPC   C1B15119   1.776   1.123   6.607 -0.0319  0.1330 -0.0030
 1052YOPC   C2B15120   2.029   1.191   7.031 -0.2067  0.3469  0.0664
 1052YOPC   D3B15121   2.030   1.596   7.294 -0.1745  0.0166  0.1226
 1052YOPC   C4B15122   1.866   1.901   7.566 -0.0029 -0.1473 -0.2013
 1053YOPC   NC315123   3.302  17.013   5.608 -0.1128  0.3687  0.0385
 1053YOPC   PO415124   3.681  17.087   5.703  0.0141 -0.0477 -0.2239
 1053YOPC   GL115125   3.805  16.947   6.049 -0.1393  0.1261 -0.0597
 1053YOPC   GL215126   3.935  16.618   6.005 -0.4074 -0.0433  0.1722
 1053YOPC   C1A15127   4.103  16.881   6.389 -0.0682  0.0741  0.1855
 1053YOPC   D2A15128   4.390  17.062   6.637 -0.2830  0.2887  0.1731
 1053YOPC   C3A15129   4.614  17.073   6.247  0.4024  0.0056 -0.3407
 1053YOPC   C4A15130   4.965  17.331   6.129  0.0439  0.1944  0.0437
 1053YOPC   C1B15131   4.256  16.431   6.240  0.0672 -0.3028  0.0381
 1053YOPC   C2B15132   4.616  16.616   6.508  0.0241 -0.0104 -0.1183
 1053YOPC   D3B15133   4.984  16.396   6.651  0.0269  0.1446 -0.3082
 1053YOPC   C4B15134   5.441  16.215   6.868  0.0599  0.0632  0.0751
 1054YOPC   NC315135  14.509   1.136   5.910  0.0315 -0.1706 -0.1380
 1054YOPC   PO415136  14.327   1.138   6.282  0.4526  0.3623  0.0534
 1054YOPC   GL115137  14.469   0.827   6.574 -0.1905 -0.0745 -0.1618
 1054YOPC   GL215138  14.366   0.483   6.525  0.1053 -0.1688  0.0301
 1054YOPC   C1A15139  14.616   0.888   6.966 -0.2359 -0.2526  0.0863
 1054YOPC   D2A15140  14.802   0.767   7.321 -0.0801 -0.0100  0.2055
 1054YOPC   C3A15141  14.706   0.914   7.616 -0.0971  0.0833 -0.3516
 1054YOPC   C4A15142  14.686   0.918   8.009  0.2252 -0.1001  0.1027
 1054YOPC   C1B15143  14.439   0.412   6.901  0.1522  0.3870 -0.1380
 1054YOPC   C2B15144  14.333   0.454   7.266 -0.1734 -0.0760 -0.1094
 1054YOPC   D3B15145  14.486   0.431   7.723  0.0462  0.0104  0.0496
 1054YOPC   C4B15146  14.351   0.034   7.980  0.1582  0.1006  0.1655
 1055YOPC   NC315147   3.505   4.134   6.054 -0.1211  0.0304 -0.2682
 1055YOPC   PO415148   3.737   4.490   6.018 -0.1142  0.3788  0.1492
 1055YOPC   GL115149   3.696   4.438   6.498 -0.3542  0.3588  0.2143
 1055YOPC   GL215150   3.379   4.423   6.535  0.0551 -0.1648  0.2958
 1055YOPC   C1A15151   3.906   4.474   6.854  0.3373 -0.0318  0.0156
 1055YOPC   D2A15152   4.033   4.096   7.029  0.2058 -0.2112  0.0880
 1055YOPC   C3A15153   4.143   4.158   7.496  0.0482 -0.2598 -0.0218
 1055YOPC   C4A15154   3.882   3.939   7.736  0.0375 -0.3133 -0.3366
 1055YOPC   C1B15155   3.370   4.462   7.011  0.0756  0.0159 -0.0504
 1055YOPC   C2B15156   3.699   4.360   7.332  0.1956  0.2313  0.1297
 1055YOPC   D3B15157   3.611   4.338   7.785 -0.2090  0.2621 -0.0422
 1055YOPC   C4B15158   3.452   4.566   7.920 -0.1648  0.1804 -0.2276
 1056YOPC   NC315159   7.435   4.923   5.745 -0.0866 -0.1668 -0.0766
 1056YOPC   PO415160   7.320   5.236   6.004  0.0270 -0.1397  0.2949
 1056YOPC   GL115161   7.345   5.317   6.471  0.3062 -0.1733  0.3880
 1056YOPC   GL215162   7.587   5.282   6.584 -0.0108 -0.0231 -0.1166
 1056YOPC   C1A15163   7.077   5.177   6.753 -0.1258 -0.0708 -0.0015
 1056YOPC   D2A15164   6.869   5.342   6.993  0.1541 -0.1484  0.3096
 1056YOPC   C3A15165   6.970   5.528   7.431 -0.0274 -0.1659 -0.1541
 1056YOPC   C4A15166   6.833   5.402   7.767 -0.1772  0.0139  0.3005
 1056YOPC   C1B15167   7.468   5.370   6.981  0.0341  0.2012  0.1041
 1056YOPC   C2B15168   7.554   5.252   7.267  0.3202 -0.0303  0.1031
 1056YOPC   D3B15169   7.387   5.273   7.707  0.1214 -0.0261  0.0152
 1056YOPC   C4B15170   7.289   5.617   7.950  0.2049 -0.0796 -0.0689
 1057YOPC   NC315171  17.697  12.948   5.226 -0.1701  0.0214  0.0900
 1057YOPC   PO415172  18.134  13.119   5.307 -0.0782 -0.0511 -0.0157
 1057YOPC   GL115173  18.191  13.167   5.727 -0.0195  0.1716 -0.0314
 1057YOPC   GL215174  18.311  13.429   5.886  0.1329  0.1255 -0.3405
 1057YOPC   C1A15175  18.184  12.999   6.139 -0.0010 -0.0144 -0.0541
 1057YOPC   D2A15176  18.458  12.814   6.389 -0.0533 -0.1983  0.0415
 1057YOPC   C3A15177  18.676  12.485   6.242 -0.0945  0.0736  0.2575
 1057YOPC   C4A15178  18.699  12.278   5.836 -0.0952 -0.2293  0.0688
 1057YOPC   C1B15179  18.282  13.374   6.400  0.2514  0.2080 -0.0166
 1057YOPC   C2B15180  18.468  13.623   6.728 -0.4061  0.0795  0.2750
 1057YOPC   D3B15181  18.852  13.745   6.719  0.0634 -0.0122  0.4405
 1057YOPC   C4B15182  19.172  13.737   6.425 -0.0397 -0.2783  0.3564
 1058YOPC   NC315183  14.331   6.165   5.955 -0.1798 -0.1316  0.0644
 1058YOPC   PO415184  14.043   6.422   6.059 -0.0241 -0.0346 -0.1280
 1058YOPC   GL115185  14.042   6.233   6.430 -0.0743 -0.2145 -0.2396
 1058YOPC   GL215186  14.295   6.091   6.488  0.0845 -0.2831 -0.0241
 1058YOPC   C1A15187  13.868   6.290   6.826  0.0972 -0.1609  0.0876
 1058YOPC   D2A15188  13.864   6.320   7.230  0.3932  0.0423 -0.2402
 1058YOPC   C3A15189  13.675   6.557   7.503  0.2555  0.0203  0.3799
 1058YOPC   C4A15190  13.428   6.805   7.859 -0.3664  0.1376  0.3094
 1058YOPC   C1B15191  14.331   6.122   6.913 -0.0233 -0.0276  0.3464
 1058YOPC   C2B15192  14.318   6.001   7.316  0.1916  0.0271 -0.1222
 1058YOPC   D3B15193  14.294   5.830   7.743  0.0238  0.1626 -0.3563
 1058YOPC   C4B15194  14.442   5.687   8.211 -0.3812  0.0315 -0.1921
 1059YOPC   NC315195   8.143  16.694   5.975  0.2238 -0.1527 -0.3124
 1059YOPC   PO415196   8.652  16.817   5.996 -0.2248 -0.0551 -0.0165
 1059YOPC   GL115197   8.596  17.010   6.411 -0.0896  0.0493 -0.0835
 1059YOPC   GL215198   8.583  17.387   6.316  0.2335 -0.1452  0.1044
 1059YOPC   C1A15199   8.610  17.229   6.747 -0.3129  0.1712 -0.0192
 1059YOPC   D2A15200   8.590  17.258   7.193 -0.0384 -0.1198 -0.2126
 1059YOPC   C3A15201   8.843  17.304   7.492  0.0450  0.1268 -0.0635
 1059YOPC   C4A15202   9.226  17.196   7.586 -0.0362 -0.2199  0.0034
 1059YOPC   C1B15203   8.161  17.287   6.568 -0.0260  0.1035  0.2835
 1059YOPC   C2B15204   8.058  17.193   6.921  0.0042 -0.3190  0.0209
 1059YOPC   D3B15205   8.150  17.406   7.308 -0.0895 -0.1063 -0.0617
 1059YOPC   C4B15206   8.312  17.426   7.736 -0.0292  0.0703  0.0402
 1060YOPC   NC315207  15.640  11.007   6.064 -0.1734  0.0915 -0.0542
 1060YOPC   PO415208  15.823  10.685   6.339  0.3912  0.2877  0.2446
 1060YOPC   GL115209  15.492  10.819   6.641 -0.3749  0.0213  0.3389
 1060YOPC   GL215210  15.214  11.073   6.547 -0.1906  0.1951 -0.1301
 1060YOPC   C1A15211  15.153  10.689   6.955  0.3362 -0.2118 -0.4494
 1060YOPC   D2A15212  15.087  10.627   7.360 -0.1251  0.0153  0.0709
 1060YOPC   C3A15213  14.775  10.223   7.513 -0.0289  0.0808  0.2581
 1060YOPC   C4A15214  14.431   9.947   7.743  0.3435  0.1895 -0.3571
 1060YOPC   C1B15215  15.220  11.169   6.942 -0.2589  0.1312 -0.2790
 1060YOPC   C2B15216  15.168  11.136   7.338 -0.3560  0.0220 -0.0660
 1060YOPC   D3B15217  15.498  11.147   7.732  0.0413 -0.1352 -0.1594
 1060YOPC   C4B15218  15.560  11.385   7.989 -0.2103  0.2339  0.0176
 1061YOPC   NC315219  11.544   9.747   6.187  0.0126  0.2548  0.1499
 1061YOPC   PO415220  11.185   9.811   5.992 -0.3028  0.0162  0.0372
 1061YOPC   GL115221  11.142   9.918   6.488 -0.1127 -0.0085  0.1002
 1061YOPC   GL215222  10.904   9.665   6.562  0.2598  0.0128 -0.3599
 1061YOPC   C1A15223  11.416  10.184   6.814  0.0098  0.1666 -0.0274
 1061YOPC   D2A15224  11.743  10.258   7.036  0.0949  0.1067 -0.3561
 1061YOPC   C3A15225  11.642  10.129   7.424  0.2665  0.2827 -0.2584
 1061YOPC   C4A15226  11.742  10.014   7.842 -0.0659  0.2689  0.1643
 1061YOPC   C1B15227  10.763   9.490   6.918  0.2980  0.6314  0.1802
 1061YOPC   C2B15228  10.814   9.467   7.411  0.0714 -0.0093  0.0791
 1061YOPC   D3B15229  10.894   9.811   7.637  0.1160 -0.0720 -0.0697
 1061YOPC   C4B15230  11.269  10.135   7.808 -0.0469 -0.0810 -0.1130
 1062YOPC   NC315231  12.870  14.684   6.004 -0.0357 -0.0897 -0.2792
 1062YOPC   PO415232  12.443  14.978   6.001 -0.0316 -0.0213  0.2355
 1062YOPC   GL115233  12.349  15.059   6.497  0.0928  0.1823  0.1011
 1062YOPC   GL215234  12.543  15.281   6.645  0.2293 -0.0335  0.0024
 1062YOPC   C1A15235  12.039  15.203   6.655  0.0008  0.1346  0.0650
 1062YOPC   D2A15236  11.812  15.273   7.056 -0.4221  0.0414  0.0337
 1062YOPC   C3A15237  11.885  14.998   7.349  0.0067  0.3009 -0.1287
 1062YOPC   C4A15238  11.818  14.715   7.629  0.0029  0.0456 -0.2122
 1062YOPC   C1B15239  12.698  15.502   6.880  0.2426  0.3231  0.1901
 1062YOPC   C2B15240  12.772  15.754   7.257  0.1172 -0.2500 -0.1282
 1062YOPC   D3B15241  12.592  15.641   7.585  0.2282 -0.3266 -0.0146
 1062YOPC   C4B15242  12.399  15.368   7.992  0.0468  0.1246 -0.0081
 1063YOPC   NC315243   8.838   5.102   5.909 -0.0472 -0.1467  0.0308
 1063YOPC   PO415244   8.749   4.518   5.836 -0.1359 -0.2222  0.0700
 1063YOPC   GL115245   8.667   4.352   6.310  0.0779 -0.1718  0.2334
 1063YOPC   GL215246   8.879   4.370   6.453  0.2107 -0.2213 -0.0493
 1063YOPC   C1A15247   8.554   4.080   6.633 -0.0601 -0.2099 -0.0548
 1063YOPC   D2A15248   8.372   3.912   6.971  0.1567  0.2543 -0.5268
 1063YOPC   C3A15249   8.069   3.753   7.380 -0.2724  0.1633  0.4070
 1063YOPC   C4A15250   8.040   3.509   7.782 -0.0023 -0.2849 -0.0094
 1063YOPC   C1B15251   8.959   4.374   6.849 -0.3868  0.2187  0.0620
 1063YOPC   C2B15252   8.704   4.255   7.218  0.0268 -0.1477 -0.0223
 1063YOPC   D3B15253   8.568   4.602   7.542 -0.0417  0.0710  0.0584
 1063YOPC   C4B15254   8.477   4.681   7.988 -0.2311 -0.0346 -0.2408
 1064YOPC   NC315255   5.504   0.055   5.655 -0.0181  0.0390  0.2358
 1064YOPC   PO415256   5.103   0.062   5.832  0.4800  0.4202 -0.1601
 1064YOPC   GL115257   5.299   0.023   6.200  0.0679  0.2881  0.2878
 1064YOPC   GL215258   5.231  -0.336   6.378 -0.4452  0.1747  0.0876
 1064YOPC   C1A15259   5.606   0.173   6.381  0.0086  0.1239 -0.0332
 1064YOPC   D2A15260   5.704   0.305   6.844 -0.0801 -0.2770 -0.0673
 1064YOPC   C3A15261   5.707   0.339   7.276  0.2089 -0.0172  0.4768
 1064YOPC   C4A15262   5.744   0.526   7.701  0.3100 -0.0258 -0.1640
 1064YOPC   C1B15263   5.204  -0.416   6.885 -0.0780  0.0292 -0.0452
 1064YOPC   C2B15264   5.077  -0.595   7.343  0.1636  0.0398 -0.0986
 1064YOPC   D3B15265   5.100  -1.085   7.409 -0.0024  0.0679  0.1128
 1064YOPC   C4B15266   5.477  -1.269   7.590 -0.1542 -0.0060  0.0061
 1065YOPC   NC315267  15.867  15.954   6.096  0.0359 -0.0852 -0.0332
 1065YOPC   PO415268  15.722  15.587   5.937 -0.2596  0.3717 -0.2078
 1065YOPC   GL115269  15.590  15.436   6.328 -0.2530 -0.1607 -0.1553
 1065YOPC   GL215270  15.444  15.704   6.507  0.1029 -0.0108 -0.0769
 1065YOPC   C1A15271  15.635  15.142   6.665  0.1912  0.0547 -0.1294
 1065YOPC   D2A15272  15.422  14.792   6.942 -0.0379 -0.0213  0.1801
 1065YOPC   C3A15273  15.435  14.756   7.410 -0.1535 -0.0986  0.0654
 1065YOPC   C4A15274  15.392  14.650   7.748  0.5015  0.0580 -0.1361
 1065YOPC   C1B15275  15.627  15.561   6.913  0.1733  0.0756  0.2385
 1065YOPC   C2B15276  15.656  15.275   7.265 -0.0788 -0.0264 -0.2665
 1065YOPC   D3B15277  15.464  15.231   7.672 -0.0027 -0.0750 -0.1191
 1065YOPC   C4B15278  15.208  15.269   8.007 -0.2017  0.1275  0.3044
 1066YOPC   NC315279   6.794  15.529   5.470  0.4080 -0.0544 -0.3461
 1066YOPC   PO415280   6.590  15.790   5.736 -0.1199  0.0635 -0.1343
 1066YOPC   GL115281   6.588  15.594   6.160 -0.1236 -0.2923 -0.3483
 1066YOPC   GL215282   6.839  15.625   6.175  0.0895 -0.0620  0.1513
 1066YOPC   C1A15283   6.518  15.400   6.540  0.0056 -0.2363  0.1862
 1066YOPC   D2A15284   6.486  15.105   6.776 -0.3065  0.2682 -0.2767
 1066YOPC   C3A15285   6.800  14.990   7.123  0.2462 -0.1666 -0.0754
 1066YOPC   C4A15286   6.640  14.808   7.470 -0.0339  0.1322  0.1093
 1066YOPC   C1B15287   6.840  15.869   6.519  0.0214  0.3725 -0.2052
 1066YOPC   C2B15288   7.198  15.859   6.751 -0.2426 -0.1496 -0.2797
 1066YOPC   D3B15289   7.236  15.927   7.143  0.4006 -0.0652 -0.0182
 1066YOPC   C4B15290   7.023  16.305   7.244 -0.0869 -0.0578 -0.0676
 1067YOPC   NC315291  14.738  10.400   5.561  0.1921  0.2162 -0.0576
 1067YOPC   PO415292  14.240  10.337   5.549 -0.0466  0.0307  0.1252
 1067YOPC   GL115293  14.156  10.379   5.960 -0.0739 -0.0794  0.0190
 1067YOPC   GL215294  14.301  10.641   6.104  0.1840  0.0828  0.0818
 1067YOPC   C1A15295  14.176  10.180   6.448 -0.3531 -0.2550 -0.1328
 1067YOPC   D2A15296  14.371   9.879   6.798  0.1434 -0.0761  0.1615
 1067YOPC   C3A15297  14.407  10.074   7.134 -0.0323  0.0371  0.2256
 1067YOPC   C4A15298  14.321  10.461   7.306 -0.0123  0.1534 -0.1481
 1067YOPC   C1B15299  14.126  10.901   6.395  0.0426 -0.1684 -0.5246
 1067YOPC   C2B15300  14.132  11.093   6.699  0.1224 -0.0381 -0.2302
 1067YOPC   D3B15301  14.168  10.912   7.093 -0.1848 -0.1465  0.0287
 1067YOPC   C4B15302  14.168  10.924   7.520 -0.1161 -0.2812 -0.0507
 1068YOPC   NC315303  12.411   9.233   6.181  0.1527  0.2645  0.2885
 1068YOPC   PO415304  11.935   9.460   6.216  0.0716  0.0339 -0.1324
 1068YOPC   GL115305  11.856   9.189   6.536  0.2557 -0.0769 -0.0377
 1068YOPC   GL215306  12.160   9.064   6.581  0.0917 -0.0576 -0.1748
 1068YOPC   C1A15307  11.628   9.163   6.899 -0.1713  0.0324  0.2348
 1068YOPC   D2A15308  11.526   9.057   7.315 -0.0378  0.0350  0.0515
 1068YOPC   C3A15309  11.357   9.325   7.453 -0.0037  0.1046 -0.1545
 1068YOPC   C4A15310  11.358   9.701   7.595 -0.2390 -0.0150 -0.2130
 1068YOPC   C1B15311  12.086   9.129   6.975 -0.1501  0.2227  0.0902
 1068YOPC   C2B15312  11.982   8.994   7.373  0.0330 -0.0192  0.0746
 1068YOPC   D3B15313  12.140   8.602   7.713  0.3421 -0.1282  0.0942
 1068YOPC   C4B15314  12.297   8.674   8.090  0.0834 -0.3514  0.0796
 1069YOPC   NC315315   2.373  10.220   5.357  0.3656 -0.1206  0.0321
 1069YOPC   PO415316   2.424  10.220   5.747 -0.2990  0.4237  0.2307
 1069YOPC   GL115317   2.527  10.232   6.139 -0.0543  0.3318 -0.0659
 1069YOPC   GL215318   2.793  10.030   6.221 -0.1492 -0.3237  0.1383
 1069YOPC   C1A15319   2.307  10.098   6.493  0.1620 -0.1154  0.3204
 1069YOPC   D2A15320   2.161   9.964   6.802 -0.0150 -0.0741 -0.0890
 1069YOPC   C3A15321   2.182  10.074   7.192 -0.0695 -0.0804 -0.0429
 1069YOPC   C4A15322   2.101  10.076   7.647 -0.1091  0.1509  0.0918
 1069YOPC   C1B15323   2.826  10.317   6.567 -0.0811 -0.2779  0.0086
 1069YOPC   C2B15324   2.919  10.543   7.045  0.0131  0.1784  0.1095
 1069YOPC   D3B15325   2.912  10.329   7.370 -0.3241 -0.0949 -0.0105
 1069YOPC   C4B15326   2.628  10.152   7.673  0.1757  0.0743 -0.1669
 1070YOPC   NC315327   7.054   7.641   6.385 -0.0487  0.1641  0.1581
 1070YOPC   PO415328   7.393   7.314   6.447  0.0193 -0.3643  0.0574
 1070YOPC   GL115329   7.557   7.083   6.748  0.1373  0.1104 -0.1377
 1070YOPC   GL215330   7.284   6.874   6.761  0.0233 -0.2777 -0.1588
 1070YOPC   C1A15331   7.440   7.244   7.179 -0.3242 -0.0828  0.2711
 1070YOPC   D2A15332   7.215   7.332   7.630 -0.2485 -0.3162 -0.0973
 1070YOPC   C3A15333   7.268   7.145   7.992  0.0445  0.0799 -0.0164
 1070YOPC   C4A15334   7.295   7.017   8.426 -0.1860  0.0832  0.1016
 1070YOPC   C1B15335   7.132   6.833   7.126  0.3306  0.0831  0.0311
 1070YOPC   C2B15336   6.928   7.075   7.302  0.2275  0.1304 -0.1648
 1070YOPC   D3B15337   6.722   7.015   7.658 -0.0580 -0.1078 -0.1039
 1070YOPC   C4B15338   6.494   6.911   7.869 -0.0626 -0.2893 -0.2604
 1071YOPC   NC315339   2.979  17.437   6.190  0.0588 -0.1713 -0.0805
 1071YOPC   PO415340   3.075  17.863   6.024  0.1417 -0.0108 -0.1871
 1071YOPC   GL115341   3.162  17.809   6.506  0.0951 -0.2716 -0.0058
 1071YOPC   GL215342   3.038  17.504   6.651 -0.0240  0.2591  0.0818
 1071YOPC   C1A15343   3.264  17.853   6.987 -0.0625  0.1771 -0.0560
 1071YOPC   D2A15344   3.298  17.804   7.397  0.0346 -0.1704 -0.0887
 1071YOPC   C3A15345   3.528  18.078   7.602 -0.1574  0.2246  0.0583
 1071YOPC   C4A15346   3.902  18.179   7.898  0.0788 -0.1874 -0.0115
 1071YOPC   C1B15347   3.020  17.412   7.146  0.2050 -0.1820 -0.0039
 1071YOPC   C2B15348   3.034  17.394   7.639  0.0672 -0.0936 -0.0554
 1071YOPC   D3B15349   3.401  17.525   7.918  0.0924 -0.2872 -0.0879
 1071YOPC   C4B15350   3.536  17.341   8.275 -0.1282 -0.1100  0.0632
 1072YOPC   NC315351   8.352  17.256   5.962  0.0374  0.0591 -0.1205
 1072YOPC   PO415352   7.887  17.158   5.910 -0.2335 -0.2047 -0.1785
 1072YOPC   GL115353   7.705  17.265   6.304  0.2096 -0.1405  0.0918
 1072YOPC   GL215354   7.541  17.646   6.439 -0.0474 -0.0145  0.1467
 1072YOPC   C1A15355   7.627  17.268   6.749  0.0548  0.1469  0.2212
 1072YOPC   D2A15356   7.691  17.557   7.066 -0.0777  0.1604  0.0773
 1072YOPC   C3A15357   7.450  17.742   7.479  0.0120 -0.0592  0.0896
 1072YOPC   C4A15358   7.295  18.111   7.769 -0.1622  0.0200 -0.1400
 1072YOPC   C1B15359   7.917  17.748   6.717  0.1139 -0.1928 -0.1411
 1072YOPC   C2B15360   8.015  17.947   7.137  0.1972  0.4025  0.2942
 1072YOPC   D3B15361   7.964  17.778   7.561  0.2006  0.3854  0.1976
 1072YOPC   C4B15362   7.721  17.753   7.978 -0.0467 -0.0184 -0.0976
 1073YOPC   NC315363   1.526   7.813   5.641 -0.2126 -0.1425 -0.0912
 1073YOPC   PO415364   1.961   7.619   5.759  0.1919  0.1240 -0.0459
 1073YOPC   GL115365   1.907   7.503   6.230  0.1482 -0.4347 -0.0526
 1073YOPC   GL215366   2.202   7.287   6.418 -0.0437  0.3302  0.3552
 1073YOPC   C1A15367   1.702   7.486   6.616 -0.3072 -0.0824 -0.1039
 1073YOPC   D2A15368   1.711   7.292   6.941  0.1961 -0.3328  0.0387
 1073YOPC   C3A15369   2.036   7.069   6.929  0.0193  0.4083  0.0077
 1073YOPC   C4A15370   2.333   6.674   6.999  0.1666  0.0980  0.1493
 1073YOPC   C1B15371   2.219   7.469   6.815  0.5169  0.0208  0.0918
 1073YOPC   C2B15372   1.979   7.649   7.162  0.2584 -0.0876 -0.1316
 1073YOPC   D3B15373   1.902   7.633   7.633  0.0101 -0.3067 -0.1004
 1073YOPC   C4B15374   1.654   7.259   7.896 -0.1300  0.1905 -0.0079
 1074YOPC   NC315375   0.968   2.619   5.834 -0.0264  0.2038 -0.0338
 1074YOPC   PO415376   0.706   2.314   6.127 -0.3123  0.0449  0.2567
 1074YOPC   GL115377   0.711   2.119   6.515 -0.3363 -0.0723  0.1950
 1074YOPC   GL215378   0.532   1.872   6.437 -0.0079 -0.1306 -0.2883
 1074YOPC   C1A15379   0.634   1.975   6.949 -0.1005  0.0599  0.0682
 1074YOPC   D2A15380   0.619   1.709   7.387 -0.0683 -0.1150 -0.0208
 1074YOPC   C3A15381   0.744   1.840   7.753 -0.0027 -0.4803 -0.0467
 1074YOPC   C4A15382   0.971   1.853   8.105  0.1909 -0.1464  0.1753
 1074YOPC   C1B15383   0.416   1.622   6.683 -0.2223 -0.1666 -0.0626
 1074YOPC   C2B15384   0.454   1.368   7.064  0.0378  0.2298  0.0964
 1074YOPC   D3B15385   0.485   1.211   7.513 -0.0330 -0.2275 -0.2551
 1074YOPC   C4B15386   0.768   1.227   7.844 -0.1868  0.0965  0.0647
 1075YOPC   NC315387   4.513  13.559   5.776 -0.2348  0.0733 -0.1026
 1075YOPC   PO415388   4.495  14.019   5.804 -0.2273 -0.0854 -0.0948
 1075YOPC   GL115389   4.732  14.077   6.104  0.1122  0.0193 -0.3647
 1075YOPC   GL215390   4.906  13.759   6.182 -0.0149 -0.1496  0.3225
 1075YOPC   C1A15391   4.891  14.203   6.560 -0.2118  0.2353  0.1896
 1075YOPC   D2A15392   5.070  14.397   6.951 -0.0833  0.0165 -0.6689
 1075YOPC   C3A15393   4.978  14.787   7.163 -0.0898  0.1038  0.1366
 1075YOPC   C4A15394   4.648  14.995   7.064  0.2638  0.1868  0.0359
 1075YOPC   C1B15395   5.013  13.746   6.587 -0.0030  0.0037 -0.0636
 1075YOPC   C2B15396   5.013  13.701   6.944 -0.0130 -0.2204 -0.1896
 1075YOPC   D3B15397   4.938  13.939   7.271 -0.1265 -0.4855 -0.4109
 1075YOPC   C4B15398   4.791  14.224   7.665 -0.4182  0.0628 -0.0323
 1076YOPC   NC315399   4.834  13.355   5.016  0.3334  0.1728  0.2216
 1076YOPC   PO415400   5.010  13.262   5.421 -0.0709 -0.1719  0.1668
 1076YOPC   GL115401   5.126  13.315   5.865 -0.2902 -0.1673  0.0589
 1076YOPC   GL215402   5.443  13.462   5.896  0.0135  0.0543 -0.1397
 1076YOPC   C1A15403   5.098  13.274   6.308 -0.3160  0.4930 -0.2377
 1076YOPC   D2A15404   5.339  13.140   6.668 -0.3631 -0.1758 -0.1455
 1076YOPC   C3A15405   5.328  13.235   7.133  0.5190  0.2509 -0.1058
 1076YOPC   C4A15406   5.130  13.188   7.395  0.2006  0.0688 -0.1660
 1076YOPC   C1B15407   5.537  13.479   6.357  0.0958 -0.2073  0.0852
 1076YOPC   C2B15408   5.507  13.643   6.772  0.1883 -0.0653 -0.0451
 1076YOPC   D3B15409   5.587  13.714   7.113  0.2627 -0.0963 -0.1919
 1076YOPC   C4B15410   5.423  14.062   7.252 -0.1778 -0.0159  0.3925
 1077YOPC   NC315411   6.916   0.267   5.724 -0.2561  0.0573  0.0591
 1077YOPC   PO415412   6.671   0.502   5.906  0.2853 -0.1208  0.1141
 1077YOPC   GL115413   6.451   0.484   6.244  0.1886 -0.0274 -0.0647
 1077YOPC   GL215414   6.264   0.103   6.212  0.1378  0.0554  0.0052
 1077YOPC   C1A15415   6.278   0.555   6.699  0.0647  0.0308 -0.2380
 1077YOPC   D2A15416   6.113   0.609   7.159  0.3329  0.3426  0.1430
 1077YOPC   C3A15417   6.115   0.338   7.512 -0.1056 -0.1881  0.0213
 1077YOPC   C4A15418   6.269   0.349   7.995 -0.0393 -0.0424 -0.0085
 1077YOPC   C1B15419   6.063  -0.002   6.612  0.0536  0.1658  0.1112
 1077YOPC   C2B15420   6.101  -0.052   7.080 -0.1734  0.0486  0.3181
 1077YOPC   D3B15421   5.930  -0.247   7.438 -0.0734  0.1085 -0.1335
 1077YOPC   C4B15422   5.633  -0.370   7.782 -0.3879 -0.2040  0.0112
 1078YOPC   NC315423  15.277   2.410   6.102 -0.2150 -0.0168 -0.0367
 1078YOPC   PO415424  14.885   2.625   6.042 -0.2513  0.1387 -0.0786
 1078YOPC   GL115425  14.872   2.397   6.418 -0.2295 -0.0064 -0.3189
 1078YOPC   GL215426  14.634   2.387   6.620 -0.0853 -0.1238  0.0031
 1078YOPC   C1A15427  15.066   2.167   6.789  0.2068  0.1485 -0.2096
 1078YOPC   D2A15428  15.316   1.846   6.896 -0.2025  0.1881 -0.0613
 1078YOPC   C3A15429  15.275   1.994   7.306 -0.1930  0.0631 -0.0366
 1078YOPC   C4A15430  15.407   1.873   7.662  0.1930 -0.0540  0.0113
 1078YOPC   C1B15431  14.599   2.282   6.984 -0.0843 -0.2835  0.0437
 1078YOPC   C2B15432  14.913   2.388   7.259  0.1886  0.0990 -0.0676
 1078YOPC   D3B15433  14.886   2.141   7.623 -0.1889 -0.2413  0.0660
 1078YOPC   C4B15434  14.690   2.161   8.046 -0.2704  0.0976  0.0256
 1079YOPC   NC315435  11.786  13.285   6.076 -0.0484  0.2339  0.0440
 1079YOPC   PO415436  11.872  12.865   6.188  0.0566  0.0540 -0.0688
 1079YOPC   GL115437  11.943  12.801   6.686 -0.0471  0.0795  0.1451
 1079YOPC   GL215438  11.880  12.479   6.673  0.0321  0.0797 -0.0161
 1079YOPC   C1A15439  11.910  13.114   7.025 -0.2027 -0.0773 -0.2960
 1079YOPC   D2A15440  11.980  13.104   7.469  0.0475  0.2319 -0.1606
 1079YOPC   C3A15441  12.366  13.122   7.680  0.2980 -0.1889  0.0585
 1079YOPC   C4A15442  12.763  13.223   7.926 -0.0612 -0.4182 -0.1097
 1079YOPC   C1B15443  12.308  12.476   6.816 -0.0136 -0.0757  0.1162
 1079YOPC   C2B15444  12.588  12.326   7.147  0.1053  0.1056  0.4305
 1079YOPC   D3B15445  12.618  12.555   7.499 -0.1791  0.1423  0.0418
 1079YOPC   C4B15446  12.652  12.753   7.828 -0.0948 -0.1136  0.3238
 1080YOPC   NC315447   2.732  14.343   5.834 -0.0156  0.1292  0.0826
 1080YOPC   PO415448   2.637  14.768   5.937 -0.0432  0.0005 -0.0636
 1080YOPC   GL115449   2.875  14.607   6.259  0.0167 -0.1280 -0.1963
 1080YOPC   GL215450   2.919  14.312   6.305  0.1179  0.0666  0.1052
 1080YOPC   C1A15451   3.047  14.671   6.669  0.2419  0.1738 -0.1221
 1080YOPC   D2A15452   3.183  14.643   7.059 -0.1036  0.0614 -0.0057
 1080YOPC   C3A15453   3.260  14.866   7.462 -0.0476  0.1732 -0.1254
 1080YOPC   C4A15454   3.438  14.847   7.774 -0.0133  0.2932  0.0703
 1080YOPC   C1B15455   2.931  14.162   6.705  0.1675 -0.0547  0.2176
 1080YOPC   C2B15456   2.940  13.981   7.197  0.3663 -0.0347 -0.1168
 1080YOPC   D3B15457   3.002  14.264   7.420  0.5025  0.1677  0.1409
 1080YOPC   C4B15458   2.994  14.504   7.807  0.0888 -0.2696 -0.1500
 1081YOPC   NC315459  14.651  16.458   5.671 -0.0897 -0.1260  0.1083
 1081YOPC   PO415460  14.623  16.705   6.043 -0.3689  0.0511 -0.1499
 1081YOPC   GL115461  14.874  16.594   6.290  0.1782 -0.1176  0.3550
 1081YOPC   GL215462  14.632  16.566   6.537 -0.3045 -0.2727 -0.1067
 1081YOPC   C1A15463  15.294  16.580   6.494 -0.1055 -0.2183 -0.1871
 1081YOPC   D2A15464  15.608  16.200   6.452 -0.1141 -0.0077 -0.1139
 1081YOPC   C3A15465  15.896  16.067   6.809 -0.4766  0.2672  0.0757
 1081YOPC   C4A15466  15.931  15.807   7.154  0.0708 -0.2990  0.2259
 1081YOPC   C1B15467  14.935  16.643   6.800 -0.0620  0.3590 -0.1478
 1081YOPC   C2B15468  15.242  16.470   7.070  0.0693 -0.0158 -0.0751
 1081YOPC   D3B15469  15.419  16.697   7.419 -0.0067 -0.0624 -0.0603
 1081YOPC   C4B15470  15.310  17.020   7.699 -0.0533 -0.1934 -0.0736
 1082YOPC   NC315471   5.173   0.673   5.202  0.2734  0.1771  0.0095
 1082YOPC   PO415472   5.393   0.578   5.540 -0.1139 -0.1361 -0.1478
 1082YOPC   GL115473   5.420   0.553   5.936  0.1392  0.0133 -0.0735
 1082YOPC   GL215474   5.690   0.406   5.979  0.0765  0.0524  0.1092
 1082YOPC   C1A15475   5.308   0.553   6.352  0.0509 -0.1767  0.0959
 1082YOPC   D2A15476   5.188   0.383   6.701 -0.1358 -0.4087 -0.1659
 1082YOPC   C3A15477   5.222   0.567   7.135 -0.0216 -0.0556  0.1240
 1082YOPC   C4A15478   5.131   0.624   7.572 -0.2281 -0.1939  0.1152
 1082YOPC   C1B15479   5.998   0.565   6.269  0.0072 -0.1521  0.2461
 1082YOPC   C2B15480   6.248   0.957   6.440  0.1429  0.1772  0.0555
 1082YOPC   D3B15481   6.244   1.034   6.896  0.2607  0.2764  0.0342
 1082YOPC   C4B15482   6.263   1.093   7.288  0.2168 -0.1411 -0.0164
 1083YOPC   NC315483   7.891   1.490   5.498 -0.1834 -0.2967  0.1822
 1083YOPC   PO415484   8.127   1.471   5.682  0.0647 -0.1435  0.0281
 1083YOPC   GL115485   7.948   1.461   6.071 -0.3256 -0.1674 -0.0860
 1083YOPC   GL215486   8.092   1.671   6.241 -0.0076  0.3472 -0.0931
 1083YOPC   C1A15487   7.671   1.704   6.488 -0.0978  0.0957 -0.1508
 1083YOPC   D2A15488   7.655   1.607   6.843  0.1680 -0.1172  0.1771
 1083YOPC   C3A15489   7.632   1.883   7.210  0.1113 -0.4471  0.0197
 1083YOPC   C4A15490   7.644   1.824   7.596 -0.2163  0.1035  0.1988
 1083YOPC   C1B15491   8.307   1.539   6.621 -0.0797  0.0625  0.0184
 1083YOPC   C2B15492   8.438   1.590   6.996  0.1567 -0.0438 -0.2715
 1083YOPC   D3B15493   8.962   1.626   6.972  0.0837  0.2509 -0.1584
 1083YOPC   C4B15494   9.385   1.711   7.198 -0.0711  0.0674  0.0432
 1084YOPC   NC315495   2.603   1.305   5.532  0.0146  0.2705  0.1269
 1084YOPC   PO415496   2.451   1.107   5.935 -0.0360  0.4160  0.1911
 1084YOPC   GL115497   2.651   0.911   6.322 -0.1502 -0.1715  0.2771
 1084YOPC   GL215498   2.616   0.493   6.379  0.0286 -0.2419 -0.2304
 1084YOPC   C1A15499   2.893   0.855   6.782  0.1318  0.0473 -0.1650
 1084YOPC   D2A15500   3.170   0.781   7.169  0.0052 -0.1667  0.1275
 1084YOPC   C3A15501   3.270   1.089   7.393  0.1366  0.1230  0.3463
 1084YOPC   C4A15502   3.196   1.277   7.753  0.0086 -0.1873  0.2640
 1084YOPC   C1B15503   2.456   0.408   6.741  0.0002 -0.1283 -0.1321
 1084YOPC   C2B15504   2.126   0.173   7.048  0.2201  0.1895 -0.4333
 1084YOPC   D3B15505   2.017   0.286   7.514 -0.2441 -0.3044 -0.3182
 1084YOPC   C4B15506   2.046   0.441   7.965  0.0800 -0.0961  0.0120
 1085YOPC   NC315507  10.531   0.825   6.165  0.0069 -0.2280 -0.1033
 1085YOPC   PO415508  10.793   1.132   6.138 -0.3651 -0.0818  0.0340
 1085YOPC   GL115509  11.057   1.199   6.425 -0.0875  0.1671  0.0804
 1085YOPC   GL215510  10.858   1.468   6.662 -0.0016 -0.0470  0.0637
 1085YOPC   C1A15511  11.210   0.952   6.813 -0.1379  0.0196 -0.1881
 1085YOPC   D2A15512  11.545   0.782   7.064  0.0129  0.0086  0.1742
 1085YOPC   C3A15513  11.416   0.743   7.517 -0.1599 -0.0535  0.3860
 1085YOPC   C4A15514  11.112   0.488   7.790  0.1522 -0.0842 -0.0910
 1085YOPC   C1B15515  10.776   1.274   7.084 -0.2922 -0.1611 -0.0107
 1085YOPC   C2B15516  10.719   1.254   7.490 -0.2520 -0.2166  0.0861
 1085YOPC   D3B15517  10.974   0.942   7.776 -0.0243  0.3538 -0.1523
 1085YOPC   C4B15518  11.338   0.853   8.012 -0.1678  0.1838  0.0222
 1086YOPC   NC315519  11.290   4.484   6.116 -0.1185  0.1165 -0.1462
 1086YOPC   PO415520  11.199   4.126   5.944  0.0050  0.0591 -0.1846
 1086YOPC   GL115521  11.282   3.981   6.289 -0.3038  0.0249 -0.1814
 1086YOPC   GL215522  11.069   4.196   6.532  0.0035 -0.0801  0.2464
 1086YOPC   C1A15523  11.240   3.770   6.661  0.2217 -0.1476 -0.1546
 1086YOPC   D2A15524  11.297   3.673   7.049 -0.1073 -0.1757 -0.0297
 1086YOPC   C3A15525  11.088   3.601   7.528  0.3011  0.1034 -0.0112
 1086YOPC   C4A15526  11.106   3.697   7.946  0.0409 -0.1018  0.3396
 1086YOPC   C1B15527  11.111   4.119   7.031  0.1636 -0.4320 -0.2114
 1086YOPC   C2B15528  11.125   4.066   7.414 -0.1396 -0.3184  0.0363
 1086YOPC   D3B15529  11.082   4.179   7.801 -0.2570  0.0297  0.4612
 1086YOPC   C4B15530  10.807   4.324   8.165 -0.1111 -0.0761 -0.1453
 1087YOPC   NC315531   1.807  11.466   4.552  0.1143 -0.0592  0.2560
 1087YOPC   PO415532   1.747  11.466   5.077 -0.1420 -0.0710 -0.0861
 1087YOPC   GL115533   1.682  11.429   5.446  0.0678 -0.0403 -0.0612
 1087YOPC   GL215534   1.710  11.690   5.688  0.0715 -0.2371 -0.0781
 1087YOPC   C1A15535   1.744  11.201   5.922  0.0324  0.0238 -0.0651
 1087YOPC   D2A15536   1.625  11.085   6.253 -0.0098  0.1390 -0.1169
 1087YOPC   C3A15537   1.735  10.856   6.593  0.2408 -0.2568 -0.1340
 1087YOPC   C4A15538   1.941  10.814   7.009 -0.0126  0.0996  0.1646
 1087YOPC   C1B15539   1.383  11.568   6.067 -0.0705 -0.1453 -0.1805
 1087YOPC   C2B15540   1.324  11.574   6.423 -0.1432 -0.0684 -0.0090
 1087YOPC   D3B15541   1.285  11.293   6.724  0.0426 -0.5493  0.1518
 1087YOPC   C4B15542   1.204  11.268   7.097 -0.3702  0.1073  0.1173
 1088YOPC   NC315543  15.112  16.951   6.046 -0.0920 -0.0246 -0.2822
 1088YOPC   PO415544  15.490  17.121   6.015  0.1125  0.0257 -0.0279
 1088YOPC   GL115545  15.513  17.048   6.447 -0.1261 -0.0928  0.1057
 1088YOPC   GL215546  15.709  17.332   6.512 -0.2223 -0.0623  0.0326
 1088YOPC   C1A15547  15.431  16.944   6.782  0.0726  0.2582 -0.0045
 1088YOPC   D2A15548  15.131  17.035   7.084 -0.0822 -0.1280  0.1181
 1088YOPC   C3A15549  14.866  16.753   7.279  0.0651  0.4193 -0.0083
 1088YOPC   C4A15550  14.923  16.471   7.529 -0.1090  0.1609  0.0468
 1088YOPC   C1B15551  15.899  17.700   6.709  0.1476  0.0969 -0.3454
 1088YOPC   C2B15552  16.257  17.913   6.683  0.0268 -0.0121 -0.5221
 1088YOPC   D3B15553  16.429  17.907   7.045 -0.1413 -0.0234  0.1367
 1088YOPC   C4B15554  16.228  17.792   7.427 -0.2165 -0.1190  0.0885
 1089YOPC   NC315555   8.689  12.430   5.689 -0.0987 -0.3183 -0.2393
 1089YOPC   PO415556   8.353  12.378   5.851  0.0808  0.1044  0.3166
 1089YOPC   GL115557   8.472  12.510   6.259  0.1956 -0.2132 -0.0460
 1089YOPC   GL215558   8.596  12.784   6.414 -0.4408 -0.1077  0.2470
 1089YOPC   C1A15559   8.427  12.331   6.591 -0.2350  0.1838 -0.3059
 1089YOPC   D2A15560   8.264  12.048   6.855  0.2023 -0.0375 -0.0967
 1089YOPC   C3A15561   8.618  12.079   7.099 -0.2753 -0.0020 -0.0567
 1089YOPC   C4A15562   8.696  12.193   7.550  0.0984 -0.2844 -0.0405
 1089YOPC   C1B15563   9.019  12.928   6.553  0.1508  0.1717  0.1526
 1089YOPC   C2B15564   9.104  12.821   7.031  0.0368  0.1051  0.0489
 1089YOPC   D3B15565   9.064  12.394   7.313 -0.2463 -0.0565  0.0119
 1089YOPC   C4B15566   9.103  11.907   7.360 -0.0365 -0.0719 -0.2789
 1090YOPC   NC315567  11.242   8.369   6.205 -0.1439  0.2081  0.0341
 1090YOPC   PO415568  10.905   8.512   6.396 -0.2624  0.2061 -0.1218
 1090YOPC   GL115569  11.175   8.587   6.750  0.0544  0.3700 -0.0488
 1090YOPC   GL215570  11.206   8.892   6.737 -0.1870 -0.0399  0.0353
 1090YOPC   C1A15571  11.100   8.626   7.234  0.3320 -0.1492  0.1017
 1090YOPC   D2A15572  11.076   8.616   7.637  0.2907  0.1213 -0.1549
 1090YOPC   C3A15573  11.156   9.008   7.766  0.0078  0.0232  0.1468
 1090YOPC   C4A15574  11.014   9.419   7.910 -0.1470  0.0756  0.0740
 1090YOPC   C1B15575  11.029   9.119   7.122 -0.4186 -0.2107  0.0085
 1090YOPC   C2B15576  10.774   8.923   7.478 -0.0660 -0.0718 -0.1125
 1090YOPC   D3B15577  10.663   9.024   7.923  0.2460 -0.1365 -0.3324
 1090YOPC   C4B15578  10.328   8.969   7.962 -0.2578 -0.1874 -0.1453
 1091YOPC   NC315579  15.622   2.225   5.662 -0.0260  0.3388  0.3976
 1091YOPC   PO415580  15.900   2.199   6.054 -0.2029  0.1411 -0.0523
 1091YOPC   GL115581  15.722   2.269   6.553 -0.2416  0.2576  0.1802
 1091YOPC   GL215582  15.469   2.471   6.558  0.0941  0.2023 -0.1508
 1091YOPC   C1A15583  15.774   2.056   6.878 -0.1173 -0.2214  0.0753
 1091YOPC   D2A15584  15.750   2.214   7.353 -0.2294 -0.2653 -0.2561
 1091YOPC   C3A15585  15.890   2.635   7.269 -0.0439  0.2341 -0.1036
 1091YOPC   C4A15586  16.176   2.888   7.586 -0.3256  0.4276  0.0155
 1091YOPC   C1B15587  15.655   2.783   6.826  0.2346 -0.0581 -0.2172
 1091YOPC   C2B15588  15.484   2.898   7.281  0.0338 -0.0970  0.2246
 1091YOPC   D3B15589  15.750   2.958   7.691  0.0918  0.3151 -0.3243
 1091YOPC   C4B15590  15.664   3.235   8.039 -0.0253 -0.0170  0.0284
 1092YOPC   NC315591  16.236  13.951   5.672  0.0096  0.3426 -0.0406
 1092YOPC   PO415592  16.138  13.763   6.019 -0.1254  0.2912  0.0071
 1092YOPC   GL115593  16.259  13.800   6.388  0.0833  0.1418 -0.0070
 1092YOPC   GL215594  16.546  13.647   6.491 -0.0527  0.3300 -0.1032
 1092YOPC   C1A15595  16.085  13.577   6.675 -0.2834 -0.1542  0.0727
 1092YOPC   D2A15596  16.180  13.600   7.083 -0.0068 -0.1529 -0.1278
 1092YOPC   C3A15597  15.975  13.816   7.308  0.2137 -0.1101  0.0719
 1092YOPC   C4A15598  15.721  14.112   7.553  0.0017 -0.0778  0.2140
 1092YOPC   C1B15599  16.796  13.595   6.866 -0.2006  0.1778  0.1486
 1092YOPC   C2B15600  17.025  13.561   7.143  0.0759 -0.0702  0.1759
 1092YOPC   D3B15601  17.068  13.759   7.430 -0.1464 -0.0011 -0.2403
 1092YOPC   C4B15602  17.128  13.680   7.842 -0.2502 -0.2368  0.1244
 1093YOPC   NC315603   6.447   1.888   5.467  0.1968  0.0745  0.0316
 1093YOPC   PO415604   6.911   1.997   5.480  0.2146  0.0293  0.1999
 1093YOPC   GL115605   6.747   1.903   5.875 -0.1058  0.1793 -0.1577
 1093YOPC   GL215606   6.596   2.168   5.851 -0.4462 -0.0175  0.1644
 1093YOPC   C1A15607   6.893   1.778   6.307 -0.1372  0.0181  0.0207
 1093YOPC   D2A15608   6.991   1.624   6.632  0.2612  0.1458  0.1294
 1093YOPC   C3A15609   7.147   1.757   7.057 -0.0830  0.2302  0.2702
 1093YOPC   C4A15610   7.167   2.086   7.245  0.0912 -0.0525  0.0061
 1093YOPC   C1B15611   6.402   2.444   6.086 -0.0487 -0.0509 -0.4052
 1093YOPC   C2B15612   6.143   2.518   6.492 -0.0131  0.4223  0.3123
 1093YOPC   D3B15613   5.814   2.770   6.521 -0.0274  0.0862  0.0522
 1093YOPC   C4B15614   5.556   2.692   6.895 -0.3332  0.0164  0.2878
 1094YOPC   NC315615   0.846   9.066   6.156  0.0822  0.2621 -0.0885
 1094YOPC   PO415616   0.451   9.071   6.070 -0.2128  0.0854 -0.0599
 1094YOPC   GL115617   0.491   9.322   6.402  0.0072  0.3482 -0.1934
 1094YOPC   GL215618   0.101   9.477   6.421 -0.0597  0.3055  0.0521
 1094YOPC   C1A15619   0.425   9.578   6.810 -0.1586  0.0012 -0.0541
 1094YOPC   D2A15620   0.073   9.681   6.968 -0.0436  0.1452 -0.0174
 1094YOPC   C3A15621   0.242   9.662   7.452 -0.2902  0.3792  0.1669
 1094YOPC   C4A15622   0.524   9.467   7.667  0.0823 -0.2067  0.0650
 1094YOPC   C1B15623  -0.132   9.864   6.527  0.1920  0.1201 -0.1603
 1094YOPC   C2B15624  -0.163  10.427   6.554 -0.0926  0.1255 -0.0614
 1094YOPC   D3B15625  -0.324  10.586   6.853  0.0450  0.1125 -0.0047
 1094YOPC   C4B15626  -0.644  10.664   7.160  0.0971  0.0024 -0.1324
 1095YOPC   NC315627   3.236   9.793   5.709 -0.0785  0.0728 -0.1869
 1095YOPC   PO415628   2.858   9.598   5.896 -0.0021 -0.1420 -0.2946
 1095YOPC   GL115629   2.767   9.423   6.243 -0.0454 -0.1224  0.0648
 1095YOPC   GL215630   2.624   9.152   6.263  0.1677  0.0065  0.0773
 1095YOPC   C1A15631   2.697   9.755   6.575  0.1721  0.1257  0.0682
 1095YOPC   D2A15632   2.696  10.018   6.905 -0.0277  0.0788 -0.1484
 1095YOPC   C3A15633   2.666   9.815   7.287  0.1560 -0.1371  0.0024
 1095YOPC   C4A15634   2.684   9.637   7.646 -0.2770  0.2314 -0.0947
 1095YOPC   C1B15635   2.797   9.182   6.684  0.2634  0.0768 -0.1267
 1095YOPC   C2B15636   2.939   9.482   6.958  0.2032 -0.2181 -0.1298
 1095YOPC   D3B15637   3.133   9.552   7.419 -0.1120  0.0745 -0.1502
 1095YOPC   C4B15638   3.533   9.412   7.662  0.0446 -0.3017  0.0636
 1096YOPC   NC315639  10.926  15.189   5.874 -0.0560 -0.2633  0.0809
 1096YOPC   PO415640  11.181  15.560   5.994 -0.0451 -0.0502 -0.2050
 1096YOPC   GL115641  11.072  15.302   6.339 -0.0567  0.2093 -0.1280
 1096YOPC   GL215642  11.125  14.946   6.332  0.0090  0.1401  0.2602
 1096YOPC   C1A15643  10.916  15.300   6.686  0.1085 -0.1086  0.0912
 1096YOPC   D2A15644  10.441  15.440   6.865 -0.1485 -0.0078  0.0223
 1096YOPC   C3A15645  10.505  15.421   7.297  0.1930  0.2516  0.2956
 1096YOPC   C4A15646  10.510  15.064   7.563  0.0925  0.0381 -0.0034
 1096YOPC   C1B15647  10.918  14.622   6.636 -0.0380 -0.1124 -0.1310
 1096YOPC   C2B15648  11.046  14.360   7.002 -0.0864  0.1034 -0.0729
 1096YOPC   D3B15649  10.774  14.562   7.381 -0.0579  0.2850 -0.1035
 1096YOPC   C4B15650  10.703  14.391   7.756  0.2756 -0.2065  0.0514
 1097YOPC   NC315651  16.193   0.327   6.143 -0.0638  0.1069  0.0438
 1097YOPC   PO415652  16.611   0.544   6.228 -0.0451 -0.0466 -0.1017
 1097YOPC   GL115653  16.305   0.614   6.591 -0.1974  0.2907  0.1879
 1097YOPC   GL215654  16.350   0.835   6.816 -0.1379  0.0018 -0.1410
 1097YOPC   C1A15655  16.185   0.321   6.911 -0.0311  0.1243 -0.2301
 1097YOPC   D2A15656  15.944   0.018   7.089  0.1961  0.5881  0.1521
 1097YOPC   C3A15657  15.864  -0.426   7.214  0.0723  0.1342 -0.1379
 1097YOPC   C4A15658  15.624  -0.862   7.332  0.1206 -0.0782 -0.4634
 1097YOPC   C1B15659  16.268   0.732   7.183 -0.0452  0.0455  0.0373
 1097YOPC   C2B15660  16.151   0.746   7.549  0.0198  0.2118 -0.4764
 1097YOPC   D3B15661  15.743   0.787   7.720 -0.1273  0.0062  0.0172
 1097YOPC   C4B15662  15.505   0.434   7.735  0.2924  0.1387  0.0411
 1098YOPC   NC315663   8.548   8.251   6.259  0.0681 -0.5706 -0.1403
 1098YOPC   PO415664   8.713   8.691   6.353  0.0852  0.1771 -0.0507
 1098YOPC   GL115665   8.828   8.895   6.694  0.0978  0.2198 -0.0264
 1098YOPC   GL215666   8.691   9.206   6.622  0.3213 -0.0850  0.0228
 1098YOPC   C1A15667   8.908   8.808   7.057 -0.1928 -0.0770 -0.1358
 1098YOPC   D2A15668   8.969   8.644   7.457  0.1883 -0.0790  0.2324
 1098YOPC   C3A15669   8.557   8.548   7.764 -0.0651  0.1386  0.3401
 1098YOPC   C4A15670   8.339   8.809   7.861  0.3118 -0.1453  0.0642
 1098YOPC   C1B15671   8.500   9.077   7.014  0.0923  0.0428 -0.1150
 1098YOPC   C2B15672   8.490   8.994   7.413 -0.0830 -0.0679 -0.1853
 1098YOPC   D3B15673   8.755   9.142   7.695  0.0987 -0.0145 -0.0339
 1098YOPC   C4B15674   8.890   9.389   8.060 -0.1666  0.3946  0.2357
 1099YOPC   NC315675   5.166   8.487   5.213 -0.2246 -0.2642 -0.1455
 1099YOPC   PO415676   5.063   8.692   5.536 -0.0471 -0.0670 -0.0870
 1099YOPC   GL115677   5.001   8.877   5.874  0.0005 -0.1086 -0.0770
 1099YOPC   GL215678   4.831   9.201   5.934  0.2124 -0.0270  0.1123
 1099YOPC   C1A15679   4.875   8.651   6.228  0.1533  0.1209  0.1125
 1099YOPC   D2A15680   4.757   8.807   6.553  0.3768  0.3218  0.4567
 1099YOPC   C3A15681   4.891   9.316   6.666 -0.2251  0.2263 -0.0802
 1099YOPC   C4A15682   5.215   9.526   6.609 -0.1231 -0.0952 -0.0848
 1099YOPC   C1B15683   4.738   9.238   6.225  0.0436 -0.2184  0.0553
 1099YOPC   C2B15684   4.413   9.294   6.572 -0.1510  0.1521  0.0962
 1099YOPC   D3B15685   4.481   9.277   6.982 -0.0080  0.1437 -0.1621
 1099YOPC   C4B15686   4.744   9.440   7.369 -0.0831 -0.1426 -0.1721
 1100YOPC   NC315687   2.829   5.308   6.106 -0.0897 -0.0976 -0.0428
 1100YOPC   PO415688   3.175   5.524   6.336  0.2183 -0.0667 -0.2710
 1100YOPC   GL115689   3.296   5.881   6.517 -0.3576  0.1221  0.0825
 1100YOPC   GL215690   3.118   6.142   6.636  0.1503  0.1545 -0.2001
 1100YOPC   C1A15691   3.272   5.912   7.007 -0.0385  0.0001  0.2277
 1100YOPC   D2A15692   3.107   6.083   7.395  0.1383 -0.0870 -0.2273
 1100YOPC   C3A15693   3.409   6.086   7.663 -0.0057  0.0613  0.1012
 1100YOPC   C4A15694   3.644   6.158   8.064 -0.3783 -0.3023 -0.2269
 1100YOPC   C1B15695   3.210   6.473   6.937  0.0038 -0.3152  0.0237
 1100YOPC   C2B15696   3.291   6.587   7.347  0.3592  0.1211  0.0612
 1100YOPC   D3B15697   2.974   6.467   7.687  0.1964  0.1616  0.0366
 1100YOPC   C4B15698   2.550   6.419   7.945  0.2019  0.1562  0.1373
 1101YOPC   NC315699  12.618  11.699   6.025 -0.4410  0.1638 -0.0766
 1101YOPC   PO415700  12.312  11.463   6.008  0.2378 -0.0687  0.0574
 1101YOPC   GL115701  12.369  11.488   6.400 -0.1245  0.1934 -0.0776
 1101YOPC   GL215702  12.154  11.301   6.599 -0.4026 -0.0497  0.0516
 1101YOPC   C1A15703  12.448  11.720   6.687  0.2880 -0.3290  0.0342
 1101YOPC   D2A15704  12.622  11.821   7.177 -0.0730  0.0301  0.0889
 1101YOPC   C3A15705  12.446  11.651   7.526 -0.0387  0.3370 -0.3994
 1101YOPC   C4A15706  12.315  11.595   7.912  0.0648 -0.1545  0.4216
 1101YOPC   C1B15707  12.291  11.384   7.062 -0.0796  0.0505  0.2441
 1101YOPC   C2B15708  12.556  11.225   7.335  0.1453 -0.0070  0.0789
 1101YOPC   D3B15709  12.822  11.223   7.636 -0.0792  0.2678 -0.4178
 1101YOPC   C4B15710  13.224  11.346   7.923 -0.1733  0.2323  0.2959
 1102YOPC   NC315711  10.804  12.344   5.691  0.2816  0.2578  0.0438
 1102YOPC   PO415712  11.195  12.286   6.024  0.1463 -0.2171  0.1721
 1102YOPC   GL115713  11.050  12.277   6.385 -0.2459 -0.1797 -0.0329
 1102YOPC   GL215714  11.315  12.272   6.635  0.1845 -0.0088 -0.0679
 1102YOPC   C1A15715  10.766  12.224   6.705  0.1127 -0.2299  0.0788
 1102YOPC   D2A15716  10.493  12.401   6.820 -0.2037 -0.1208 -0.0333
 1102YOPC   C3A15717  10.202  12.454   6.475 -0.1060 -0.1619 -0.1326
 1102YOPC   C4A15718   9.756  12.425   6.408 -0.2452 -0.0152 -0.0234
 1102YOPC   C1B15719  11.121  12.328   7.109 -0.0227 -0.3340 -0.0660
 1102YOPC   C2B15720  11.309  12.441   7.383  0.0954 -0.0711 -0.3308
 1102YOPC   D3B15721  11.551  12.229   7.611 -0.2600  0.0997  0.4562
 1102YOPC   C4B15722  11.523  12.010   7.961  0.0032 -0.0918 -0.0096
 1103YOPC   NC315723  14.486  14.926   5.657 -0.2433 -0.2069  0.1595
 1103YOPC   PO415724  14.448  15.215   6.009 -0.0096  0.5080  0.3290
 1103YOPC   GL115725  14.275  15.343   6.336 -0.3734  0.3179 -0.0535
 1103YOPC   GL215726  14.030  15.220   6.590 -0.1394  0.1535 -0.0769
 1103YOPC   C1A15727  14.511  15.196   6.697 -0.0186 -0.2767  0.0848
 1103YOPC   D2A15728  14.557  14.964   7.186  0.1291  0.7904  0.0188
 1103YOPC   C3A15729  14.481  15.065   7.544  0.1265  0.2139  0.1950
 1103YOPC   C4A15730  14.358  14.930   7.904 -0.4842  0.2382  0.0938
 1103YOPC   C1B15731  14.087  15.317   7.015  0.2523 -0.3393 -0.2984
 1103YOPC   C2B15732  14.065  15.373   7.373  0.4348  0.1544  0.0566
 1103YOPC   D3B15733  13.807  15.027   7.641 -0.3215 -0.3612 -0.2837
 1103YOPC   C4B15734  13.388  15.059   7.674 -0.1390  0.1268 -0.0025
 1104YOPC   NC315735   4.490   3.341   6.323  0.4215  0.0256  0.0220
 1104YOPC   PO415736   4.443   2.898   6.215 -0.4060  0.1651  0.5734
 1104YOPC   GL115737   4.307   2.970   6.627 -0.0489 -0.2197 -0.1986
 1104YOPC   GL215738   4.434   3.242   6.843  0.2896 -0.0100  0.1156
 1104YOPC   C1A15739   4.149   2.906   7.047  0.1017 -0.2613  0.0978
 1104YOPC   D2A15740   3.950   2.872   7.408 -0.2419  0.1512  0.1235
 1104YOPC   C3A15741   3.858   2.916   7.863  0.1916  0.1889  0.0695
 1104YOPC   C4A15742   3.987   2.629   8.226 -0.0509 -0.4187 -0.0188
 1104YOPC   C1B15743   4.735   3.017   6.897 -0.0549 -0.1590 -0.1302
 1104YOPC   C2B15744   4.916   2.592   7.039 -0.0468 -0.5335  0.2025
 1104YOPC   D3B15745   5.004   2.341   7.467  0.2500  0.3572  0.0742
 1104YOPC   C4B15746   5.046   1.945   7.641  0.2466  0.1087  0.1773
 1105YOPC   NC315747   8.316   7.343   6.145 -0.0305  0.1184 -0.0143
 1105YOPC   PO415748   8.044   7.690   6.412 -0.0970  0.1454  0.1341
 1105YOPC   GL115749   8.137   7.495   6.767 -0.2891  0.0781  0.2125
 1105YOPC   GL215750   8.219   7.755   6.933 -0.1395 -0.0538  0.0454
 1105YOPC   C1A15751   7.929   7.407   7.185 -0.0124  0.1750  0.0993
 1105YOPC   D2A15752   7.672   7.427   7.588  0.1651  0.3239 -0.1183
 1105YOPC   C3A15753   7.816   7.529   8.023  0.0180 -0.0885 -0.2723
 1105YOPC   C4A15754   7.620   7.438   8.418 -0.2433  0.0751 -0.0559
 1105YOPC   C1B15755   8.260   7.886   7.312 -0.2436  0.2816 -0.1190
 1105YOPC   C2B15756   8.099   7.749   7.654  0.0712 -0.0637 -0.0888
 1105YOPC   D3B15757   8.437   7.691   8.053 -0.0805  0.1978  0.1602
 1105YOPC   C4B15758   8.520   7.748   8.451  0.4132  0.1062  0.0432
 1106YOPC   NC315759  13.539   5.505   6.274  0.2004  0.0287  0.1071
 1106YOPC   PO415760  13.594   5.991   6.267 -0.1038  0.0454  0.0333
 1106YOPC   GL115761  13.742   5.774   6.629  0.0020 -0.0042  0.1109
 1106YOPC   GL215762  13.492   5.714   6.726  0.3366 -0.2758  0.2131
 1106YOPC   C1A15763  13.894   5.857   7.046 -0.2210  0.2117 -0.0333
 1106YOPC   D2A15764  13.848   5.766   7.456  0.0252 -0.0662  0.1799
 1106YOPC   C3A15765  13.801   5.999   7.801  0.3231 -0.1425 -0.1255
 1106YOPC   C4A15766  13.775   5.888   8.228 -0.0727 -0.1727  0.1002
 1106YOPC   C1B15767  13.418   5.728   7.168  0.1415 -0.1719 -0.4220
 1106YOPC   C2B15768  13.465   5.605   7.655 -0.0960  0.2502 -0.0972
 1106YOPC   D3B15769  13.813   5.472   7.916 -0.1006  0.1420  0.1035
 1106YOPC   C4B15770  14.024   5.389   8.278  0.2178 -0.1865 -0.0311
 1107YOPC   NC315771   7.572   5.623   6.118  0.1685  0.0457 -0.0174
 1107YOPC   PO415772   7.780   6.000   6.250 -0.1720  0.3185 -0.0088
 1107YOPC   GL115773   7.698   6.156   6.693 -0.3037  0.0092  0.1260
 1107YOPC   GL215774   7.924   6.106   6.694  0.0353  0.3203  0.0555
 1107YOPC   C1A15775   7.780   6.134   7.200  0.3726 -0.0656  0.1946
 1107YOPC   D2A15776   7.709   6.126   7.579  0.2070  0.2446  0.4071
 1107YOPC   C3A15777   7.612   6.299   7.993  0.5387 -0.1243  0.0616
 1107YOPC   C4A15778   7.570   6.512   8.349 -0.0603  0.4465  0.3232
 1107YOPC   C1B15779   8.211   5.957   6.921 -0.1568  0.2842  0.0457
 1107YOPC   C2B15780   8.349   6.047   7.262 -0.4779  0.3009  0.0522
 1107YOPC   D3B15781   8.311   5.849   7.653  0.0157  0.2295  0.0933
 1107YOPC   C4B15782   8.647   5.938   7.972 -0.0446  0.0756 -0.1686
 1108YOPC   NC315783  14.978  14.656   5.462  0.0467 -0.1431 -0.2028
 1108YOPC   PO415784  15.073  14.663   5.869  0.3357  0.0056 -0.1835
 1108YOPC   GL115785  15.189  14.558   6.286 -0.2005 -0.0023 -0.0224
 1108YOPC   GL215786  15.051  14.271   6.403 -0.1427  0.1297  0.0626
 1108YOPC   C1A15787  15.473  14.762   6.449  0.0920 -0.2695  0.4083
 1108YOPC   D2A15788  15.855  14.676   6.672  0.1547 -0.2179 -0.1094
 1108YOPC   C3A15789  15.864  14.750   7.120 -0.3281  0.0739 -0.0932
 1108YOPC   C4A15790  15.883  14.893   7.611 -0.0161 -0.0765 -0.0439
 1108YOPC   C1B15791  14.934  13.935   6.595  0.3394 -0.0191 -0.0102
 1108YOPC   C2B15792  15.029  13.518   6.533 -0.0954 -0.1204 -0.0209
 1108YOPC   D3B15793  15.377  13.260   6.861  0.2302 -0.0976 -0.2702
 1108YOPC   C4B15794  15.536  13.258   7.164 -0.2601  0.0858 -0.1058
 1109YOPC   NC315795   5.496  11.159   5.558 -0.1248 -0.1090 -0.3661
 1109YOPC   PO415796   5.891  11.269   5.658  0.1948  0.1441 -0.2908
 1109YOPC   GL115797   6.162  11.302   5.989 -0.0469 -0.1791 -0.0180
 1109YOPC   GL215798   6.305  11.672   6.016 -0.1144  0.0189  0.1662
 1109YOPC   C1A15799   6.241  11.329   6.396  0.0838  0.2239  0.0513
 1109YOPC   D2A15800   6.054  11.451   6.808 -0.0664  0.0053 -0.0360
 1109YOPC   C3A15801   5.930  11.447   7.218 -0.0886  0.2486  0.3040
 1109YOPC   C4A15802   5.542  11.244   7.429 -0.2488 -0.3181  0.0760
 1109YOPC   C1B15803   5.968  11.744   6.237 -0.1338  0.0932 -0.1711
 1109YOPC   C2B15804   5.665  11.529   6.461  0.3161 -0.0987  0.0255
 1109YOPC   D3B15805   5.469  11.400   6.882 -0.3430  0.0505 -0.0200
 1109YOPC   C4B15806   5.133  11.176   7.057  0.1303  0.0471  0.0105
 1110YOPC   NC315807   9.686  11.493   6.062  0.1006 -0.2613  0.2222
 1110YOPC   PO415808   9.778  10.986   5.873 -0.1737  0.0651  0.0045
 1110YOPC   GL115809   9.833  11.020   6.332 -0.0609 -0.0728  0.0957
 1110YOPC   GL215810   9.816  10.717   6.412  0.0467  0.2689  0.0465
 1110YOPC   C1A15811   9.691  11.047   6.797  0.1537 -0.4297  0.0359
 1110YOPC   D2A15812   9.796  11.246   7.197  0.0217 -0.1944  0.3535
 1110YOPC   C3A15813   9.680  11.385   7.547  0.3488  0.0342  0.2840
 1110YOPC   C4A15814   9.469  11.278   7.885 -0.0244  0.0063  0.3223
 1110YOPC   C1B15815   9.988  10.617   6.853  0.0999  0.2335  0.1175
 1110YOPC   C2B15816  10.031  10.825   7.150  0.0446 -0.2865  0.1630
 1110YOPC   D3B15817   9.607  10.839   7.407 -0.0050  0.0917  0.0235
 1110YOPC   C4B15818   9.424  10.769   7.762  0.0077 -0.1954 -0.0633
 1111YOPC   NC315819   0.373   7.305   5.602  0.0761  0.0909 -0.0611
 1111YOPC   PO415820   0.455   7.019   5.894  0.0682  0.1868 -0.0044
 1111YOPC   GL115821   0.251   7.203   6.214  0.1007  0.0202  0.3414
 1111YOPC   GL215822   0.110   6.915   6.395 -0.0568  0.2123 -0.0182
 1111YOPC   C1A15823   0.444   7.267   6.641  0.2303 -0.0786  0.1840
 1111YOPC   D2A15824   0.392   7.346   7.122  0.1153 -0.0593  0.1843
 1111YOPC   C3A15825   0.514   7.609   7.367 -0.1056 -0.0540 -0.1527
 1111YOPC   C4A15826   0.325   7.864   7.621  0.1331 -0.0341 -0.0387
 1111YOPC   C1B15827   0.136   7.001   6.864 -0.0966 -0.3438 -0.1028
 1111YOPC   C2B15828   0.148   7.010   7.338 -0.0105  0.2854 -0.2641
 1111YOPC   D3B15829  -0.055   6.858   7.701 -0.0025  0.1599 -0.0490
 1111YOPC   C4B15830   0.100   6.900   8.198  0.0367  0.0646 -0.1648
 1112YOPC   NC315831  14.053  11.571   5.675 -0.0676  0.0162  0.0014
 1112YOPC   PO415832  13.821  11.194   5.600 -0.3411  0.0291  0.2619
 1112YOPC   GL115833  13.744  10.890   5.947  0.2288  0.0624  0.1544
 1112YOPC   GL215834  13.579  11.105   6.229  0.1058  0.3014 -0.0300
 1112YOPC   C1A15835  13.751  10.603   6.229 -0.3323 -0.2464 -0.1200
 1112YOPC   D2A15836  13.532  10.236   6.463  0.2694  0.1512  0.3260
 1112YOPC   C3A15837  13.616  10.214   6.805 -0.3256  0.0830  0.0874
 1112YOPC   C4A15838  13.964  10.255   6.979 -0.0693 -0.2394  0.1533
 1112YOPC   C1B15839  13.660  11.139   6.609 -0.0855 -0.0685 -0.1484
 1112YOPC   C2B15840  13.828  10.679   6.793  0.3098  0.0144  0.0428
 1112YOPC   D3B15841  14.350  10.519   6.811  0.2050 -0.0378 -0.3370
 1112YOPC   C4B15842  14.720  10.455   7.018 -0.0464  0.0654  0.0657
 1113YOPC   NC315843   9.357  12.148   5.337 -0.2547 -0.2611 -0.1455
 1113YOPC   PO415844   9.245  12.200   5.717  0.0884  0.1370  0.2990
 1113YOPC   GL115845   9.322  12.234   6.150  0.1323  0.2760 -0.2280
 1113YOPC   GL215846   9.227  12.568   6.278 -0.1392 -0.0800  0.1978
 1113YOPC   C1A15847   9.124  11.973   6.451  0.0140 -0.1203  0.0358
 1113YOPC   D2A15848   8.766  11.918   6.672 -0.0280 -0.1473  0.0129
 1113YOPC   C3A15849   8.510  11.558   6.786 -0.0525 -0.0381 -0.1586
 1113YOPC   C4A15850   8.089  11.570   7.007 -0.1268 -0.2251 -0.0363
 1113YOPC   C1B15851   8.958  12.454   6.707  0.1201 -0.0158  0.0007
 1113YOPC   C2B15852   8.660  12.620   6.915  0.2376 -0.0281 -0.2724
 1113YOPC   D3B15853   8.387  12.559   7.432  0.0651 -0.1524 -0.1819
 1113YOPC   C4B15854   8.191  12.293   7.714  0.1653  0.1243  0.0820
 1114YOPC   NC315855   8.096  11.933   5.684  0.0259 -0.0762 -0.0422
 1114YOPC   PO415856   8.295  11.510   5.847 -0.1423  0.0664 -0.1717
 1114YOPC   GL115857   8.226  11.364   6.297  0.0288  0.1659 -0.1678
 1114YOPC   GL215858   8.039  11.071   6.147 -0.0950  0.0962 -0.1099
 1114YOPC   C1A15859   8.145  11.155   6.664 -0.0823  0.1348 -0.0677
 1114YOPC   D2A15860   7.702  11.285   6.810 -0.0552 -0.1483  0.3418
 1114YOPC   C3A15861   7.615  11.237   7.183 -0.0874  0.0979  0.0232
 1114YOPC   C4A15862   7.497  11.355   7.610  0.2086 -0.0252  0.1340
 1114YOPC   C1B15863   7.720  10.956   6.425 -0.1002 -0.0546 -0.0563
 1114YOPC   C2B15864   7.332  10.995   6.482  0.0463  0.1826  0.1585
 1114YOPC   D3B15865   7.206  11.080   6.969 -0.1819  0.2645  0.1599
 1114YOPC   C4B15866   7.048  11.253   7.320 -0.0548 -0.2914  0.0531
 1115YOPC   NC315867   9.451   2.884   5.695 -0.2585  0.0560 -0.1226
 1115YOPC   PO415868   9.894   2.941   5.895 -0.3755 -0.1991  0.0111
 1115YOPC   GL115869   9.786   3.169   6.308  0.2038 -0.1576  0.1155
 1115YOPC   GL215870   9.767   3.495   6.423  0.0375  0.0870 -0.2287
 1115YOPC   C1A15871   9.739   3.008   6.728  0.0333  0.0130  0.1675
 1115YOPC   D2A15872   9.457   2.781   7.037  0.0869 -0.1030 -0.0019
 1115YOPC   C3A15873   9.661   2.932   7.457 -0.0836  0.1637 -0.0795
 1115YOPC   C4A15874   9.829   3.204   7.851  0.1825 -0.0327  0.0801
 1115YOPC   C1B15875   9.958   3.510   6.772  0.1123  0.0295  0.3821
 1115YOPC   C2B15876  10.316   3.530   7.141  0.0685  0.1735  0.2703
 1115YOPC   D3B15877  10.312   3.558   7.614 -0.1344 -0.0741  0.1515
 1115YOPC   C4B15878  10.127   3.620   7.989  0.0090  0.1087  0.1359
 1116YOPC   NC315879   6.383  16.264   5.748  0.0875  0.0345  0.0307
 1116YOPC   PO415880   5.861  16.326   6.048 -0.1696 -0.0079 -0.0011
 1116YOPC   GL115881   5.897  16.465   6.468  0.0203 -0.1097  0.0110
 1116YOPC   GL215882   5.845  16.142   6.574  0.0755  0.0638  0.1471
 1116YOPC   C1A15883   5.786  16.608   6.851  0.2214 -0.1434 -0.0567
 1116YOPC   D2A15884   5.801  16.374   7.256  0.0898  0.3021 -0.2559
 1116YOPC   C3A15885   5.948  16.447   7.629 -0.2214 -0.1456 -0.2376
 1116YOPC   C4A15886   6.246  16.517   7.895 -0.1124  0.0000 -0.0206
 1116YOPC   C1B15887   5.780  15.909   7.034 -0.0353  0.2293  0.1969
 1116YOPC   C2B15888   5.939  15.898   7.403 -0.1330  0.0149  0.1133
 1116YOPC   D3B15889   5.713  15.830   7.789  0.0126  0.0418  0.2070
 1116YOPC   C4B15890   5.626  15.686   8.180  0.1776  0.0564  0.3005
 1117YOPC   NC315891   7.069   7.131   6.089  0.0176 -0.2448  0.2071
 1117YOPC   PO415892   6.984   6.778   6.350  0.1399  0.2241  0.2167
 1117YOPC   GL115893   6.793   6.970   6.646  0.2713  0.2582  0.0049
 1117YOPC   GL215894   6.893   7.268   6.844  0.1759 -0.0280 -0.2528
 1117YOPC   C1A15895   6.604   6.746   7.061 -0.4360  0.2815  0.1991
 1117YOPC   D2A15896   6.823   6.553   7.473  0.1365 -0.0697 -0.2027
 1117YOPC   C3A15897   7.155   6.713   7.628  0.1633 -0.2230 -0.0387
 1117YOPC   C4A15898   7.273   6.633   8.011  0.1134 -0.1753  0.0777
 1117YOPC   C1B15899   6.483   7.199   7.082  0.5689 -0.3453 -0.2059
 1117YOPC   C2B15900   6.262   6.955   7.342  0.1188 -0.0426 -0.0359
 1117YOPC   D3B15901   6.020   6.904   7.755 -0.2428 -0.1444  0.1805
 1117YOPC   C4B15902   5.952   6.858   8.158  0.0424 -0.1468 -0.0758
 1118YOPC   NC315903   2.988   9.094   5.782  0.1708  0.2141 -0.2670
 1118YOPC   PO415904   3.381   9.205   5.608 -0.2564 -0.1205  0.2026
 1118YOPC   GL115905   3.360   9.391   6.037  0.1633  0.1297  0.3908
 1118YOPC   GL215906   3.603   9.491   5.970 -0.1571  0.0239 -0.2306
 1118YOPC   C1A15907   3.198   9.420   6.429  0.0412  0.1957 -0.5120
 1118YOPC   D2A15908   3.260   9.055   6.773 -0.0794 -0.1542  0.1727
 1118YOPC   C3A15909   3.006   8.943   7.117 -0.2301  0.2447 -0.2876
 1118YOPC   C4A15910   3.148   9.045   7.550  0.2476 -0.2438 -0.0965
 1118YOPC   C1B15911   3.972   9.736   6.073 -0.0537 -0.0240 -0.3380
 1118YOPC   C2B15912   4.173   9.751   6.477  0.1820 -0.1967  0.2217
 1118YOPC   D3B15913   3.959   9.828   6.849  0.0874  0.0792  0.0465
 1118YOPC   C4B15914   3.774  10.235   6.919 -0.1026  0.0399 -0.3816
 1119YOPC   NC315915   1.854  11.981   5.273  0.1135  0.2855  0.2486
 1119YOPC   PO415916   2.304  12.010   5.319 -0.1477  0.0663  0.1396
 1119YOPC   GL115917   2.126  11.977   5.760  0.0469 -0.1753 -0.0155
 1119YOPC   GL215918   2.210  11.643   5.871 -0.0787  0.1284 -0.3297
 1119YOPC   C1A15919   2.135  12.109   6.186  0.5534  0.0695  0.0508
 1119YOPC   D2A15920   2.279  12.068   6.596 -0.1312 -0.1857  0.0137
 1119YOPC   C3A15921   2.418  12.317   6.816 -0.0872 -0.0557  0.2358
 1119YOPC   C4A15922   2.751  12.512   7.184  0.1062  0.1963  0.3911
 1119YOPC   C1B15923   1.965  11.596   6.269  0.1100  0.2849  0.2799
 1119YOPC   C2B15924   1.762  11.623   6.532  0.0848 -0.0452  0.2247
 1119YOPC   D3B15925   1.882  11.864   6.970 -0.1053 -0.1823  0.0519
 1119YOPC   C4B15926   1.729  12.137   7.284  0.1077  0.0357 -0.0799
 1120YOPC   NC315927   4.759   8.339   5.605 -0.0465 -0.0845 -0.1490
 1120YOPC   PO415928   4.722   7.926   5.734  0.2740  0.2467 -0.0314
 1120YOPC   GL115929   4.962   8.153   6.071  0.0268 -0.0374 -0.4542
 1120YOPC   GL215930   4.831   8.030   6.344 -0.1242 -0.1708 -0.2853
 1120YOPC   C1A15931   5.319   8.380   6.167  0.0881  0.1895 -0.1376
 1120YOPC   D2A15932   5.339   8.709   6.484 -0.0462 -0.2023  0.2549
 1120YOPC   C3A15933   5.187   8.799   6.805  0.3333 -0.2511  0.0617
 1120YOPC   C4A15934   5.112   9.122   7.088 -0.0650  0.1579  0.0647
 1120YOPC   C1B15935   5.071   8.317   6.558 -0.2910 -0.2947 -0.0657
 1120YOPC   C2B15936   5.025   8.356   7.011 -0.0467 -0.0228 -0.0645
 1120YOPC   D3B15937   5.152   8.708   7.438  0.1677  0.2646  0.1583
 1120YOPC   C4B15938   5.397   8.680   7.839  0.1878  0.1487  0.1314
 1121YOPC   NC315939   8.132   9.088   5.919 -0.0491  0.1852  0.0132
 1121YOPC   PO415940   7.792   8.868   6.245  0.1815  0.0554  0.0143
 1121YOPC   GL115941   7.874   8.912   6.645  0.0890  0.3871 -0.1190
 1121YOPC   GL215942   7.922   8.558   6.805  0.1904 -0.0473  0.1442
 1121YOPC   C1A15943   7.940   9.096   7.037 -0.1056  0.0876 -0.2474
 1121YOPC   D2A15944   8.004   9.073   7.496 -0.0256  0.0506 -0.2105
 1121YOPC   C3A15945   7.764   8.913   7.753  0.0177  0.0098 -0.0597
 1121YOPC   C4A15946   7.799   8.953   8.184  0.1434  0.1679  0.0684
 1121YOPC   C1B15947   7.647   8.696   7.174 -0.0784  0.0197 -0.0449
 1121YOPC   C2B15948   7.518   8.470   7.588  0.1771 -0.0821  0.0535
 1121YOPC   D3B15949   7.191   8.636   7.891  0.3851  0.2713  0.1157
 1121YOPC   C4B15950   6.732   8.737   7.946  0.1386 -0.2917  0.0335
 1122YOPC   NC315951   5.252  10.073   5.697  0.0331 -0.3054  0.0993
 1122YOPC   PO415952   5.630   9.814   5.582 -0.1558 -0.1681  0.1519
 1122YOPC   GL115953   5.680   9.928   5.992 -0.1039  0.1596  0.1352
 1122YOPC   GL215954   5.662  10.329   6.123  0.4472 -0.0372 -0.2305
 1122YOPC   C1A15955   5.501   9.910   6.466  0.0517  0.3630  0.1951
 1122YOPC   D2A15956   5.564   9.833   6.949  0.2826 -0.0345  0.0847
 1122YOPC   C3A15957   5.784   9.503   7.183 -0.1462  0.0342 -0.3187
 1122YOPC   C4A15958   6.150   9.288   7.039 -0.0509 -0.0092  0.0081
 1122YOPC   C1B15959   5.524  10.385   6.553  0.3192  0.1068 -0.0631
 1122YOPC   C2B15960   5.411  10.271   6.907 -0.0347  0.0374  0.0578
 1122YOPC   D3B15961   5.635  10.208   7.296  0.0627  0.1677 -0.2400
 1122YOPC   C4B15962   5.381  10.237   7.648  0.0118 -0.1817  0.0159
 1123YOPC   NC315963   4.474  12.706   5.760 -0.0009  0.2912  0.0680
 1123YOPC   PO415964   4.663  13.070   5.824  0.0698 -0.0344  0.0458
 1123YOPC   GL115965   4.626  13.205   6.226  0.1127 -0.0208 -0.1237
 1123YOPC   GL215966   4.451  13.033   6.393  0.0161 -0.0225  0.0980
 1123YOPC   C1A15967   4.669  13.387   6.647 -0.3230 -0.0325 -0.0704
 1123YOPC   D2A15968   4.470  13.376   6.951  0.1188  0.3672  0.1053
 1123YOPC   C3A15969   4.110  13.115   7.088  0.3096  0.0722  0.3184
 1123YOPC   C4A15970   3.720  13.207   7.375  0.0279 -0.3119  0.0903
 1123YOPC   C1B15971   4.482  12.874   6.872 -0.1446  0.1849 -0.0983
 1123YOPC   C2B15972   4.499  12.732   7.271 -0.2093 -0.1111 -0.0485
 1123YOPC   D3B15973   4.610  13.086   7.435  0.0150  0.0562 -0.1538
 1123YOPC   C4B15974   4.687  13.491   7.404 -0.1759 -0.2880  0.2134
 1124YOPC   NC315975   1.765   9.218   5.824  0.0134 -0.1693 -0.1907
 1124YOPC   PO415976   2.140   8.947   5.655 -0.0102  0.0423  0.1313
 1124YOPC   GL115977   2.123   9.059   6.105  0.0546  0.2270  0.0864
 1124YOPC   GL215978   2.136   9.343   6.163  0.0941 -0.0704 -0.1122
 1124YOPC   C1A15979   2.266   8.746   6.395 -0.0195 -0.2203 -0.3912
 1124YOPC   D2A15980   2.487   8.800   6.601  0.3241 -0.0596 -0.0105
 1124YOPC   C3A15981   2.507   9.027   7.033  0.1553 -0.1661 -0.1251
 1124YOPC   C4A15982   2.736   9.275   7.328  0.2424  0.0571 -0.2085
 1124YOPC   C1B15983   2.048   9.720   6.353  0.5011  0.2066 -0.2621
 1124YOPC   C2B15984   1.749  10.042   6.477  0.2484  0.2712  0.2672
 1124YOPC   D3B15985   1.826  10.368   6.801  0.2601  0.0816  0.1715
 1124YOPC   C4B15986   1.856  10.445   7.244  0.2306  0.1222 -0.2163
 1125YOPC   NC315987   1.641   2.813   6.333  0.2845  0.0045  0.0629
 1125YOPC   PO415988   2.030   2.639   5.989 -0.2247 -0.1870 -0.1804
 1125YOPC   GL115989   2.178   2.672   6.415  0.0289  0.0241 -0.0870
 1125YOPC   GL215990   2.199   3.049   6.601  0.1712  0.1482 -0.0036
 1125YOPC   C1A15991   2.016   2.558   6.831 -0.0472  0.0084  0.0869
 1125YOPC   D2A15992   1.896   2.668   7.311 -0.1913  0.0504  0.1249
 1125YOPC   C3A15993   2.268   2.670   7.658 -0.1557 -0.3939  0.1671
 1125YOPC   C4A15994   2.456   2.382   7.983 -0.0929 -0.3019  0.1257
 1125YOPC   C1B15995   1.911   2.999   6.913 -0.0838 -0.1394  0.0052
 1125YOPC   C2B15996   1.982   3.116   7.435 -0.1468 -0.1682 -0.2437
 1125YOPC   D3B15997   2.066   3.435   7.716 -0.0377  0.0700  0.1482
 1125YOPC   C4B15998   2.000   3.745   7.855  0.1937  0.0766 -0.0634
 1126YOPC   NC315999   4.639   4.095   6.108  0.0166 -0.0607 -0.2769
 1126YOPC   PO416000   4.634   4.547   6.032  0.0375 -0.1719  0.2128
 1126YOPC   GL116001   4.701   4.840   6.419  0.0699  0.0694 -0.2046
 1126YOPC   GL216002   4.502   5.170   6.322 -0.0999 -0.2378 -0.2311
 1126YOPC   C1A16003   4.646   4.925   6.849  0.0809  0.0755  0.0868
 1126YOPC   D2A16004   4.696   4.920   7.255  0.1337 -0.1793 -0.0425
 1126YOPC   C3A16005   4.377   5.136   7.478  0.0626 -0.0223 -0.2141
 1126YOPC   C4A16006   3.990   5.328   7.443  0.1145  0.0444 -0.0820
 1126YOPC   C1B16007   4.418   5.348   6.690 -0.1433  0.2929  0.0958
 1126YOPC   C2B16008   4.243   5.609   7.042 -0.0537 -0.1250  0.1359
 1126YOPC   D3B16009   4.341   5.650   7.473  0.1981  0.1101  0.0487
 1126YOPC   C4B16010   4.418   5.537   7.873  0.0538  0.1945  0.0006
 1127YOPC   NC316011   5.765   9.207   5.574  0.1307 -0.1699 -0.1988
 1127YOPC   PO416012   5.927   9.113   5.859  0.1014 -0.0871  0.3051
 1127YOPC   GL116013   6.083   9.028   6.322  0.1241 -0.2029  0.1033
 1127YOPC   GL216014   6.332   9.237   6.333 -0.2803  0.0513 -0.0204
 1127YOPC   C1A16015   6.214   8.888   6.788  0.0565 -0.0367  0.2394
 1127YOPC   D2A16016   6.285   8.897   7.300 -0.1211  0.0029  0.1596
 1127YOPC   C3A16017   6.135   9.205   7.557 -0.0176  0.7158 -0.0656
 1127YOPC   C4A16018   5.871   9.207   7.907  0.0586 -0.0560  0.1787
 1127YOPC   C1B16019   6.175   9.470   6.609 -0.2393 -0.0585  0.0299
 1127YOPC   C2B16020   6.053   9.763   6.850  0.1205  0.0717  0.1631
 1127YOPC   D3B16021   6.202   9.811   7.169 -0.0255 -0.1227  0.2869
 1127YOPC   C4B16022   6.354   9.694   7.472 -0.3775  0.4630 -0.0475
 1128YOPC   NC316023   1.751  14.465   5.299 -0.0860 -0.4298  0.0518
 1128YOPC   PO416024   1.504  14.074   5.501  0.4394 -0.0524 -0.0072
 1128YOPC   GL116025   1.514  13.970   5.953 -0.0685  0.0061 -0.2628
 1128YOPC   GL216026   1.732  13.742   6.166  0.1095  0.2620 -0.0648
 1128YOPC   C1A16027   1.469  14.150   6.362 -0.2530 -0.1629  0.1276
 1128YOPC   D2A16028   1.568  13.998   6.738 -0.0980  0.1001  0.0219
 1128YOPC   C3A16029   1.251  13.874   7.000  0.1772 -0.0930 -0.0696
 1128YOPC   C4A16030   0.908  13.948   7.181  0.2004 -0.1884  0.2930
 1128YOPC   C1B16031   1.740  13.548   6.468  0.1433 -0.1881 -0.2175
 1128YOPC   C2B16032   1.551  13.464   6.872 -0.2709 -0.1383  0.1178
 1128YOPC   D3B16033   1.770  13.732   7.223  0.1180 -0.1385  0.0723
 1128YOPC   C4B16034   1.827  13.965   7.644 -0.2069 -0.2359 -0.0479
 1129YOPC   NC316035  10.893  17.512   5.961 -0.2204 -0.0025  0.0489
 1129YOPC   PO416036  10.687  17.800   6.012  0.0929  0.0648 -0.0278
 1129YOPC   GL116037  10.580  17.762   6.414 -0.2426 -0.2437  0.2199
 1129YOPC   GL216038  10.646  18.073   6.637 -0.0537  0.1180 -0.3801
 1129YOPC   C1A16039  10.747  17.552   6.763  0.3081 -0.0119 -0.1046
 1129YOPC   D2A16040  10.444  17.574   7.119  0.1937 -0.0813  0.1482
 1129YOPC   C3A16041  10.575  17.733   7.500 -0.1304  0.0850  0.0250
 1129YOPC   C4A16042  10.582  17.520   7.841 -0.1667  0.1754  0.0558
 1129YOPC   C1B16043  10.558  17.991   7.013 -0.0436  0.1129  0.0353
 1129YOPC   C2B16044  10.638  18.272   7.374 -0.1477 -0.1179 -0.1096
 1129YOPC   D3B16045  10.617  18.177   7.819 -0.0388 -0.1878  0.0853
 1129YOPC   C4B16046  10.700  17.897   8.170 -0.1071 -0.0721  0.0954
 1130YOPC   NC316047   8.604   1.785   5.769  0.0586  0.3446 -0.0044
 1130YOPC   PO416048   9.044   1.924   5.814 -0.2119 -0.0303 -0.1251
 1130YOPC   GL116049   9.010   1.637   6.104 -0.1023 -0.1439  0.2432
 1130YOPC   GL216050   8.784   1.771   6.310  0.0437  0.0290 -0.0513
 1130YOPC   C1A16051   9.111   1.493   6.515 -0.1143  0.1328 -0.2131
 1130YOPC   D2A16052   9.449   1.387   6.796 -0.1021 -0.0398 -0.0866
 1130YOPC   C3A16053   9.250   1.182   7.148 -0.1136  0.1464 -0.2414
 1130YOPC   C4A16054   9.039   1.236   7.515  0.1302  0.4308  0.3019
 1130YOPC   C1B16055   8.708   1.974   6.669 -0.0505 -0.1218 -0.1060
 1130YOPC   C2B16056   8.646   2.049   7.106 -0.0643  0.2002  0.0019
 1130YOPC   D3B16057   9.074   2.034   7.453 -0.0268  0.0741 -0.1515
 1130YOPC   C4B16058   9.131   2.026   7.842 -0.0639  0.0700  0.1492
 1131YOPC   NC316059   7.103   1.542   5.638  0.2951 -0.4469  0.2187
 1131YOPC   PO416060   7.500   1.303   5.738  0.0186 -0.1611 -0.1999
 1131YOPC   GL116061   7.588   1.121   6.189  0.0225 -0.0954  0.1987
 1131YOPC   GL216062   7.770   0.798   6.200 -0.1496  0.1560  0.1788
 1131YOPC   C1A16063   7.819   1.221   6.509 -0.0164 -0.1937 -0.0864
 1131YOPC   D2A16064   7.652   1.077   7.008 -0.2658  0.0659  0.0250
 1131YOPC   C3A16065   7.668   1.311   7.471 -0.2120 -0.2318  0.1762
 1131YOPC   C4A16066   7.596   1.337   7.871 -0.3210 -0.1450 -0.0108
 1131YOPC   C1B16067   7.913   0.706   6.613  0.0998 -0.2099 -0.2231
 1131YOPC   C2B16068   7.906   0.663   7.092  0.1603 -0.2116  0.0558
 1131YOPC   D3B16069   8.013   0.908   7.435  0.1175 -0.0270 -0.0914
 1131YOPC   C4B16070   8.115   1.035   7.810 -0.1706 -0.2368  0.3155
 1132YOPC   NC316071  13.720  17.916   6.040 -0.0204 -0.2722  0.1804
 1132YOPC   PO416072  13.692  18.292   6.140 -0.0326  0.0452  0.3538
 1132YOPC   GL116073  13.680  18.294   6.571  0.0545  0.3508  0.2261
 1132YOPC   GL216074  13.889  18.526   6.661 -0.3761 -0.1156 -0.1093
 1132YOPC   C1A16075  13.709  18.100   6.866 -0.2756  0.2487 -0.2862
 1132YOPC   D2A16076  13.720  17.943   7.190  0.0352 -0.2260  0.2045
 1132YOPC   C3A16077  13.514  17.631   7.389  0.0917  0.0262  0.0427
 1132YOPC   C4A16078  13.630  17.495   7.801 -0.0120  0.1605  0.3502
 1132YOPC   C1B16079  13.802  18.467   7.116  0.1497 -0.0442  0.1196
 1132YOPC   C2B16080  13.866  18.549   7.483  0.2164  0.0190 -0.1983
 1132YOPC   D3B16081  13.504  18.379   7.732  0.4234  0.0584  0.1631
 1132YOPC   C4B16082  13.173  18.484   7.994  0.1447  0.1928  0.1892
 1133YOPC   NC316083  13.808   8.050   5.712 -0.0787  0.3558  0.0309
 1133YOPC   PO416084  14.054   7.762   5.871  0.0338  0.2874 -0.1575
 1133YOPC   GL116085  14.275   7.813   6.328  0.2227 -0.0727 -0.1416
 1133YOPC   GL216086  14.127   7.707   6.644 -0.3490  0.0193 -0.1187
 1133YOPC   C1A16087  14.449   8.157   6.678  0.1829 -0.0470 -0.0304
 1133YOPC   D2A16088  14.706   8.323   6.961  0.2324 -0.0534 -0.0745
 1133YOPC   C3A16089  14.662   8.392   7.328 -0.2447 -0.3865  0.2588
 1133YOPC   C4A16090  14.772   8.239   7.643  0.1513 -0.2504  0.3585
 1133YOPC   C1B16091  14.292   7.899   7.036 -0.1336  0.0237 -0.0072
 1133YOPC   C2B16092  14.372   7.925   7.508 -0.3142  0.0509 -0.1446
 1133YOPC   D3B16093  14.303   7.919   7.928  0.4047 -0.2880 -0.3045
 1133YOPC   C4B16094  14.518   7.830   8.308  0.0951 -0.1065  0.2468
 1134YOPC   NC316095   9.272   5.219   6.254  0.0859 -0.2578 -0.0795
 1134YOPC   PO416096   8.917   5.415   6.278 -0.0137 -0.2429  0.0220
 1134YOPC   GL116097   9.012   5.266   6.703  0.0333  0.0933 -0.0656
 1134YOPC   GL216098   9.305   5.233   6.777 -0.0480  0.0851  0.1342
 1134YOPC   C1A16099   8.873   5.162   7.041 -0.0535  0.0967  0.1063
 1134YOPC   D2A16100   8.894   5.182   7.444 -0.2422  0.1079 -0.0676
 1134YOPC   C3A16101   8.921   4.926   7.745  0.1259 -0.0802  0.2972
 1134YOPC   C4A16102   8.864   5.006   8.164  0.0269 -0.1233  0.0438
 1134YOPC   C1B16103   9.343   5.151   7.274 -0.0942  0.2936 -0.2917
 1134YOPC   C2B16104   9.342   5.204   7.765 -0.1196 -0.3172 -0.0406
 1134YOPC   D3B16105   9.775   5.296   7.903 -0.4542  0.1619  0.0729
 1134YOPC   C4B16106  10.101   5.161   8.244 -0.3613  0.3102  0.0957
 1135YOPC   NC316107  16.568   4.138   5.774  0.0755  0.2714  0.2856
 1135YOPC   PO416108  16.864   4.088   6.098  0.3381  0.0585  0.0947
 1135YOPC   GL116109  16.801   4.256   6.610 -0.1746 -0.2559 -0.0423
 1135YOPC   GL216110  17.136   4.360   6.592  0.0118  0.1025 -0.1438
 1135YOPC   C1A16111  16.702   4.494   6.938 -0.0430 -0.2218 -0.1689
 1135YOPC   D2A16112  16.619   4.674   7.398  0.0151 -0.0792  0.2118
 1135YOPC   C3A16113  16.501   4.371   7.741  0.0776 -0.1243 -0.0064
 1135YOPC   C4A16114  16.684   4.206   8.156  0.0318  0.1158 -0.0208
 1135YOPC   C1B16115  17.189   4.197   7.044 -0.0208 -0.1977 -0.1261
 1135YOPC   C2B16116  16.955   4.298   7.372  0.0069 -0.1995 -0.0534
 1135YOPC   D3B16117  16.998   4.450   7.753 -0.2069  0.0773 -0.1742
 1135YOPC   C4B16118  16.963   4.608   8.209 -0.1412  0.3753  0.0741
 1136YOPC   NC316119  11.474  14.094   6.065 -0.1879 -0.3716 -0.1376
 1136YOPC   PO416120  11.874  14.308   5.993 -0.1798  0.1274 -0.0553
 1136YOPC   GL116121  11.899  14.379   6.432  0.1181  0.1674  0.1596
 1136YOPC   GL216122  11.992  14.086   6.739  0.0841 -0.0912  0.4798
 1136YOPC   C1A16123  12.020  14.627   6.816  0.1940  0.0741 -0.1555
 1136YOPC   D2A16124  12.024  14.587   7.161  0.2492  0.0823 -0.0120
 1136YOPC   C3A16125  12.346  14.469   7.370 -0.2600  0.2794  0.2589
 1136YOPC   C4A16126  12.738  14.429   7.293  0.0861 -0.0964 -0.2764
 1136YOPC   C1B16127  11.948  14.094   7.226  0.1220  0.0412 -0.1080
 1136YOPC   C2B16128  12.142  14.011   7.644 -0.1362 -0.1313 -0.0394
 1136YOPC   D3B16129  12.546  14.244   7.722 -0.1316 -0.0705  0.1346
 1136YOPC   C4B16130  12.818  13.980   7.987 -0.1033 -0.1815 -0.0347
 1137YOPC   NC316131   1.820  15.584   5.680 -0.0793 -0.1937 -0.1598
 1137YOPC   PO416132   1.883  15.235   5.921  0.2447  0.0680  0.0770
 1137YOPC   GL116133   1.909  15.176   6.275 -0.0415 -0.2386  0.1115
 1137YOPC   GL216134   1.632  14.928   6.291 -0.2922  0.1428  0.1839
 1137YOPC   C1A16135   2.137  15.353   6.673  0.0341  0.2312  0.0262
 1137YOPC   D2A16136   2.383  15.394   7.037 -0.3111  0.1029 -0.0223
 1137YOPC   C3A16137   2.179  15.429   7.453 -0.2042 -0.2145  0.0030
 1137YOPC   C4A16138   1.866  15.693   7.591 -0.2654  0.0937 -0.0210
 1137YOPC   C1B16139   1.694  15.057   6.696 -0.1440 -0.1105 -0.1616
 1137YOPC   C2B16140   1.825  15.187   7.094 -0.2002  0.0276 -0.0553
 1137YOPC   D3B16141   1.886  15.604   7.067  0.1036  0.2038  0.0389
 1137YOPC   C4B16142   1.736  15.990   7.189 -0.1695 -0.0627  0.1425
 1138YOPC   NC316143  13.332  15.459   6.033  0.0293  0.0027 -0.2874
 1138YOPC   PO416144  13.043  15.805   6.071 -0.0242  0.0992 -0.1901
 1138YOPC   GL116145  13.000  15.640   6.453 -0.0514 -0.4801  0.0242
 1138YOPC   GL216146  12.933  15.859   6.770 -0.1960  0.0901 -0.1395
 1138YOPC   C1A16147  13.098  15.271   6.687 -0.0541  0.3007 -0.2206
 1138YOPC   D2A16148  13.140  15.253   7.118 -0.0119  0.0646 -0.3168
 1138YOPC   C3A16149  12.714  15.232   7.345  0.2181  0.2170  0.1739
 1138YOPC   C4A16150  12.313  15.025   7.625 -0.1367 -0.2617  0.1560
 1138YOPC   C1B16151  12.555  16.065   6.838 -0.0454  0.2131  0.0934
 1138YOPC   C2B16152  12.305  15.970   7.224  0.1683  0.0785 -0.2128
 1138YOPC   D3B16153  12.500  16.167   7.536 -0.2370 -0.1363 -0.0536
 1138YOPC   C4B16154  12.532  16.302   7.928  0.0168 -0.1153 -0.4238
 1139YOPC   NC316155  11.192   2.055   6.174 -0.3727  0.0303 -0.1242
 1139YOPC   PO416156  10.765   2.148   6.287 -0.1173  0.2453 -0.0504
 1139YOPC   GL116157  10.505   2.371   6.615  0.1253  0.0574 -0.2557
 1139YOPC   GL216158  10.241   2.437   6.512 -0.0901  0.3622  0.1848
 1139YOPC   C1A16159  10.382   2.374   7.020 -0.0041  0.1720  0.1197
 1139YOPC   D2A16160  10.183   2.364   7.449  0.1146  0.1539  0.0794
 1139YOPC   C3A16161  10.513   2.220   7.794 -0.0229  0.0646 -0.0686
 1139YOPC   C4A16162  10.677   2.321   8.121  0.0988  0.1550  0.0217
 1139YOPC   C1B16163  10.048   2.138   6.658 -0.2693  0.0617  0.2339
 1139YOPC   C2B16164  10.057   1.954   7.049 -0.0113 -0.0646 -0.0108
 1139YOPC   D3B16165   9.872   1.486   7.127  0.1734  0.0432  0.1759
 1139YOPC   C4B16166   9.695   1.159   7.467  0.2088  0.2356  0.0178
 1140YOPC   NC316167  17.086  10.920   5.734  0.3794  0.1201 -0.1383
 1140YOPC   PO416168  17.545  10.857   5.608 -0.1061  0.0435  0.0493
 1140YOPC   GL116169  17.747  10.913   6.038 -0.1686  0.0126 -0.1108
 1140YOPC   GL216170  17.922  11.197   6.076  0.2051  0.0861 -0.1360
 1140YOPC   C1A16171  17.594  10.905   6.492  0.1704  0.0211  0.0118
 1140YOPC   D2A16172  17.511  11.116   6.769  0.2595 -0.1177  0.1074
 1140YOPC   C3A16173  17.115  11.231   7.091  0.2487 -0.2136  0.0364
 1140YOPC   C4A16174  16.953  11.311   7.569 -0.1302 -0.2316  0.1233
 1140YOPC   C1B16175  17.763  11.363   6.427 -0.0036 -0.2682 -0.0541
 1140YOPC   C2B16176  18.055  11.217   6.872  0.1062 -0.1702  0.4499
 1140YOPC   D3B16177  17.840  11.105   7.189 -0.1199 -0.0172  0.0363
 1140YOPC   C4B16178  17.850  10.891   7.567  0.4191  0.0726  0.0744
 1141YOPC   NC316179   8.883  11.368   5.834  0.4090 -0.1112  0.0610
 1141YOPC   PO416180   9.289  11.281   5.850  0.2812 -0.0776  0.0948
 1141YOPC   GL116181   9.205  11.299   6.304  0.1634 -0.0207 -0.0624
 1141YOPC   GL216182   9.505  11.473   6.512 -0.0923 -0.0571 -0.1791
 1141YOPC   C1A16183   9.011  11.485   6.639 -0.0696 -0.3039 -0.0279
 1141YOPC   D2A16184   8.942  11.590   7.047 -0.1073  0.0674 -0.0900
 1141YOPC   C3A16185   8.515  11.490   7.279 -0.0875  0.1779  0.1148
 1141YOPC   C4A16186   8.313  11.869   7.562 -0.0389 -0.2306  0.1748
 1141YOPC   C1B16187   9.476  11.510   6.860  0.1352  0.1873 -0.2058
 1141YOPC   C2B16188   9.490  11.628   7.192  0.1858 -0.0061  0.0282
 1141YOPC   D3B16189   9.653  11.972   7.365  0.0721 -0.2047 -0.1166
 1141YOPC   C4B16190   9.569  12.401   7.346 -0.1649 -0.1431 -0.0645
 1142YOPC   NC316191   0.881   6.741   5.940  0.0450 -0.0313 -0.2266
 1142YOPC   PO416192   1.073   7.141   6.095 -0.1490  0.0612  0.1505
 1142YOPC   GL116193   0.749   7.014   6.350  0.0212  0.0251 -0.0365
 1142YOPC   GL216194   0.835   6.747   6.456  0.0207  0.0523 -0.0909
 1142YOPC   C1A16195   0.789   6.972   6.859 -0.2196 -0.0467  0.0790
 1142YOPC   D2A16196   0.561   6.780   7.072  0.1109 -0.1546 -0.2393
 1142YOPC   C3A16197   0.578   6.485   7.387 -0.2156  0.1512 -0.2424
 1142YOPC   C4A16198   0.741   6.314   7.808 -0.2601  0.2777 -0.4660
 1142YOPC   C1B16199   1.056   6.613   6.695 -0.1463 -0.3946  0.0789
 1142YOPC   C2B16200   1.281   6.345   7.091 -0.3066  0.3182 -0.0061
 1142YOPC   D3B16201   1.261   6.346   7.594  0.1892 -0.0341  0.0921
 1142YOPC   C4B16202   1.197   6.098   7.915  0.2511  0.0019  0.0102
 1143ERGO   ROH16203  16.375  16.691   6.700 -0.0960  0.2182 -0.0490
 1143ERGO    R116204  16.305  16.674   6.974 -0.2197 -0.0216 -0.0929
 1143ERGO    R216205  16.250  16.433   7.099  0.0771 -0.1734 -0.2419
 1143ERGO    R316206  16.442  16.516   7.272 -0.1373  0.0386 -0.0987
 1143ERGO    R416207  16.311  16.292   7.408  0.0434 -0.1447 -0.2217
 1143ERGO    R516208  16.342  16.492   7.488 -0.2551 -0.1161 -0.1686
 1143ERGO    C116209  16.528  16.287   7.751 -0.1777  0.0708 -0.0755
 1143ERGO    C216210  16.598  15.958   7.957  0.2795 -0.0362 -0.0571
 1144ERGO   ROH16211   1.217   7.555   6.327 -0.0103  0.2738  0.0534
 1144ERGO    R116212   1.130   7.640   6.583 -0.0459  0.1854  0.0718
 1144ERGO    R216213   0.954   7.493   6.737 -0.0201  0.1011  0.0248
 1144ERGO    R316214   1.150   7.516   6.924 -0.0351  0.0991  0.0395
 1144ERGO    R416215   0.922   7.399   7.068 -0.0340  0.0651  0.0125
 1144ERGO    R516216   1.033   7.578   7.124 -0.0534  0.0683  0.0377
 1144ERGO    C116217   1.086   7.365   7.436 -0.0561  0.0421  0.0192
 1144ERGO    C216218   1.206   7.221   7.678 -0.1686  0.0037  0.2240
 1145ERGO   ROH16219   9.726  11.083  10.040 -0.0753 -0.1244  0.0265
 1145ERGO    R116220   9.858  11.071   9.790 -0.0796  0.1200  0.0094
 1145ERGO    R216221   9.971  10.839   9.693  0.1591  0.2737 -0.1012
 1145ERGO    R316222   9.815  10.891   9.477  0.0824  0.2058 -0.0613
 1145ERGO    R416223  10.055  10.764   9.366 -0.0538 -0.0083 -0.0941
 1145ERGO    R516224   9.969  10.956   9.305  0.0284 -0.0070 -0.1883
 1145ERGO    C116225   9.957  10.770   8.973 -0.2497 -0.2362 -0.0526
 1145ERGO    C216226  10.039  10.703   8.646 -0.2923  0.0423  0.1531
 1146ERGO   ROH16227  12.056   3.333   6.532  0.0714 -0.1204 -0.0683
 1146ERGO    R116228  12.111   3.326   6.810 -0.0285 -0.0741 -0.0470
 1146ERGO    R216229  12.368   3.315   6.910 -0.0670 -0.1261  0.0470
 1146ERGO    R316230  12.290   3.535   7.049 -0.0527 -0.0722 -0.0309
 1146ERGO    R416231  12.448   3.380   7.240 -0.1786 -0.0823  0.0656
 1146ERGO    R516232  12.245   3.454   7.269 -0.1669 -0.0118 -0.0313
 1146ERGO    C116233  12.420   3.625   7.562 -0.2302 -0.0063  0.0032
 1146ERGO    C216234  12.296   3.578   7.884 -0.2523 -0.2711  0.0543
 1147ERGO   ROH16235   7.450  11.899   6.108 -0.2350  0.0195  0.0153
 1147ERGO    R116236   7.558  11.988   6.354 -0.1601  0.0560 -0.0293
 1147ERGO    R216237   7.406  12.010   6.584 -0.1073  0.1484  0.0035
 1147ERGO    R316238   7.601  11.852   6.688 -0.1207  0.1266 -0.0071
 1147ERGO    R416239   7.461  11.962   6.921 -0.0991  0.1197 -0.0026
 1147ERGO    R516240   7.676  11.970   6.883 -0.1048  0.1025 -0.0039
 1147ERGO    C116241   7.676  11.785   7.217 -0.1069  0.0825 -0.0160
 1147ERGO    C216242   7.843  11.921   7.533  0.1158  0.3694 -0.0909
 1148ERGO   ROH16243   0.431   5.070   6.333 -0.1963  0.1265  0.1641
 1148ERGO    R116244   0.495   5.178   6.587  0.2664 -0.0012  0.1097
 1148ERGO    R216245   0.750   5.266   6.651  0.3033  0.3511 -0.4500
 1148ERGO    R316246   0.619   5.496   6.715  0.0767  0.0843  0.0770
 1148ERGO    R416247   0.869   5.509   6.865  0.4220  0.3404 -0.5029
 1148ERGO    R516248   0.669   5.530   6.946  0.5711 -0.0582 -0.0007
 1148ERGO    C116249   0.816   5.866   7.050  0.2784  0.0837 -0.0390
 1148ERGO    C216250   0.795   5.981   7.353  0.2278 -0.0773 -0.0832
 1149ERGO   ROH16251   4.778  12.726   6.172  0.0203  0.1141 -0.0468
 1149ERGO    R116252   4.962  12.778   6.381  0.0353 -0.0321 -0.0221
 1149ERGO    R216253   4.894  12.923   6.606  0.1311  0.0585 -0.0494
 1149ERGO    R316254   4.987  12.703   6.736 -0.0948 -0.0153 -0.0095
 1149ERGO    R416255   4.955  12.905   6.946  0.0237  0.0218 -0.0317
 1149ERGO    R516256   5.135  12.790   6.903 -0.0645 -0.1365  0.0255
 1149ERGO    C116257   5.078  12.688   7.266 -0.2509 -0.0689  0.0159
 1149ERGO    C216258   5.059  12.726   7.661  0.0552 -0.2387 -0.0246
 1150ERGO   ROH16259   9.067  11.877   9.859 -0.0801  0.0539  0.0890
 1150ERGO    R116260   9.253  11.955   9.661 -0.0381 -0.0525  0.0859
 1150ERGO    R216261   9.245  11.858   9.403 -0.1653  0.0258  0.0602
 1150ERGO    R316262   9.241  12.122   9.338  0.0591  0.0559  0.1349
 1150ERGO    R416263   9.266  11.982   9.081 -0.4361  0.0734  0.0576
 1150ERGO    R516264   9.396  12.141   9.156 -0.1440 -0.0882 -0.0650
 1150ERGO    C116265   9.275  12.303   8.833 -0.3830  0.1293  0.1263
 1150ERGO    C216266   9.312  12.455   8.565 -0.0318  0.1733 -0.0606
 1151ERGO   ROH16267  15.441  17.823   6.494  0.1668 -0.1015 -0.0835
 1151ERGO    R116268  15.493  17.971   6.730  0.0689 -0.1071 -0.0579
 1151ERGO    R216269  15.293  18.059   6.898  0.0076 -0.2247 -0.0704
 1151ERGO    R316270  15.438  17.928   7.087  0.0476 -0.1796 -0.0693
 1151ERGO    R416271  15.243  18.086   7.239  0.1050 -0.1068 -0.0646
 1151ERGO    R516272  15.459  18.086   7.265  0.1148 -0.1213 -0.1263
 1151ERGO    C116273  15.350  17.978   7.615  0.1993  0.0042 -0.0602
 1151ERGO    C216274  15.408  17.951   8.032  0.2631 -0.0476 -0.3925
 1152ERGO   ROH16275   5.812   9.500   6.230  0.0404 -0.0325  0.2205
 1152ERGO    R116276   5.657   9.433   6.458  0.0520  0.0132  0.2418
 1152ERGO    R216277   5.618   9.172   6.540 -0.0727  0.0192  0.2048
 1152ERGO    R316278   5.713   9.267   6.777  0.0297 -0.0725  0.2016
 1152ERGO    R416279   5.659   8.984   6.827 -0.0402 -0.0695  0.1425
 1152ERGO    R516280   5.585   9.153   6.943  0.0467 -0.0776  0.2110
 1152ERGO    C116281   5.772   8.964   7.216  0.0749 -0.2073  0.1031
 1152ERGO    C216282   5.813   8.850   7.521 -0.2241  0.1025  0.1583
 1153ERGO   ROH16283   0.955   0.341   6.646 -0.3052  0.2179  0.0382
 1153ERGO    R116284   1.027   0.497   6.871 -0.1224  0.0925  0.0687
 1153ERGO    R216285   0.856   0.539   7.084 -0.0166  0.1237  0.1479
 1153ERGO    R316286   1.066   0.443   7.229 -0.0210 -0.0604  0.0359
 1153ERGO    R416287   0.861   0.511   7.429  0.1455  0.1340  0.1472
 1153ERGO    R516288   1.068   0.580   7.426  0.2097 -0.0525  0.0309
 1153ERGO    C116289   1.060   0.405   7.765  0.2358 -0.0327  0.0415
 1153ERGO    C216290   0.999   0.494   8.146 -0.3280  0.1168 -0.2693
 1154ERGO   ROH16291  17.121   4.838   6.600 -0.0662  0.0106  0.0794
 1154ERGO    R116292  17.142   4.752   6.869 -0.1157 -0.0807  0.0544
 1154ERGO    R216293  17.279   4.895   7.061  0.0503 -0.2635  0.0749
 1154ERGO    R316294  17.044   4.878   7.196  0.0488 -0.0685  0.1004
 1154ERGO    R416295  17.238   4.964   7.397  0.1655 -0.3181  0.1006
 1154ERGO    R516296  17.104   4.793   7.411 -0.0047 -0.1917  0.0682
 1154ERGO    C116297  16.993   4.987   7.719  0.2310 -0.1669  0.1393
 1154ERGO    C216298  16.897   5.272   7.912 -0.0683 -0.1134  0.1248
 1155ERGO   ROH16299   7.791  14.762   6.371  0.0478  0.0585  0.2347
 1155ERGO    R116300   7.768  14.750   6.653  0.1520  0.1400  0.2470
 1155ERGO    R216301   7.748  14.511   6.790  0.0645  0.1852  0.3117
 1155ERGO    R316302   7.961  14.609   6.928  0.1776  0.0920  0.2049
 1155ERGO    R416303   7.820  14.439   7.121  0.1059  0.2794  0.3235
 1155ERGO    R516304   7.877  14.648   7.148  0.2678  0.2532  0.2135
 1155ERGO    C116305   8.063  14.489   7.441  0.2362  0.2468  0.2302
 1155ERGO    C216306   8.073  14.367   7.743 -0.0844 -0.2539  0.1691
 1156ERGO   ROH16307  13.847  17.020   6.716  0.1923 -0.1204  0.1486
 1156ERGO    R116308  13.950  17.075   6.973  0.1702 -0.1251  0.1586
 1156ERGO    R216309  14.118  17.288   7.024  0.1271 -0.0966  0.1870
 1156ERGO    R316310  13.932  17.349   7.213  0.1064 -0.1513  0.1838
 1156ERGO    R416311  14.159  17.526   7.272  0.1225 -0.2079  0.2950
 1156ERGO    R516312  14.060  17.390   7.411  0.0815 -0.2540  0.2215
 1156ERGO    C116313  14.007  17.720   7.594  0.1004 -0.3242  0.3547
 1156ERGO    C216314  14.034  18.060   7.590 -0.0020 -0.1997  0.3043
 1157ERGO   ROH16315  17.598   0.572   6.632  0.2454  0.3625 -0.1380
 1157ERGO    R116316  17.653   0.447   6.880  0.1687  0.1983 -0.2037
 1157ERGO    R216317  17.817   0.560   7.070  0.0055  0.1319 -0.0291
 1157ERGO    R316318  17.601   0.524   7.232 -0.0630 -0.1007 -0.1661
 1157ERGO    R416319  17.833   0.516   7.413 -0.1544  0.2404 -0.0060
 1157ERGO    R516320  17.676   0.365   7.395  0.0407  0.0290 -0.0767
 1157ERGO    C116321  17.639   0.456   7.763 -0.3116  0.0854 -0.1211
 1157ERGO    C216322  17.729   0.338   7.949  0.1032 -0.0232 -0.0336
 1158ERGO   ROH16323   5.491   6.321   6.310 -0.0687  0.1469  0.0836
 1158ERGO    R116324   5.354   6.265   6.551 -0.2059  0.0013 -0.0266
 1158ERGO    R216325   5.279   6.009   6.622  0.0034 -0.0809 -0.0929
 1158ERGO    R316326   5.416   6.067   6.850 -0.2379  0.0621  0.0205
 1158ERGO    R416327   5.259   5.826   6.914  0.2101 -0.3113 -0.2191
 1158ERGO    R516328   5.261   6.014   7.026 -0.2387 -0.3664 -0.0962
 1158ERGO    C116329   5.376   5.773   7.299  0.1039 -0.3112 -0.1862
 1158ERGO    C216330   5.258   5.572   7.502  0.0696 -0.0614  0.2186
 1159ERGO   ROH16331  17.132   9.306   6.335  0.0443 -0.0138  0.0646
 1159ERGO    R116332  17.080   9.158   6.571  0.2432 -0.0391  0.0929
 1159ERGO    R216333  17.261   9.142   6.780  0.2115  0.3576  0.1505
 1159ERGO    R316334  17.049   9.229   6.927  0.0020  0.0145  0.0638
 1159ERGO    R416335  17.232   9.111   7.123  0.0486  0.1631  0.1215
 1159ERGO    R516336  17.021   9.061   7.095  0.1212 -0.1055 -0.0286
 1159ERGO    C116337  17.016   9.173   7.460 -0.2430 -0.2724  0.0231
 1159ERGO    C216338  16.975   9.130   7.766 -0.0637  0.1966  0.4601
 1160ERGO   ROH16339  14.730   1.422  10.363 -0.1511 -0.1092  0.0724
 1160ERGO    R116340  14.773   1.509  10.097 -0.0720 -0.0386  0.1070
 1160ERGO    R216341  14.774   1.336   9.882  0.0166  0.0123  0.0607
 1160ERGO    R316342  14.587   1.507   9.784  0.0295  0.0178  0.0467
 1160ERGO    R416343  14.732   1.413   9.548  0.1453  0.1412  0.0741
 1160ERGO    R516344  14.698   1.621   9.605  0.0844  0.1096  0.1409
 1160ERGO    C116345  14.532   1.619   9.261  0.2324  0.2214  0.0686
 1160ERGO    C216346  14.512   1.555   8.887  0.0558  0.0354  0.0411
 1161ERGO   ROH16347  10.007  11.575   6.543  0.0535 -0.0166 -0.0824
 1161ERGO    R116348  10.002  11.530   6.822 -0.1421  0.0598 -0.0723
 1161ERGO    R216349  10.211  11.602   6.988 -0.0958 -0.2326 -0.0016
 1161ERGO    R316350  10.015  11.735   7.122  0.0525  0.1179 -0.1182
 1161ERGO    R416351  10.239  11.724   7.311 -0.0951 -0.3685  0.0505
 1161ERGO    R516352  10.035  11.658   7.348 -0.2625  0.0146 -0.1186
 1161ERGO    C116353  10.072  11.919   7.624  0.0445 -0.1188 -0.0286
 1161ERGO    C216354   9.882  12.199   7.755  0.0982 -0.0976 -0.2584
 1162ERGO   ROH16355   0.124  11.606   9.871 -0.2011  0.0015 -0.1296
 1162ERGO    R116356   0.008  11.548   9.619 -0.0690 -0.1764 -0.1508
 1162ERGO    R216357  -0.023  11.740   9.422 -0.2241 -0.2494 -0.1955
 1162ERGO    R316358   0.114  11.560   9.271  0.0150 -0.1319 -0.1252
 1162ERGO    R416359   0.015  11.758   9.079 -0.1637 -0.2726 -0.1903
 1162ERGO    R516360  -0.014  11.542   9.069  0.0777 -0.3133 -0.1542
 1162ERGO    C116361   0.165  11.600   8.737  0.0958 -0.1759 -0.1215
 1162ERGO    C216362   0.204  11.642   8.398  0.0654  0.2405  0.1279
 1163ERGO   ROH16363   7.765   0.156   6.323 -0.1701  0.2165  0.0371
 1163ERGO    R116364   7.635   0.237   6.561 -0.0556  0.0677  0.1527
 1163ERGO    R216365   7.544   0.057   6.750 -0.0162 -0.0544  0.0565
 1163ERGO    R316366   7.695   0.207   6.919  0.0846 -0.2123  0.1086
 1163ERGO    R416367   7.513   0.060   7.094 -0.1694  0.0113  0.0429
 1163ERGO    R516368   7.543   0.275   7.091  0.0827 -0.0201  0.0342
 1163ERGO    C116369   7.638   0.202   7.453 -0.1639 -0.0987  0.0839
 1163ERGO    C216370   7.808   0.211   7.825  0.1646 -0.2649 -0.2677
 1164ERGO   ROH16371   0.120  11.983   8.034 -0.0252  0.0246 -0.1150
 1164ERGO    R116372  -0.140  12.063   8.111 -0.0149 -0.0163 -0.0362
 1164ERGO    R216373  -0.260  12.292   8.014 -0.0541  0.0039  0.0539
 1164ERGO    R316374  -0.459  12.119   7.946 -0.0539  0.0071  0.0476
 1164ERGO    R416375  -0.574  12.386   7.902 -0.0614  0.0067  0.0778
 1164ERGO    R516376  -0.659  12.226   8.023 -0.0519 -0.0051  0.0662
 1164ERGO    C116377  -0.943  12.279   7.773 -0.0654  0.0114  0.0857
 1164ERGO    C216378  -1.258  12.125   7.621  0.2253 -0.1255 -0.0968
 1165ERGO   ROH16379   4.807   0.787   6.317  0.1416  0.1106  0.2052
 1165ERGO    R116380   4.674   0.721   6.558  0.0434 -0.0787  0.1012
 1165ERGO    R216381   4.682   0.468   6.667  0.2442 -0.0896  0.0564
 1165ERGO    R316382   4.769   0.600   6.888 -0.0559 -0.0351  0.1477
 1165ERGO    R416383   4.723   0.323   6.978  0.4801 -0.2019 -0.0247
 1165ERGO    R516384   4.641   0.505   7.067  0.0932 -0.4076  0.0724
 1165ERGO    C116385   4.830   0.363   7.367  0.3357 -0.2161  0.0137
 1165ERGO    C216386   4.949   0.199   7.659  0.1181  0.2030  0.2155
 1166ERGO   ROH16387   5.663  14.475   5.919  0.3334  0.0330 -0.1569
 1166ERGO    R116388   5.687  14.499   6.200  0.0864 -0.0146 -0.1281
 1166ERGO    R216389   5.931  14.487   6.329 -0.0265 -0.0810  0.0924
 1166ERGO    R316390   5.851  14.725   6.433 -0.0762 -0.0809  0.0516
 1166ERGO    R416391   6.005  14.598   6.648 -0.0747 -0.0170  0.0806
 1166ERGO    R516392   5.801  14.676   6.662 -0.0860 -0.0519  0.0527
 1166ERGO    C116393   5.972  14.886   6.931 -0.1495  0.0204  0.0355
 1166ERGO    C216394   6.164  15.090   7.102  0.0332  0.0261  0.1014
 1167ERGO   ROH16395  16.460  13.185   6.534 -0.1494  0.0658 -0.0161
 1167ERGO    R116396  16.446  13.238   6.812 -0.0694 -0.0546  0.0119
 1167ERGO    R216397  16.448  13.037   7.002  0.1195 -0.1324 -0.0676
 1167ERGO    R316398  16.656  13.179   7.103  0.0803 -0.0550 -0.0960
 1167ERGO    R416399  16.559  13.018   7.328  0.1375 -0.0464 -0.0689
 1167ERGO    R516400  16.587  13.234   7.326  0.0731 -0.0401 -0.1035
 1167ERGO    C116401  16.819  13.141   7.614  0.1111  0.0765 -0.0963
 1167ERGO    C216402  16.811  12.976   7.947 -0.0083 -0.0591 -0.1150
 1168ERGO   ROH16403  10.736   0.022  10.133 -0.2242  0.2398  0.0860
 1168ERGO    R116404  10.822  -0.061   9.877 -0.0587  0.1863  0.1578
 1168ERGO    R216405  10.648  -0.100   9.667  0.0469 -0.0868  0.1148
 1168ERGO    R316406  10.815   0.073   9.539 -0.0701  0.0046  0.0860
 1168ERGO    R416407  10.688  -0.081   9.324  0.0579 -0.1295  0.1136
 1168ERGO    R516408  10.902  -0.053   9.355  0.0331  0.0311  0.1199
 1168ERGO    C116409  10.868   0.093   9.004 -0.0457 -0.0687  0.0859
 1168ERGO    C216410  10.897  -0.017   8.656  0.0857  0.0305 -0.1862
 1169ERGO   ROH16411  13.960  15.708   6.507  0.2457  0.1979  0.1426
 1169ERGO    R116412  13.984  15.740   6.787  0.1319  0.0271  0.1726
 1169ERGO    R216413  13.930  15.979   6.915  0.1540 -0.0322  0.2858
 1169ERGO    R316414  13.762  15.825   7.063  0.0385 -0.0625  0.1276
 1169ERGO    R416415  13.815  16.060   7.231 -0.0174 -0.1255  0.2492
 1169ERGO    R516416  13.840  15.851   7.287 -0.0853 -0.1568  0.1868
 1169ERGO    C116417  13.591  15.962   7.554 -0.2255 -0.2084  0.0793
 1169ERGO    C216418  13.455  15.955   7.861  0.2586  0.3397  0.0045
 1170ERGO   ROH16419  15.930  10.564   6.820  0.1632 -0.2233 -0.1975
 1170ERGO    R116420  15.930  10.324   6.971  0.3167 -0.0706  0.0510
 1170ERGO    R216421  16.009  10.315   7.235 -0.1056  0.3415  0.2018
 1170ERGO    R316422  15.765  10.199   7.270  0.0182 -0.0311 -0.0932
 1170ERGO    R416423  15.932  10.088   7.485 -0.1875  0.6179  0.4348
 1170ERGO    R516424  15.815   9.975   7.339  0.2914  0.1597  0.3770
 1170ERGO    C116425  15.658   9.848   7.662 -0.1189  0.4291  0.2936
 1170ERGO    C216426  15.456   9.890   7.945 -0.3244 -0.0127  0.0744
 1171ERGO   ROH16427   3.885   7.952   7.743 -0.0214 -0.0187  0.1082
 1171ERGO    R116428   4.087   7.984   7.939  0.1103 -0.1453 -0.0048
 1171ERGO    R216429   4.354   7.940   7.886  0.1093  0.1700 -0.2957
 1171ERGO    R316430   4.382   8.192   7.984 -0.0362  0.0501  0.0726
 1171ERGO    R416431   4.654   8.083   7.983  0.0436  0.2285 -0.1763
 1171ERGO    R516432   4.550   8.172   8.153  0.0293 -0.0909 -0.0048
 1171ERGO    C116433   4.854   8.402   8.132 -0.1313  0.1502  0.2388
 1171ERGO    C216434   5.006   8.725   8.149 -0.1035  0.0465 -0.1535
 1172ERGO   ROH16435   5.507  12.200   9.980  0.0897 -0.1843  0.1166
 1172ERGO    R116436   5.641  12.155   9.734 -0.0428 -0.2323  0.0543
 1172ERGO    R216437   5.586  11.937   9.573 -0.2601 -0.1552  0.0303
 1172ERGO    R316438   5.547  12.127   9.384 -0.1958 -0.0980  0.0844
 1172ERGO    R416439   5.608  11.884   9.232 -0.1989 -0.0568  0.0172
 1172ERGO    R516440   5.708  12.076   9.214 -0.1717 -0.0684  0.0990
 1172ERGO    C116441   5.584  12.032   8.856 -0.1029  0.0542  0.0603
 1172ERGO    C216442   5.572  11.818   8.683  0.0036  0.1842  0.2225
 1173ERGO   ROH16443   6.047   8.260  10.320  0.0398  0.1056 -0.0354
 1173ERGO    R116444   6.010   8.073  10.110 -0.1448  0.1048 -0.0045
 1173ERGO    R216445   5.809   8.098   9.923 -0.1071  0.2874 -0.0246
 1173ERGO    R316446   6.015   8.080   9.746 -0.1095  0.0348 -0.0053
 1173ERGO    R416447   5.775   8.034   9.585 -0.1199 -0.0833  0.0421
 1173ERGO    R516448   5.950   7.905   9.596 -0.1543 -0.1186  0.1884
 1173ERGO    C116449   5.948   7.981   9.222 -0.1298 -0.5364  0.0990
 1173ERGO    C216450   5.959   8.106   8.947 -0.0046  0.1319  0.1195
 1174ERGO   ROH16451   8.093  13.261   6.210  0.3061  0.0146 -0.1895
 1174ERGO    R116452   8.301  13.169   6.379  0.3850  0.1544 -0.2097
 1174ERGO    R216453   8.490  13.339   6.487  0.1776  0.3112 -0.0855
 1174ERGO    R316454   8.409  13.229   6.721  0.2646  0.0854 -0.1589
 1174ERGO    R416455   8.693  13.289   6.762  0.1860  0.4265 -0.0702
 1174ERGO    R516456   8.595  13.097   6.792  0.4207  0.2826 -0.1899
 1174ERGO    C116457   8.735  13.156   7.142  0.2724  0.2817 -0.1301
 1174ERGO    C216458   8.982  13.251   7.352  0.0204 -0.2136  0.1353
 1175ERGO   ROH16459   7.760   6.634   6.816 -0.1163 -0.1945  0.0297
 1175ERGO    R116460   7.644   6.743   7.050 -0.0992 -0.1513  0.0187
 1175ERGO    R216461   7.640   6.607   7.291  0.0194 -0.0623  0.0753
 1175ERGO    R316462   7.758   6.833   7.384 -0.0463  0.0228 -0.0461
 1175ERGO    R416463   7.635   6.710   7.620 -0.0057  0.1189  0.0189
 1175ERGO    R516464   7.606   6.915   7.550 -0.0654  0.0705 -0.0902
 1175ERGO    C116465   7.743   6.983   7.900 -0.0821  0.3043 -0.1280
 1175ERGO    C216466   7.790   7.037   8.218  0.0844  0.0921  0.1232
 1176ERGO   ROH16467  10.213   6.350   6.862 -0.0636  0.3197 -0.2818
 1176ERGO    R116468  10.284   6.463   7.113 -0.1139  0.1266 -0.1776
 1176ERGO    R216469  10.399   6.713   7.137  0.0187  0.0538  0.0319
 1176ERGO    R316470  10.191   6.757   7.305 -0.0377  0.0609 -0.0418
 1176ERGO    R416471  10.422   6.874   7.442 -0.0913  0.0618  0.0346
 1176ERGO    R516472  10.283   6.728   7.524 -0.1182  0.0690 -0.0103
 1176ERGO    C116473  10.239   7.009   7.777 -0.2082  0.0731 -0.0329
 1176ERGO    C216474  10.019   7.069   8.060  0.1253  0.0683 -0.2830
 1177ERGO   ROH16475  12.649  12.174  10.360 -0.1602 -0.2612 -0.0227
 1177ERGO    R116476  12.535  12.157  10.101 -0.1180  0.0452 -0.0654
 1177ERGO    R216477  12.478  12.379   9.948  0.2511  0.2148  0.0380
 1177ERGO    R316478  12.630  12.251   9.763  0.1147  0.0887  0.0100
 1177ERGO    R416479  12.448  12.419   9.606  0.3682  0.4101  0.0483
 1177ERGO    R516480  12.478  12.204   9.583  0.0813  0.3737 -0.0412
 1177ERGO    C116481  12.573  12.322   9.233  0.3083  0.4056  0.0279
 1177ERGO    C216482  12.538  12.341   8.902  0.3899  0.0852  0.0866
 1178ERGO   ROH16483  11.054   6.936   6.746 -0.0165 -0.0155 -0.0404
 1178ERGO    R116484  10.872   7.132   6.838 -0.0721 -0.0238 -0.1316
 1178ERGO    R216485  10.598   7.105   6.812 -0.0677 -0.1515 -0.0447
 1178ERGO    R316486  10.601   7.149   7.080 -0.0184  0.0366 -0.0751
 1178ERGO    R416487  10.328   7.214   6.998 -0.1129 -0.2809 -0.0335
 1178ERGO    R516488  10.463   7.342   7.111 -0.1945 -0.0713 -0.1652
 1178ERGO    C116489  10.174   7.320   7.359 -0.0930 -0.1796 -0.0554
 1178ERGO    C216490   9.892   7.249   7.561 -0.2344 -0.2219 -0.2984
 1179ERGO   ROH16491  15.635  13.684   6.419 -0.1747 -0.0330  0.0372
 1179ERGO    R116492  15.568  13.822   6.656 -0.2743 -0.0124 -0.0031
 1179ERGO    R216493  15.363  13.741   6.823 -0.0579 -0.2576  0.1467
 1179ERGO    R316494  15.558  13.747   7.012  0.0354  0.1607  0.0461
 1179ERGO    R416495  15.311  13.702   7.163  0.1666 -0.0760  0.2041
 1179ERGO    R516496  15.457  13.859   7.198 -0.0309  0.1632  0.0116
 1179ERGO    C116497  15.465  13.686   7.538  0.3849  0.4226  0.1431
 1179ERGO    C216498  15.550  13.536   7.808 -0.0478 -0.0772 -0.1752
 1180ERGO   ROH16499   3.400  16.428   6.690 -0.0314 -0.2729  0.0329
 1180ERGO    R116500   3.441  16.582   6.924 -0.0569 -0.2072 -0.0058
 1180ERGO    R216501   3.460  16.469   7.175  0.1140 -0.1554  0.0052
 1180ERGO    R316502   3.694  16.606   7.184  0.0207  0.0138 -0.0994
 1180ERGO    R416503   3.638  16.537   7.463  0.1603  0.0300 -0.0662
 1180ERGO    R516504   3.679  16.736   7.384 -0.0065  0.0449 -0.1211
 1180ERGO    C116505   3.962  16.706   7.639  0.0998  0.2970 -0.2060
 1180ERGO    C216506   4.222  16.479   7.896 -0.0741 -0.1803 -0.1286
 1181ERGO   ROH16507   3.273   5.485   6.841 -0.0822 -0.0591  0.1125
 1181ERGO    R116508   3.280   5.444   7.121  0.0893 -0.1282  0.0993
 1181ERGO    R216509   3.516   5.404   7.259  0.2095  0.1856 -0.0058
 1181ERGO    R316510   3.426   5.613   7.409 -0.0471  0.0126  0.0872
 1181ERGO    R416511   3.529   5.420   7.604  0.2553  0.0775 -0.0022
 1181ERGO    R516512   3.330   5.510   7.603  0.1290 -0.1903  0.0702
 1181ERGO    C116513   3.451   5.625   7.945  0.0411 -0.1477  0.0871
 1181ERGO    C216514   3.540   5.687   8.202  0.1595 -0.1949 -0.2090
 1182ERGO   ROH16515   9.053  12.883  10.039 -0.1489 -0.1486 -0.2074
 1182ERGO    R116516   8.960  12.833   9.776 -0.0349 -0.0970 -0.2578
 1182ERGO    R216517   8.802  13.013   9.637  0.0309 -0.0699 -0.2907
 1182ERGO    R316518   8.997  12.987   9.449  0.1104 -0.0368 -0.2151
 1182ERGO    R416519   8.756  13.061   9.298  0.1510 -0.0684 -0.3077
 1182ERGO    R516520   8.885  12.889   9.261  0.1940 -0.0514 -0.2613
 1182ERGO    C116521   8.912  13.064   8.924  0.2955 -0.0366 -0.2466
 1182ERGO    C216522   8.904  13.045   8.536 -0.1410 -0.0195  0.1781
 1183ERGO   ROH16523   8.772  15.821   6.305  0.1079  0.1127 -0.0366
 1183ERGO    R116524   8.724  15.822   6.584 -0.0287  0.3654 -0.0556
 1183ERGO    R216525   8.812  15.620   6.752 -0.5846  0.2055  0.0833
 1183ERGO    R316526   8.926  15.827   6.887 -0.1345  0.0265  0.0286
 1183ERGO    R416527   8.919  15.608   7.080 -0.2554 -0.0293 -0.0292
 1183ERGO    R516528   8.839  15.808   7.109  0.0587  0.0963  0.1160
 1183ERGO    C116529   9.088  15.794   7.398  0.3588 -0.3340 -0.1461
 1183ERGO    C216530   9.180  15.880   7.724  0.0292 -0.0109  0.3001
 1184ERGO   ROH16531   1.305   6.768  10.041 -0.1435 -0.1748  0.0344
 1184ERGO    R116532   1.193   6.693   9.792  0.0066 -0.5684  0.0777
 1184ERGO    R216533   1.200   6.858   9.570 -0.7134 -0.4832  0.0960
 1184ERGO    R316534   1.313   6.640   9.453  0.0656 -0.0690  0.0126
 1184ERGO    R416535   1.221   6.808   9.229 -0.8109 -0.4053  0.0778
 1184ERGO    R516536   1.174   6.597   9.262  0.0460 -0.6291  0.1357
 1184ERGO    C116537   1.340   6.574   8.920 -0.1363  0.0289 -0.0110
 1184ERGO    C216538   1.360   6.616   8.586 -0.2544  0.1474 -0.0720
 1185ERGO   ROH16539   3.163  12.650   9.602  0.1744 -0.2500 -0.0463
 1185ERGO    R116540   3.094  12.537   9.352  0.0512 -0.2180 -0.0273
 1185ERGO    R216541   2.867  12.611   9.212  0.1596  0.0463 -0.0655
 1185ERGO    R316542   3.045  12.656   9.012  0.2407 -0.2301 -0.0600
 1185ERGO    R416543   2.791  12.604   8.875  0.1590  0.1433 -0.0680
 1185ERGO    R516544   2.981  12.502   8.839  0.0143 -0.1468 -0.0550
 1185ERGO    C116545   2.914  12.641   8.491  0.2346 -0.0595 -0.0642
 1185ERGO    C216546   2.784  12.679   8.152  0.3246 -0.0302 -0.0734
 1186ERGO   ROH16547  10.126   8.110   6.532  0.2780  0.0238 -0.1240
 1186ERGO    R116548  10.080   8.258   6.769  0.2226  0.1818 -0.2324
 1186ERGO    R216549  10.116   8.150   7.022 -0.3014  0.1955 -0.1466
 1186ERGO    R316550  10.278   8.365   7.056  0.0397 -0.0739 -0.0036
 1186ERGO    R416551  10.195   8.292   7.327 -0.4707  0.1488 -0.0794
 1186ERGO    R516552  10.177   8.488   7.235  0.0002  0.1620 -0.1782
 1186ERGO    C116553  10.393   8.576   7.536 -0.2491 -0.1313  0.0941
 1186ERGO    C216554  10.358   8.483   7.798 -0.1705 -0.0078 -0.1354
 1187ERGO   ROH16555  14.804   7.638   6.500  0.0813 -0.2106  0.0072
 1187ERGO    R116556  14.844   7.797   6.730  0.0044 -0.1238 -0.0388
 1187ERGO    R216557  14.728   7.739   6.974  0.0477 -0.1198 -0.0171
 1187ERGO    R316558  14.984   7.751   7.063  0.0456  0.0461 -0.0318
 1187ERGO    R416559  14.822   7.831   7.293  0.0064 -0.0479 -0.0257
 1187ERGO    R516560  14.988   7.943   7.207 -0.0681  0.0548 -0.0391
 1187ERGO    C116561  15.118   7.897   7.562 -0.0196  0.1498 -0.0444
 1187ERGO    C216562  15.319   7.784   7.777  0.0207  0.4091  0.1626
 1188ERGO   ROH16563  12.957   2.995   6.567 -0.1957  0.0526  0.0092
 1188ERGO    R116564  12.871   2.998   6.836 -0.1019  0.0017  0.0403
 1188ERGO    R216565  12.903   2.783   7.005  0.0430  0.0033  0.0160
 1188ERGO    R316566  13.025   2.967   7.164  0.0274  0.0423 -0.0161
 1188ERGO    R416567  12.909   2.772   7.351  0.1486  0.0009  0.0148
 1188ERGO    R516568  12.879   2.988   7.353  0.0757 -0.0098  0.0272
 1188ERGO    C116569  13.026   2.938   7.701  0.1953  0.0361 -0.0160
 1188ERGO    C216570  13.029   3.075   8.110  0.1852  0.0915  0.4859
 1189ERGO   ROH16571  16.417  11.831   6.453 -0.2905  0.2168  0.0810
 1189ERGO    R116572  16.591  11.725   6.650 -0.3254  0.1333  0.0671
 1189ERGO    R216573  16.839  11.835   6.703 -0.1561 -0.1409 -0.1352
 1189ERGO    R316574  16.745  11.843   6.958 -0.0211  0.1588 -0.0909
 1189ERGO    R416575  17.034  11.798   6.986 -0.0768 -0.3178 -0.2104
 1189ERGO    R516576  16.874  11.678   7.074 -0.2431 -0.0019 -0.0664
 1189ERGO    C116577  17.059  11.785   7.391  0.0964 -0.1394 -0.2126
 1189ERGO    C216578  17.303  11.805   7.593 -0.0569 -0.4606 -0.0324
 1190ERGO   ROH16579  14.309   1.954   6.490  0.1190 -0.1962  0.1065
 1190ERGO    R116580  14.223   1.826   6.727  0.0973 -0.0567  0.1746
 1190ERGO    R216581  14.327   1.887   6.976 -0.0193  0.1841  0.1662
 1190ERGO    R316582  14.066   1.927   7.040 -0.0619  0.1080  0.0445
 1190ERGO    R416583  14.207   1.923   7.298 -0.1828  0.0952  0.1165
 1190ERGO    R516584  14.035   1.802   7.242 -0.1279  0.0613  0.0079
 1190ERGO    C116585  13.892   1.983   7.546 -0.3181 -0.0280 -0.0266
 1190ERGO    C216586  13.911   2.108   7.865 -0.3497 -0.0463 -0.1354
 1191ERGO   ROH16587   0.740  17.884  10.419  0.1805 -0.2852 -0.2228
 1191ERGO    R116588   0.603  17.962  10.184  0.0567 -0.3028 -0.1583
 1191ERGO    R216589   0.726  18.103   9.980 -0.1289 -0.0398 -0.1002
 1191ERGO    R316590   0.633  17.898   9.827  0.0834 -0.0630 -0.1994
 1191ERGO    R416591   0.632  18.130   9.648 -0.3036  0.0539 -0.0439
 1191ERGO    R516592   0.464  17.998   9.689 -0.1079 -0.1994 -0.0628
 1191ERGO    C116593   0.491  17.954   9.311 -0.2059  0.0867 -0.1041
 1191ERGO    C216594   0.563  17.945   9.044  0.0270 -0.0641  0.1883
 1192ERGO   ROH16595   2.629   8.401   6.323  0.0812 -0.0037  0.0854
 1192ERGO    R116596   2.517   8.271   6.548  0.0361  0.0696  0.1053
 1192ERGO    R216597   2.515   7.997   6.577 -0.2378  0.0645  0.0523
 1192ERGO    R316598   2.635   8.052   6.814 -0.0839 -0.1060  0.0169
 1192ERGO    R416599   2.585   7.763   6.822 -0.6056 -0.0282  0.0747
 1192ERGO    R516600   2.524   7.910   6.972 -0.3136  0.1151  0.0643
 1192ERGO    C116601   2.738   7.680   7.188 -0.6753 -0.2421  0.0545
 1192ERGO    C216602   3.003   7.425   7.173 -0.1124  0.0739 -0.0313
 1193ERGO   ROH16603  15.303  11.300  10.089 -0.0487  0.0049 -0.1085
 1193ERGO    R116604  15.421  11.316   9.832  0.0776 -0.0990 -0.0582
 1193ERGO    R216605  15.475  11.093   9.679 -0.2260 -0.1401 -0.1091
 1193ERGO    R316606  15.327  11.225   9.493  0.0556  0.1643 -0.1254
 1193ERGO    R416607  15.508  11.055   9.337 -0.1805 -0.1143 -0.1077
 1193ERGO    R516608  15.482  11.270   9.315  0.1956 -0.0559 -0.0652
 1193ERGO    C116609  15.389  11.158   8.963  0.1102  0.1865 -0.1223
 1193ERGO    C216610  15.488  11.062   8.644  0.2469  0.0265  0.0786
 1194ERGO   ROH16611  14.488   2.898   6.455  0.0464  0.3041 -0.0949
 1194ERGO    R116612  14.393   2.800   6.703  0.0231  0.2155 -0.1383
 1194ERGO    R216613  14.556   2.776   6.926  0.0115  0.1040 -0.1391
 1194ERGO    R316614  14.362   2.926   7.042  0.0259  0.0828 -0.0888
 1194ERGO    R416615  14.492   2.788   7.265  0.1135  0.1206 -0.1205
 1194ERGO    R516616  14.279   2.789   7.221  0.1013  0.0856 -0.0534
 1194ERGO    C116617  14.273   2.937   7.572  0.1866  0.1105 -0.0624
 1194ERGO    C216618  14.043   3.078   7.786 -0.0432 -0.2898 -0.1276
 1195ERGO   ROH16619   0.353   4.225   6.943  0.2942 -0.1794  0.1977
 1195ERGO    R116620   0.329   4.389   7.172  0.0877 -0.0694  0.1018
 1195ERGO    R216621   0.090   4.508   7.245 -0.0231 -0.1563 -0.0790
 1195ERGO    R316622   0.138   4.383   7.482 -0.0687 -0.0147  0.0044
 1195ERGO    R416623  -0.064   4.587   7.544  0.0487  0.1177 -0.1124
 1195ERGO    R516624   0.128   4.558   7.645  0.0339  0.0924 -0.1126
 1195ERGO    C116625  -0.109   4.515   7.941  0.0477  0.4103 -0.0534
 1195ERGO    C216626  -0.219   4.463   8.197 -0.1700 -0.0851  0.2487
 1196ERGO   ROH16627   8.993  17.764   6.272 -0.2725  0.0102 -0.0504
 1196ERGO    R116628   8.895  17.809   6.534 -0.1797 -0.0667 -0.0019
 1196ERGO    R216629   8.899  17.614   6.730  0.0293 -0.0779 -0.0157
 1196ERGO    R316630   9.032  17.805   6.872 -0.0207 -0.0067 -0.0642
 1196ERGO    R416631   8.917  17.628   7.075  0.1480 -0.0710 -0.0215
 1196ERGO    R516632   8.893  17.845   7.063  0.0269 -0.0822 -0.0129
 1196ERGO    C116633   9.051  17.815   7.409  0.1703  0.0004 -0.0704
 1196ERGO    C216634   9.215  17.958   7.669 -0.1830  0.2462 -0.0193
 1197ERGO   ROH16635  16.809   1.003   6.852  0.1934 -0.0321  0.0411
 1197ERGO    R116636  16.793   0.841   7.083  0.1979 -0.0405  0.0375
 1197ERGO    R216637  16.872   0.930   7.333  0.0693  0.0031  0.0722
 1197ERGO    R316638  16.620   0.853   7.404  0.0814 -0.1222 -0.0240
 1197ERGO    R416639  16.787   0.778   7.632  0.0175 -0.0431  0.0326
 1197ERGO    R516640  16.651   0.648   7.522  0.1280 -0.1039 -0.0169
 1197ERGO    C116641  16.502   0.618   7.872 -0.0015 -0.1878 -0.0808
 1197ERGO    C216642  16.465   0.375   8.119  0.1040 -0.0408 -0.0849
 1198ERGO   ROH16643   1.244   3.195  10.496 -0.3305 -0.0219 -0.0696
 1198ERGO    R116644   1.346   3.136  10.238 -0.2231  0.2207 -0.0827
 1198ERGO    R216645   1.237   2.941  10.076  0.0715  0.1307 -0.1594
 1198ERGO    R316646   1.222   3.144   9.896 -0.2000  0.1719 -0.0952
 1198ERGO    R416647   1.216   2.901   9.733  0.0923  0.1944 -0.1702
 1198ERGO    R516648   1.352   3.069   9.710 -0.1135  0.3821 -0.1310
 1198ERGO    C116649   1.190   3.068   9.365 -0.1505  0.2702 -0.1162
 1198ERGO    C216650   1.217   2.943   9.010 -0.0781 -0.1441 -0.2227
 1199ERGO   ROH16651  11.348  13.104   6.272  0.1029 -0.3046 -0.0716
 1199ERGO    R116652  11.283  13.002   6.528 -0.0081 -0.0162  0.0186
 1199ERGO    R216653  11.432  12.805   6.653 -0.2792 -0.1519  0.1374
 1199ERGO    R316654  11.442  12.986   6.855  0.0286 -0.0093  0.0011
 1199ERGO    R416655  11.504  12.731   6.982 -0.3123 -0.0081  0.1782
 1199ERGO    R516656  11.350  12.871   7.043 -0.0978  0.2639  0.1112
 1199ERGO    C116657  11.556  12.857   7.364 -0.0426  0.2097  0.0739
 1199ERGO    C216658  11.678  12.778   7.657  0.0035  0.1812  0.0007
 1200ERGO   ROH16659  11.704  14.955   6.443  0.2751  0.1144  0.0636
 1200ERGO    R116660  11.549  15.003   6.675  0.0305 -0.0834 -0.0539
 1200ERGO    R216661  11.388  14.810   6.789  0.2568 -0.3232 -0.1288
 1200ERGO    R316662  11.530  14.869   7.013  0.0098 -0.0442 -0.0400
 1200ERGO    R416663  11.269  14.777   7.112  0.0206 -0.2521 -0.2065
 1200ERGO    R516664  11.369  14.965   7.162 -0.2142 -0.1201 -0.2305
 1200ERGO    C116665  11.334  14.814   7.511 -0.3488  0.0514 -0.1683
 1200ERGO    C216666  11.033  14.916   7.703 -0.0379  0.2010  0.1496
 1201ERGO   ROH16667   7.348   3.768   6.225 -0.0998  0.0291 -0.0395
 1201ERGO    R116668   7.405   3.573   6.423  0.0286 -0.0081 -0.1102
 1201ERGO    R216669   7.642   3.571   6.565 -0.0216  0.1879 -0.0139
 1201ERGO    R316670   7.476   3.573   6.780 -0.1237 -0.0971 -0.0773
 1201ERGO    R416671   7.745   3.554   6.894 -0.1309  0.2610  0.0237
 1201ERGO    R516672   7.577   3.421   6.935  0.0327  0.0051 -0.0728
 1201ERGO    C116673   7.649   3.547   7.288 -0.2904  0.0360 -0.0138
 1201ERGO    C216674   7.569   3.488   7.626 -0.2349 -0.1393  0.0003
 1202ERGO   ROH16675  17.293  16.259   6.532  0.0470  0.2034  0.1560
 1202ERGO    R116676  17.311  16.301   6.811  0.0931  0.1016  0.1689
 1202ERGO    R216677  17.241  16.108   6.995  0.0087  0.0738  0.1112
 1202ERGO    R316678  17.492  16.154   7.090  0.0424 -0.0861  0.1028
 1202ERGO    R416679  17.322  16.145   7.329 -0.0189  0.4315  0.0825
 1202ERGO    R516680  17.459  16.305   7.273  0.1770  0.2006 -0.1053
 1202ERGO    C116681  17.605  16.210   7.613 -0.0034  0.4898  0.0579
 1202ERGO    C216682  17.498  16.053   7.909 -0.0170  0.2356  0.0108
 1203ERGO   ROH16683   6.593   0.359   9.846 -0.0254  0.0954  0.0618
 1203ERGO    R116684   6.600   0.242   9.588 -0.0728  0.0047  0.1014
 1203ERGO    R216685   6.372   0.193   9.441 -0.0891  0.0896  0.1006
 1203ERGO    R316686   6.502   0.338   9.251  0.0114 -0.0505  0.0602
 1203ERGO    R416687   6.334   0.151   9.100 -0.1322  0.0283  0.1126
 1203ERGO    R516688   6.549   0.180   9.078 -0.1083 -0.1321  0.0983
 1203ERGO    C116689   6.434   0.263   8.724 -0.0628 -0.1388  0.0818
 1203ERGO    C216690   6.322   0.161   8.559  0.2032 -0.1447 -0.1106
 1204ERGO   ROH16691  14.711   3.632   6.299  0.0807  0.1975  0.1150
 1204ERGO    R116692  14.870   3.761   6.494 -0.0313  0.2158  0.1960
 1204ERGO    R216693  14.792   3.784   6.758 -0.0669  0.0130  0.2052
 1204ERGO    R316694  15.034   3.669   6.805  0.0195  0.1727  0.1569
 1204ERGO    R416695  14.934   3.746   7.071 -0.0615 -0.0475  0.1948
 1204ERGO    R516696  15.127   3.799   6.984 -0.0944  0.1495  0.2350
 1204ERGO    C116697  15.243   3.616   7.298  0.0226  0.0672  0.1435
 1204ERGO    C216698  15.164   3.441   7.676 -0.2740  0.1221 -0.0184
 1205ERGO   ROH16699   8.195  10.770  10.306  0.1021  0.1477  0.1183
 1205ERGO    R116700   8.151  10.850  10.038  0.1754  0.1843  0.1157
 1205ERGO    R216701   8.358  10.903   9.863  0.2304  0.0206  0.1192
 1205ERGO    R316702   8.231  10.720   9.708  0.0868  0.1178  0.1223
 1205ERGO    R416703   8.347  10.909   9.518  0.0974  0.0954  0.1247
 1205ERGO    R516704   8.139  10.847   9.528  0.0787  0.1936  0.1867
 1205ERGO    C116705   8.221  10.740   9.171 -0.1149  0.2302  0.1310
 1205ERGO    C216706   8.248  10.759   8.805  0.0663 -0.1663  0.0058
 1206ERGO   ROH16707   6.367   6.066   6.873  0.0798 -0.3575  0.3873
 1206ERGO    R116708   6.442   6.239   7.083 -0.0468 -0.1417  0.2573
 1206ERGO    R216709   6.259   6.387   7.227 -0.1671 -0.2611  0.2196
 1206ERGO    R316710   6.376   6.266   7.440  0.0384  0.0043  0.2641
 1206ERGO    R416711   6.179   6.449   7.558 -0.3599 -0.3549  0.1931
 1206ERGO    R516712   6.391   6.439   7.606 -0.3366  0.0756  0.2376
 1206ERGO    C116713   6.243   6.372   7.950 -0.2792 -0.1603  0.2195
 1206ERGO    C216714   6.185   6.333   8.275  0.1314  0.2242  0.0105
 1207ERGO   ROH16715  17.342  14.090   6.482 -0.0272  0.2108  0.0865
 1207ERGO    R116716  17.528  14.028   6.686 -0.0859  0.1811  0.1324
 1207ERGO    R216717  17.519  14.145   6.936 -0.2052  0.0876  0.1748
 1207ERGO    R316718  17.516  13.886   7.021 -0.1754  0.0552  0.0761
 1207ERGO    R416719  17.579  14.043   7.261  0.0356 -0.0504  0.0889
 1207ERGO    R516720  17.694  13.875   7.181 -0.0511 -0.0354 -0.0667
 1207ERGO    C116721  17.612  13.741   7.529  0.2035 -0.1612 -0.0539
 1207ERGO    C216722  17.669  13.617   7.873  0.0110  0.2101 -0.5045
 1208ERGO   ROH16723   6.253   8.067   6.553  0.0801 -0.0895  0.0817
 1208ERGO    R116724   6.326   8.200   6.792  0.1369  0.0233  0.0023
 1208ERGO    R216725   6.148   8.356   6.935  0.1605  0.0648 -0.0116
 1208ERGO    R316726   6.222   8.194   7.141  0.2424  0.1614  0.0371
 1208ERGO    R416727   6.023   8.376   7.256  0.1079  0.0600 -0.0319
 1208ERGO    R516728   6.224   8.339   7.332  0.1246  0.2099  0.0027
 1208ERGO    C116729   6.019   8.236   7.637  0.1542  0.1479  0.0020
 1208ERGO    C216730   5.809   8.414   7.920 -0.0427 -0.1079 -0.2272
 1209ERGO   ROH16731   3.785  11.312   9.786  0.0557 -0.0967 -0.1870
 1209ERGO    R116732   3.822  11.149   9.558 -0.0003 -0.1660 -0.1473
 1209ERGO    R216733   3.617  11.091   9.382 -0.0022 -0.0732 -0.1771
 1209ERGO    R316734   3.791  11.188   9.198  0.0961 -0.2184 -0.1615
 1209ERGO    R416735   3.631  10.991   9.051 -0.0172 -0.1303 -0.1602
 1209ERGO    R516736   3.848  10.998   9.064 -0.0128 -0.2780 -0.1251
 1209ERGO    C116737   3.803  11.024   8.686  0.0664 -0.2999 -0.1357
 1209ERGO    C216738   3.641  10.931   8.370  0.1114  0.0400  0.2612
 1210ERGO   ROH16739   8.310   4.263  10.185 -0.1734  0.0305  0.1500
 1210ERGO    R116740   8.367   4.392   9.939 -0.1777  0.0797  0.1752
 1210ERGO    R216741   8.580   4.318   9.779 -0.0989  0.2039  0.2255
 1210ERGO    R316742   8.388   4.296   9.589 -0.0371  0.1182  0.1718
 1210ERGO    R416743   8.635   4.351   9.440  0.0139  0.0581  0.2281
 1210ERGO    R516744   8.447   4.461   9.425  0.0148  0.0502  0.1191
 1210ERGO    C116745   8.486   4.348   9.063  0.1377 -0.1074  0.1792
 1210ERGO    C216746   8.477   4.342   8.634 -0.1256  0.1806 -0.3587
 1211ERGO   ROH16747   6.115  17.987  10.115  0.0138 -0.2195  0.0523
 1211ERGO    R116748   6.124  18.107   9.859  0.0931 -0.1907  0.0684
 1211ERGO    R216749   6.050  17.973   9.629 -0.0568 -0.0908  0.0574
 1211ERGO    R316750   5.886  18.188   9.596  0.1336  0.0646  0.1079
 1211ERGO    R416751   5.869  18.043   9.342 -0.3415 -0.1087  0.2287
 1211ERGO    R516752   5.918  18.253   9.368 -0.0775 -0.1391  0.0159
 1211ERGO    C116753   5.611  18.284   9.145 -0.3286  0.0266  0.3759
 1211ERGO    C216754   5.560  18.412   8.862  0.1028 -0.1350  0.0522
 1212ERGO   ROH16755   5.798  10.883   6.269 -0.3648 -0.1949  0.0540
 1212ERGO    R116756   5.908  10.865   6.528 -0.2949 -0.0309  0.0359
 1212ERGO    R216757   5.791  10.983   6.748 -0.4014 -0.1518  0.0377
 1212ERGO    R316758   5.805  10.732   6.851 -0.0719 -0.1252  0.0722
 1212ERGO    R416759   5.807  10.909   7.086 -0.2030 -0.0729  0.0479
 1212ERGO    R516760   5.953  10.753   7.039 -0.0281  0.0844  0.0230
 1212ERGO    C116761   5.829  10.631   7.379  0.2218 -0.0018  0.0863
 1212ERGO    C216762   5.858  10.475   7.634  0.1705  0.4572 -0.0991
 1213ERGO   ROH16763   2.317   1.604  10.293 -0.1547  0.1351  0.0153
 1213ERGO    R116764   2.342   1.757  10.056 -0.1272  0.0238 -0.0555
 1213ERGO    R216765   2.581   1.779   9.918 -0.0469  0.1504  0.0905
 1213ERGO    R316766   2.431   1.693   9.709  0.1626 -0.1031  0.0401
 1213ERGO    R416767   2.663   1.820   9.585  0.0772  0.1114  0.1165
 1213ERGO    R516768   2.455   1.865   9.543  0.0510 -0.1441 -0.0130
 1213ERGO    C116769   2.570   1.763   9.194  0.3461 -0.1493  0.0844
 1213ERGO    C216770   2.454   1.719   8.830  0.0475 -0.0806  0.2200
 1214ERGO   ROH16771   2.280   5.711   6.768  0.1884  0.2053 -0.2206
 1214ERGO    R116772   2.167   5.757   7.024 -0.0151  0.2260 -0.3121
 1214ERGO    R216773   2.247   5.619   7.249 -0.3108  0.1244 -0.2636
 1214ERGO    R316774   2.286   5.869   7.349 -0.2355  0.0793 -0.1791
 1214ERGO    R416775   2.207   5.708   7.581 -0.1132 -0.0089 -0.2025
 1214ERGO    R516776   2.115   5.894   7.515 -0.1369  0.0247 -0.0702
 1214ERGO    C116777   2.221   5.994   7.868  0.0726 -0.1289 -0.0876
 1214ERGO    C216778   2.120   6.218   8.105  0.1033  0.0843  0.0522
 1215ERGO   ROH16779   8.840   6.698   6.614 -0.0958  0.0541 -0.0128
 1215ERGO    R116780   8.851   6.677   6.896  0.0997 -0.1003 -0.0292
 1215ERGO    R216781   8.640   6.751   7.059  0.3319  0.1384  0.1781
 1215ERGO    R316782   8.669   6.498   7.154  0.0341  0.0419  0.0231
 1215ERGO    R416783   8.596   6.658   7.389  0.0982 -0.0455  0.0974
 1215ERGO    R516784   8.769   6.527   7.370 -0.0281 -0.2078  0.0859
 1215ERGO    C116785   8.597   6.367   7.671 -0.3172 -0.2430 -0.0951
 1215ERGO    C216786   8.551   6.411   8.077  0.0747 -0.0306 -0.1155
 1216ERGO   ROH16787  11.086   8.066   6.672 -0.1548 -0.2165  0.0652
 1216ERGO    R116788  11.206   7.990   6.917 -0.1842 -0.2776  0.0611
 1216ERGO    R216789  11.357   8.165   7.069  0.0386 -0.3965 -0.0205
 1216ERGO    R316790  11.183   8.093   7.265  0.0009 -0.1525  0.0382
 1216ERGO    R416791  11.403   8.227   7.406  0.1633 -0.3083 -0.0533
 1216ERGO    R516792  11.324   8.028   7.448 -0.0250 -0.2193  0.0372
 1216ERGO    C116793  11.267   8.195   7.786  0.2006 -0.0280 -0.0173
 1216ERGO    C216794  11.420   8.365   8.045  0.1169 -0.1753 -0.2659
 1217ERGO   ROH16795   1.308  13.344   9.535  0.0617 -0.1682 -0.0691
 1217ERGO    R116796   1.143  13.332   9.305 -0.0509  0.0258 -0.0009
 1217ERGO    R216797   1.131  13.536   9.119  0.1442  0.0253 -0.0158
 1217ERGO    R316798   1.191  13.337   8.944 -0.1900 -0.0764 -0.0216
 1217ERGO    R416799   1.131  13.569   8.775  0.1818  0.0316 -0.0153
 1217ERGO    R516800   1.040  13.371   8.761 -0.1467  0.1753 -0.0143
 1217ERGO    C116801   1.187  13.401   8.411 -0.1100 -0.0602 -0.0205
 1217ERGO    C216802   1.248  13.511   8.158  0.2759 -0.1000 -0.0796
 1218ERGO   ROH16803  17.813  12.789   9.660  0.1475 -0.2121  0.0261
 1218ERGO    R116804  17.830  12.850   9.384  0.2860 -0.2479  0.0260
 1218ERGO    R216805  17.884  12.658   9.193 -0.1030 -0.3716  0.0318
 1218ERGO    R316806  17.655  12.750   9.081  0.0858  0.1087  0.0193
 1218ERGO    R416807  17.836  12.708   8.854 -0.0523 -0.5002  0.0050
 1218ERGO    R516808  17.729  12.891   8.902  0.3966 -0.1929 -0.1017
 1218ERGO    C116809  17.592  12.824   8.552  0.1546 -0.1245 -0.0225
 1218ERGO    C216810  17.486  12.773   8.203 -0.1128 -0.1524 -0.0049
 1219ERGO   ROH16811   2.594   6.278  10.155  0.1946  0.0378  0.0041
 1219ERGO    R116812   2.513   6.327   9.888 -0.0241 -0.1165  0.0395
 1219ERGO    R216813   2.661   6.482   9.713 -0.3064  0.0169 -0.0870
 1219ERGO    R316814   2.645   6.261   9.555 -0.1469 -0.0402 -0.0255
 1219ERGO    R416815   2.715   6.478   9.372 -0.2791 -0.0410 -0.0820
 1219ERGO    R516816   2.548   6.341   9.352 -0.1868 -0.1609 -0.0554
 1219ERGO    C116817   2.732   6.269   9.025 -0.1135 -0.1282 -0.0214
 1219ERGO    C216818   2.655   6.244   8.720  0.2318 -0.3280  0.0908
 1220ERGO   ROH16819  13.174   4.730   8.410  0.0141 -0.0233  0.0310
 1220ERGO    R116820  13.369   4.527   8.440 -0.0327 -0.0584  0.0985
 1220ERGO    R216821  13.311   4.281   8.551 -0.1261 -0.0636  0.0385
 1220ERGO    R316822  13.418   4.187   8.318 -0.0285 -0.0500  0.0771
 1220ERGO    R416823  13.454   3.969   8.510 -0.1306 -0.0705  0.0729
 1220ERGO    R516824  13.609   4.061   8.387 -0.0684 -0.0706  0.1508
 1220ERGO    C116825  13.638   3.700   8.268 -0.0416 -0.0617  0.1293
 1220ERGO    C216826  13.782   3.325   8.195  0.0018 -0.4025  0.1624
 1221ERGO   ROH16827  14.372   5.632   6.677  0.1490 -0.1928 -0.0590
 1221ERGO    R116828  14.213   5.534   6.890  0.1287 -0.1891 -0.0710
 1221ERGO    R216829  14.273   5.301   7.026  0.2126 -0.1013  0.0549
 1221ERGO    R316830  14.258   5.464   7.244  0.0495 -0.0075 -0.0252
 1221ERGO    R416831  14.277   5.192   7.354  0.0645  0.0577  0.1105
 1221ERGO    R516832  14.124   5.341   7.400  0.0018  0.0334 -0.0405
 1221ERGO    C116833  14.266   5.281   7.749 -0.1749  0.2385  0.0676
 1221ERGO    C216834  14.446   5.220   7.966  0.2995 -0.0551 -0.0062
 1222ERGO   ROH16835   3.290   9.883   6.221  0.0060 -0.1972  0.0254
 1222ERGO    R116836   3.226  10.003   6.469  0.0242 -0.0329 -0.0491
 1222ERGO    R216837   3.145   9.857   6.688 -0.0420  0.1221  0.0254
 1222ERGO    R316838   3.350   9.986   6.810 -0.0126  0.1254 -0.0254
 1222ERGO    R416839   3.163   9.923   7.027  0.1452 -0.0978  0.0611
 1222ERGO    R516840   3.245  10.119   6.979  0.0358 -0.0272  0.1337
 1222ERGO    C116841   3.367  10.082   7.339  0.2818 -0.2226  0.0342
 1222ERGO    C216842   3.436  10.206   7.655  0.2989  0.1417 -0.1177
 1223ERGO   ROH16843  15.298  12.639  10.378 -0.2236  0.3479 -0.0717
 1223ERGO    R116844  15.371  12.466  10.167  0.0403  0.4662 -0.0828
 1223ERGO    R216845  15.200  12.276  10.065  0.4346 -0.0453  0.1454
 1223ERGO    R316846  15.255  12.398   9.828 -0.1202  0.0489  0.0528
 1223ERGO    R416847  15.197  12.119   9.756  0.3219 -0.0597  0.1543
 1223ERGO    R516848  15.376  12.233   9.703  0.0310  0.2801 -0.0998
 1223ERGO    C116849  15.248  12.143   9.355 -0.2645  0.0204  0.0725
 1223ERGO    C216850  15.102  11.913   9.096 -0.1187 -0.2590 -0.1826
 1224ERGO   ROH16851   7.632   7.581   6.813 -0.1293  0.0185 -0.1325
 1224ERGO    R116852   7.446   7.707   6.984 -0.1130  0.0007 -0.1024
 1224ERGO    R216853   7.175   7.716   6.928 -0.1108  0.0418 -0.0970
 1224ERGO    R316854   7.153   7.607   7.176 -0.1212 -0.0095 -0.1195
 1224ERGO    R416855   6.879   7.680   7.102 -0.1009  0.1316 -0.0596
 1224ERGO    R516856   6.984   7.738   7.284 -0.0463  0.0405 -0.0609
 1224ERGO    C116857   6.686   7.557   7.436 -0.1049  0.1358 -0.0591
 1224ERGO    C216858   6.410   7.399   7.526 -0.1210 -0.1221  0.2190
 1225ERGO   ROH16859   5.005  11.910   9.896  0.2042 -0.0483 -0.0616
 1225ERGO    R116860   5.130  11.919   9.642  0.1232  0.1112 -0.0988
 1225ERGO    R216861   5.145  11.698   9.477  0.3627  0.1227 -0.1030
 1225ERGO    R316862   5.029  11.866   9.297  0.0889 -0.0247 -0.0678
 1225ERGO    R416863   5.174  11.669   9.134  0.1627  0.0729 -0.1155
 1225ERGO    R516864   5.192  11.886   9.122 -0.0454  0.0865 -0.1791
 1225ERGO    C116865   5.082  11.810   8.765 -0.2107 -0.0943 -0.0898
 1225ERGO    C216866   5.020  11.950   8.395 -0.1392 -0.3186 -0.2012
 1226ERGO   ROH16867  11.787  10.367  10.338 -0.2339 -0.1659 -0.0240
 1226ERGO    R116868  11.659  10.305  10.094 -0.2049  0.0639 -0.0990
 1226ERGO    R216869  11.697  10.453   9.864  0.1609  0.0249 -0.0637
 1226ERGO    R316870  11.761  10.211   9.758 -0.1737 -0.0742 -0.0534
 1226ERGO    R416871  11.722  10.388   9.526  0.2011  0.0224 -0.0608
 1226ERGO    R516872  11.625  10.195   9.561 -0.1234  0.1637 -0.1159
 1226ERGO    C116873  11.797  10.123   9.228 -0.0898 -0.0721 -0.0495
 1226ERGO    C216874  11.838  10.159   8.915  0.3095  0.1403 -0.1157
 1227ERGO   ROH16875   4.327   4.457   6.388  0.0409  0.4506  0.0692
 1227ERGO    R116876   4.362   4.349   6.647 -0.0262  0.2744  0.0069
 1227ERGO    R216877   4.602   4.361   6.783 -0.0527  0.1625  0.0707
 1227ERGO    R316878   4.450   4.475   6.977 -0.0863  0.0493  0.1110
 1227ERGO    R416879   4.693   4.388   7.115 -0.1746 -0.1561  0.1331
 1227ERGO    R516880   4.488   4.339   7.170 -0.2120 -0.1306  0.0101
 1227ERGO    C116881   4.603   4.511   7.491 -0.2772 -0.4480  0.2071
 1227ERGO    C216882   4.573   4.635   7.745  0.1399 -0.0754  0.0013
 1228ERGO   ROH16883  13.952  13.606   6.395  0.0474 -0.1434  0.1541
 1228ERGO    R116884  14.047  13.468   6.623 -0.0958 -0.2378  0.1575
 1228ERGO    R216885  14.095  13.595   6.864  0.1409 -0.2585  0.1204
 1228ERGO    R316886  13.928  13.403   6.961 -0.1128 -0.0056  0.1988
 1228ERGO    R416887  14.104  13.471   7.187  0.1435 -0.3042  0.1032
 1228ERGO    R516888  14.067  13.272   7.106 -0.2274 -0.2454  0.0999
 1228ERGO    C116889  13.952  13.219   7.466 -0.0933 -0.0933  0.1667
 1228ERGO    C216890  13.807  13.047   7.661  0.3741  0.0643  0.1798
 1229ERGO   ROH16891  12.539   6.515   6.843  0.1335  0.2430 -0.0255
 1229ERGO    R116892  12.579   6.480   7.121  0.0910  0.1804 -0.0264
 1229ERGO    R216893  12.670   6.683   7.285  0.0334  0.1560  0.0419
 1229ERGO    R316894  12.446   6.624   7.427  0.0158  0.0865 -0.0157
 1229ERGO    R416895  12.590   6.816   7.594  0.0631 -0.1132  0.1673
 1229ERGO    R516896  12.519   6.620   7.655  0.0077 -0.1483 -0.0179
 1229ERGO    C116897  12.333   6.837   7.907  0.0637 -0.3353  0.1863
 1229ERGO    C216898  12.338   6.928   8.236 -0.1907  0.2386  0.1308
 1230ERGO   ROH16899  11.848   1.665   6.577  0.1328 -0.1591  0.0577
 1230ERGO    R116900  11.884   1.833   6.802  0.1470 -0.1176  0.0254
 1230ERGO    R216901  11.701   1.844   7.009  0.0923  0.0142 -0.0227
 1230ERGO    R316902  11.919   1.788   7.162  0.0314 -0.0487  0.0445
 1230ERGO    R416903  11.734   1.925   7.344  0.0112 -0.0401 -0.0012
 1230ERGO    R516904  11.942   1.979   7.305  0.0295 -0.0782  0.0764
 1230ERGO    C116905  11.958   1.919   7.682 -0.0933 -0.1306  0.0744
 1230ERGO    C216906  11.923   1.749   7.921 -0.3686 -0.1388 -0.2193
 1231ERGO   ROH16907   6.058   8.554   6.496  0.0937 -0.1502  0.1830
 1231ERGO    R116908   5.830   8.628   6.647  0.0310 -0.1132  0.0711
 1231ERGO    R216909   5.654   8.443   6.753  0.0037 -0.0881  0.0712
 1231ERGO    R316910   5.707   8.574   6.985 -0.0931 -0.0025  0.0441
 1231ERGO    R416911   5.548   8.340   7.065 -0.0003 -0.0500  0.0821
 1231ERGO    R516912   5.506   8.549   7.114 -0.1012 -0.0570  0.0187
 1231ERGO    C116913   5.536   8.403   7.465 -0.0935  0.0526  0.0631
 1231ERGO    C216914   5.326   8.240   7.762 -0.1193  0.1670 -0.0422
 1232ERGO   ROH16915  14.765  11.632   6.331  0.1290  0.0526  0.1362
 1232ERGO    R116916  14.619  11.679   6.569  0.1183 -0.0568  0.1537
 1232ERGO    R216917  14.343  11.705   6.572  0.1245  0.1295  0.1275
 1232ERGO    R316918  14.359  11.507   6.757 -0.0322 -0.0516 -0.0507
 1232ERGO    R416919  14.095  11.626   6.799  0.0453  0.0595  0.0151
 1232ERGO    R516920  14.249  11.596   6.950 -0.0072 -0.1734  0.0114
 1232ERGO    C116921  13.965  11.393   7.105 -0.1478 -0.1514 -0.2177
 1232ERGO    C216922  13.715  11.099   7.097  0.1499 -0.1338  0.1052
 1233ERGO   ROH16923   3.474   7.852   6.246 -0.2452 -0.0842 -0.0318
 1233ERGO    R116924   3.631   7.952   6.460 -0.1899  0.0620 -0.1399
 1233ERGO    R216925   3.526   8.007   6.709 -0.0942  0.0837 -0.1071
 1233ERGO    R316926   3.724   7.842   6.794  0.0343  0.2131 -0.1492
 1233ERGO    R416927   3.597   7.938   7.040 -0.2126 -0.1384 -0.1255
 1233ERGO    R516928   3.809   7.948   6.991 -0.1886  0.1309 -0.0019
 1233ERGO    C116929   3.824   7.743   7.313 -0.1609 -0.1462 -0.1756
 1233ERGO    C216930   3.816   7.496   7.573  0.0256 -0.1382 -0.0352
 1234ERGO   ROH16931   2.866  11.616   9.396  0.1136 -0.0392  0.1433
 1234ERGO    R116932   2.844  11.483   9.147 -0.1668  0.0013  0.1431
 1234ERGO    R216933   2.661  11.557   8.954 -0.0993  0.3077  0.1921
 1234ERGO    R316934   2.882  11.570   8.796 -0.1115 -0.0461  0.1372
 1234ERGO    R416935   2.657  11.557   8.608 -0.1889  0.3721  0.1927
 1234ERGO    R516936   2.831  11.427   8.611 -0.4083  0.0675  0.1248
 1234ERGO    C116937   2.862  11.570   8.259 -0.2525  0.0775  0.1414
 1234ERGO    C216938   2.837  11.748   8.055  0.5174 -0.2228 -0.1029
 1235ERGO   ROH16939  11.056   3.337   6.827 -0.1580 -0.0895 -0.0472
 1235ERGO    R116940  10.939   3.203   7.048 -0.0192  0.0071  0.0893
 1235ERGO    R216941  10.753   3.323   7.213 -0.2127 -0.0402 -0.0769
 1235ERGO    R316942  10.604   3.105   7.149  0.0886 -0.3149  0.1357
 1235ERGO    R416943  10.503   3.191   7.411 -0.3363  0.0729 -0.1571
 1235ERGO    R516944  10.573   2.991   7.358 -0.0653  0.0419  0.3078
 1235ERGO    C116945  10.217   2.908   7.467 -0.1253 -0.1191 -0.0042
 1235ERGO    C216946  10.156   2.799   7.714 -0.0008  0.0302 -0.0785
 1236ERGO   ROH16947   9.205  17.259  10.079  0.0488  0.3102 -0.0029
 1236ERGO    R116948   9.188  17.378   9.823  0.2299  0.2902 -0.0242
 1236ERGO    R216949   9.401  17.383   9.647  0.2123 -0.1603 -0.0633
 1236ERGO    R316950   9.223  17.268   9.478 -0.0468  0.1456 -0.0102
 1236ERGO    R416951   9.371  17.458   9.311  0.2717 -0.1254 -0.0619
 1236ERGO    R516952   9.154  17.445   9.333  0.2420  0.2707 -0.0069
 1236ERGO    C116953   9.185  17.393   8.956  0.0631  0.1824 -0.0113
 1236ERGO    C216954   9.171  17.428   8.610 -0.0239 -0.1491  0.1641
 1237ERGO   ROH16955   1.661  17.062   6.488  0.0889 -0.0802 -0.0303
 1237ERGO    R116956   1.618  17.156   6.752  0.1324 -0.1765  0.0100
 1237ERGO    R216957   1.689  17.010   6.975  0.4278 -0.1363 -0.0612
 1237ERGO    R316958   1.825  17.236   7.041  0.2076  0.0097 -0.0917
 1237ERGO    R416959   1.715  17.139   7.295  0.3328 -0.0962 -0.0679
 1237ERGO    R516960   1.691  17.339   7.211  0.1170 -0.1185 -0.0784
 1237ERGO    C116961   1.858  17.427   7.542  0.0707  0.0640 -0.1004
 1237ERGO    C216962   1.991  17.356   7.864  0.3071  0.0617  0.1671
 1238ERGO   ROH16963  11.867   0.863  10.090  0.1846 -0.0400 -0.1091
 1238ERGO    R116964  11.979   0.940   9.842  0.0657 -0.0153 -0.1554
 1238ERGO    R216965  11.936   0.799   9.608 -0.0217 -0.0076 -0.1405
 1238ERGO    R316966  11.855   1.042   9.515 -0.0892 -0.0128 -0.0973
 1238ERGO    R416967  11.974   0.909   9.282  0.0733  0.1074 -0.0916
 1238ERGO    R516968  12.026   1.106   9.360 -0.0461  0.1095 -0.0046
 1238ERGO    C116969  11.921   1.200   9.006  0.0653  0.1695 -0.0226
 1238ERGO    C216970  11.935   1.251   8.716  0.1177 -0.1342  0.1387
 1239ERGO   ROH16971  15.053   0.922   6.700 -0.3228  0.0275 -0.1852
 1239ERGO    R116972  15.094   1.016   6.964 -0.1368 -0.0295 -0.1926
 1239ERGO    R216973  15.134   1.283   7.022 -0.0879 -0.0428 -0.1628
 1239ERGO    R316974  14.926   1.243   7.193  0.0286 -0.0721 -0.0268
 1239ERGO    R416975  15.098   1.439   7.329  0.0178  0.0662 -0.2055
 1239ERGO    R516976  15.027   1.250   7.411  0.1533  0.0641 -0.0861
 1239ERGO    C116977  14.883   1.492   7.668  0.1888  0.1022 -0.1027
 1239ERGO    C216978  14.930   1.722   7.894  0.1766 -0.1555  0.1414
 1240ERGO   ROH16979   8.640   1.458   9.783 -0.1796 -0.1966  0.0901
 1240ERGO    R116980   8.790   1.531   9.555 -0.1008 -0.0005  0.2016
 1240ERGO    R216981   8.852   1.352   9.354  0.2295  0.0923  0.2123
 1240ERGO    R316982   8.737   1.539   9.195  0.1319 -0.0063  0.1660
 1240ERGO    R416983   8.866   1.352   9.009  0.1064 -0.0593  0.2061
 1240ERGO    R516984   8.893   1.569   9.016  0.0604 -0.0517  0.0976
 1240ERGO    C116985   8.766   1.529   8.658 -0.0567 -0.2403  0.1592
 1240ERGO    C216986   8.838   1.617   8.396 -0.0272  0.3077 -0.1061
 1241ERGO   ROH16987   3.298  14.028   6.286  0.1183  0.1302  0.0314
 1241ERGO    R116988   3.284  13.840   6.497  0.0379  0.1381  0.0335
 1241ERGO    R216989   3.503  13.777   6.654  0.0176  0.0293  0.0199
 1241ERGO    R316990   3.335  13.844   6.857  0.0637  0.1160  0.0296
 1241ERGO    R416991   3.577  13.743   6.990  0.0738  0.1401  0.0192
 1241ERGO    R516992   3.373  13.675   7.023  0.0760  0.1724  0.0821
 1241ERGO    C116993   3.464  13.787   7.376  0.1498  0.2862  0.0280
 1241ERGO    C216994   3.546  13.632   7.664  0.1403  0.2457 -0.3154
 1242ERGO   ROH16995   4.071  17.395   6.341  0.0211  0.2366 -0.1562
 1242ERGO    R116996   4.038  17.508   6.599  0.1054  0.2112 -0.1342
 1242ERGO    R216997   4.007  17.354   6.826 -0.0578  0.1887 -0.1719
 1242ERGO    R316998   4.217  17.502   6.915  0.0743 -0.0264 -0.1195
 1242ERGO    R416999   4.052  17.455   7.154 -0.0747  0.2064 -0.1745
 1242ERGO    R517000   4.122  17.648   7.080  0.1714  0.1163 -0.1879
 1242ERGO    C117001   4.276  17.652   7.428  0.0395  0.0149 -0.1268
 1242ERGO    C217002   4.359  17.793   7.795  0.0687  0.5704  0.0658
 1243ERGO   ROH17003  11.233  11.635   6.627 -0.1692  0.0894 -0.0256
 1243ERGO    R117004  11.277  11.775   6.869 -0.1815  0.1736 -0.0719
 1243ERGO    R217005  11.071  11.852   7.036 -0.1756  0.0351  0.0010
 1243ERGO    R317006  11.216  11.719   7.223  0.0175  0.1900 -0.0339
 1243ERGO    R417007  11.037  11.891   7.378 -0.1911 -0.0576  0.0102
 1243ERGO    R517008  11.254  11.880   7.396 -0.1701  0.2162 -0.0149
 1243ERGO    C117009  11.153  11.789   7.752 -0.0189  0.0338 -0.0173
 1243ERGO    C217010  11.017  11.737   8.031  0.0480 -0.0381 -0.0388
 1244ERGO   ROH17011   8.320   2.111   6.219  0.3903 -0.2709  0.2584
 1244ERGO    R117012   8.160   2.155   6.448  0.3302  0.0536  0.1597
 1244ERGO    R217013   8.078   1.950   6.615 -0.1911  0.2080  0.1154
 1244ERGO    R317014   8.192   2.104   6.807  0.0082 -0.0158  0.1808
 1244ERGO    R417015   8.043   1.900   6.955 -0.0651 -0.0184  0.0966
 1244ERGO    R517016   8.027   2.115   6.980  0.0989 -0.0261  0.2666
 1244ERGO    C117017   8.129   2.015   7.333  0.1955 -0.3604  0.1471
 1244ERGO    C217018   8.298   1.992   7.687  0.0041  0.1270 -0.3991
 1245ERGO   ROH17019   7.762  15.868   6.255  0.1508  0.0327  0.0129
 1245ERGO    R117020   7.855  15.892   6.521  0.1155 -0.1149  0.0416
 1245ERGO    R217021   7.692  15.974   6.729  0.1394  0.0093  0.0241
 1245ERGO    R317022   7.776  15.742   6.843 -0.1169 -0.1097 -0.0115
 1245ERGO    R417023   7.706  15.915   7.069  0.0303 -0.0808  0.0119
 1245ERGO    R517024   7.895  15.811   7.038 -0.0691 -0.2753  0.0191
 1245ERGO    C117025   7.793  15.662   7.374 -0.2739 -0.2449 -0.0287
 1245ERGO    C217026   7.577  15.683   7.726  0.0707  0.0409 -0.0052
 1246ERGO   ROH17027  17.548   2.560   6.591 -0.3288  0.0887  0.0200
 1246ERGO    R117028  17.610   2.440   6.840 -0.3989 -0.0349 -0.0218
 1246ERGO    R217029  17.750   2.573   7.038 -0.0540 -0.2848 -0.0902
 1246ERGO    R317030  17.535   2.505   7.190 -0.0961  0.0808  0.0246
 1246ERGO    R417031  17.746   2.567   7.384  0.1069 -0.2486 -0.0866
 1246ERGO    R517032  17.628   2.384   7.375 -0.2019 -0.0596 -0.0128
 1246ERGO    C117033  17.542   2.501   7.728  0.1609  0.1157  0.0234
 1246ERGO    C217034  17.598   2.635   8.008 -0.0132  0.0608 -0.2266
 1247ERGO   ROH17035   1.261   1.999  10.297  0.1897 -0.0533  0.0619
 1247ERGO    R117036   1.292   2.044  10.019 -0.0585  0.0435  0.0467
 1247ERGO    R217037   1.426   1.868   9.854  0.1600  0.2993 -0.0585
 1247ERGO    R317038   1.195   1.876   9.712  0.0497 -0.0913  0.0858
 1247ERGO    R417039   1.403   1.816   9.513  0.0184  0.1958 -0.0339
 1247ERGO    R517040   1.257   1.978   9.504 -0.2441 -0.0326  0.0241
 1247ERGO    C117041   1.172   1.794   9.181 -0.1677 -0.2311  0.1157
 1247ERGO    C217042   1.120   1.663   8.859 -0.0538 -0.3988  0.2897
 1248ERGO   ROH17043  10.495  14.231   6.385  0.0783 -0.1685 -0.1716
 1248ERGO    R117044  10.636  14.012   6.496  0.0798 -0.1281 -0.0936
 1248ERGO    R217045  10.871  14.043   6.638  0.0352 -0.0683 -0.0338
 1248ERGO    R317046  10.736  13.904   6.828  0.0034 -0.0550 -0.0463
 1248ERGO    R417047  11.018  13.875   6.902 -0.0213  0.1672  0.1520
 1248ERGO    R517048  10.874  13.714   6.873  0.1015  0.0571  0.1437
 1248ERGO    C117049  10.977  13.646   7.234 -0.0841  0.3169  0.2484
 1248ERGO    C217050  10.951  13.586   7.567 -0.2905  0.0087 -0.1411
 1249ERGO   ROH17051   2.469  11.636   6.322 -0.0515 -0.1113 -0.0639
 1249ERGO    R117052   2.431  11.513   6.574 -0.1690 -0.2258 -0.1341
 1249ERGO    R217053   2.557  11.600   6.803  0.0823 -0.5988 -0.1067
 1249ERGO    R317054   2.303  11.611   6.900  0.1261 -0.2195 -0.0210
 1249ERGO    R417055   2.469  11.550   7.134  0.1143 -0.2410 -0.0412
 1249ERGO    R517056   2.294  11.438   7.065 -0.0392 -0.0789  0.1092
 1249ERGO    C117057   2.179  11.531   7.417  0.1739  0.3232  0.0773
 1249ERGO    C217058   2.040  11.440   7.775 -0.4017 -0.1676  0.1682
 1250ERGO   ROH17059   4.891   3.379   8.869  0.0142  0.1198 -0.0537
 1250ERGO    R117060   4.927   3.314   9.142 -0.0453  0.0386 -0.0651
 1250ERGO    R217061   4.972   3.507   9.335 -0.1187 -0.0177  0.0052
 1250ERGO    R317062   4.759   3.389   9.456 -0.1323 -0.0837 -0.0812
 1250ERGO    R417063   4.935   3.467   9.677 -0.0627 -0.3755 -0.0263
 1250ERGO    R517064   4.854   3.268   9.639 -0.1314 -0.3142 -0.2274
 1250ERGO    C117065   4.713   3.333   9.988 -0.0428 -0.6458 -0.1258
 1250ERGO    C217066   4.617   3.370  10.322 -0.1022  0.1952  0.1096
 1251ERGO   ROH17067   2.625  17.716   6.443  0.0291 -0.1852 -0.1550
 1251ERGO    R117068   2.724  17.865   6.663 -0.1258 -0.0174 -0.1955
 1251ERGO    R217069   2.565  17.936   6.878 -0.1904 -0.1785 -0.1829
 1251ERGO    R317070   2.760  17.814   7.021 -0.0101  0.0901 -0.1922
 1251ERGO    R417071   2.598  17.955   7.221 -0.1890 -0.1278 -0.1864
 1251ERGO    R517072   2.814  17.970   7.194 -0.2110  0.1668 -0.2000
 1251ERGO    C117073   2.801  17.851   7.556 -0.0189  0.1537 -0.1972
 1251ERGO    C217074   2.863  17.817   7.841 -0.0075 -0.0969  0.2899
 1252ERGO   ROH17075   4.634  15.557   6.079 -0.0157 -0.1142  0.0553
 1252ERGO    R117076   4.629  15.474   6.349 -0.0468 -0.0973  0.0591
 1252ERGO    R217077   4.563  15.645   6.557 -0.1679 -0.1140  0.0307
 1252ERGO    R317078   4.380  15.453   6.614 -0.0992 -0.1841  0.0032
 1252ERGO    R417079   4.430  15.584   6.870 -0.3521 -0.0206 -0.0276
 1252ERGO    R517080   4.444  15.371   6.829 -0.2039 -0.0340  0.0926
 1252ERGO    C117081   4.181  15.368   7.106 -0.3950 -0.0320 -0.0873
 1252ERGO    C217082   4.143  15.145   7.301  0.1356 -0.1796 -0.0397
 1253ERGO   ROH17083   4.630  11.644   9.878  0.1219  0.2423 -0.0229
 1253ERGO    R117084   4.707  11.687   9.609  0.0395  0.0139 -0.0858
 1253ERGO    R217085   4.746  11.480   9.430 -0.2157 -0.1315  0.0193
 1253ERGO    R317086   4.567  11.620   9.280 -0.1667 -0.0701  0.0180
 1253ERGO    R417087   4.755  11.507   9.085 -0.1992 -0.1193  0.0207
 1253ERGO    R517088   4.699  11.716   9.105 -0.1335 -0.1043  0.0261
 1253ERGO    C117089   4.592  11.653   8.744 -0.1436 -0.0544  0.0203
 1253ERGO    C217090   4.562  11.672   8.438  0.0582  0.0843 -0.1054
 1254ERGO   ROH17091  10.298   0.915  10.019  0.2537  0.0905 -0.0099
 1254ERGO    R117092  10.145   0.981   9.790  0.1734  0.2188  0.0775
 1254ERGO    R217093  10.192   1.209   9.640  0.3255  0.1510  0.0047
 1254ERGO    R317094  10.208   1.031   9.435  0.0030  0.0890  0.0297
 1254ERGO    R417095  10.152   1.288   9.306  0.4595  0.1677 -0.0063
 1254ERGO    R517096  10.040   1.103   9.281  0.1281  0.3636  0.0235
 1254ERGO    C117097  10.144   1.168   8.919  0.2349  0.1192  0.0106
 1254ERGO    C217098  10.101   1.202   8.620  0.1322  0.3296 -0.0543
 1255ERGO   ROH17099   0.626   8.893   6.620 -0.2297 -0.0656  0.1401
 1255ERGO    R117100   0.820   9.041   6.764  0.0442 -0.3077  0.0307
 1255ERGO    R217101   0.753   9.206   6.976  0.3148  0.0951 -0.1891
 1255ERGO    R317102   0.939   9.057   7.108 -0.0498 -0.1583  0.0586
 1255ERGO    R417103   0.866   9.269   7.297  0.2772  0.2028 -0.1958
 1255ERGO    R517104   1.067   9.216   7.231  0.2181 -0.2820 -0.0471
 1255ERGO    C117105   1.106   9.165   7.607 -0.0870  0.0275  0.0328
 1255ERGO    C217106   0.966   9.139   7.970 -0.0932  0.2131  0.0550
 1256ERGO   ROH17107   4.293  12.653   9.862 -0.1378  0.1312  0.0158
 1256ERGO    R117108   4.337  12.538   9.607 -0.1619  0.1173  0.0186
 1256ERGO    R217109   4.138  12.520   9.416 -0.1325  0.2683 -0.0238
 1256ERGO    R317110   4.321  12.650   9.261 -0.0085  0.1512  0.0211
 1256ERGO    R417111   4.163  12.490   9.072 -0.0653  0.2503 -0.0183
 1256ERGO    R517112   4.380  12.490   9.093 -0.0683  0.1104  0.0370
 1256ERGO    C117113   4.348  12.594   8.727  0.0903  0.1300  0.0271
 1256ERGO    C217114   4.323  12.638   8.461 -0.0349 -0.3453  0.0883
 1257ERGO   ROH17115   4.057   3.466   6.596  0.0421  0.2130 -0.1233
 1257ERGO    R117116   4.038   3.568   6.859  0.0092  0.0394 -0.0565
 1257ERGO    R217117   4.009   3.404   7.080 -0.0111 -0.1103 -0.1630
 1257ERGO    R317118   4.228   3.539   7.168 -0.0236 -0.1606 -0.0550
 1257ERGO    R417119   4.080   3.471   7.412 -0.1228 -0.1692 -0.1269
 1257ERGO    R517120   4.147   3.670   7.352 -0.0675 -0.1758 -0.0681
 1257ERGO    C117121   4.327   3.638   7.687 -0.1995 -0.2508 -0.0045
 1257ERGO    C217122   4.608   3.670   7.943  0.2262 -0.2380 -0.2075
 1258ERGO   ROH17123  12.299   5.614   6.795 -0.0122  0.1078 -0.0559
 1258ERGO    R117124  12.079   5.615   6.974  0.0013 -0.0172 -0.0366
 1258ERGO    R217125  12.109   5.574   7.245  0.0649  0.1298 -0.0180
 1258ERGO    R317126  11.974   5.810   7.263 -0.1519  0.0156 -0.1142
 1258ERGO    R417127  11.910   5.670   7.512 -0.0211  0.0613 -0.0577
 1258ERGO    R517128  11.768   5.753   7.370 -0.0993 -0.1278 -0.0901
 1258ERGO    C117129  11.669   5.947   7.683 -0.2749 -0.0857 -0.1710
 1258ERGO    C217130  11.800   6.128   8.045  0.2003 -0.2203  0.0298
 1259ERGO   ROH17131   8.027   0.832   9.896  0.2422  0.1692  0.0303
 1259ERGO    R117132   8.098   0.812   9.623  0.0897  0.1183 -0.0086
 1259ERGO    R217133   7.922   0.727   9.428 -0.0004  0.0026  0.1112
 1259ERGO    R317134   7.989   0.961   9.309 -0.1486 -0.0032  0.0170
 1259ERGO    R417135   7.923   0.781   9.087  0.1980 -0.1941  0.0791
 1259ERGO    R517136   8.107   0.896   9.111  0.0609  0.0012  0.1451
 1259ERGO    C117137   7.987   1.033   8.776  0.1743 -0.3141 -0.0280
 1259ERGO    C217138   7.958   1.022   8.332 -0.5703 -0.2286  0.0390
 1260ERGO   ROH17139  16.739   1.966   6.514  0.3355 -0.1621  0.0656
 1260ERGO    R117140  16.652   1.979   6.783  0.1961  0.0521  0.0137
 1260ERGO    R217141  16.688   1.771   6.961 -0.2485  0.0310  0.0963
 1260ERGO    R317142  16.807   1.963   7.112 -0.0159 -0.1173  0.1065
 1260ERGO    R417143  16.632   1.818   7.299 -0.2611  0.1502  0.0778
 1260ERGO    R517144  16.635   2.034   7.263  0.0485  0.1418  0.0576
 1260ERGO    C117145  16.710   2.026   7.637 -0.0503  0.0804  0.0765
 1260ERGO    C217146  16.468   2.070   7.870  0.0892 -0.1802  0.0596
 1261ERGO   ROH17147   1.394  15.481   6.603 -0.1319 -0.0319  0.0021
 1261ERGO    R117148   1.435  15.568   6.869 -0.2306  0.0601 -0.0121
 1261ERGO    R217149   1.228  15.599   7.049 -0.2604 -0.2608  0.0159
 1261ERGO    R317150   1.378  15.433   7.203  0.0378 -0.0073  0.0086
 1261ERGO    R417151   1.200  15.569   7.392 -0.2471 -0.3712  0.0082
 1261ERGO    R517152   1.417  15.558   7.404 -0.2210  0.0371  0.0336
 1261ERGO    C117153   1.325  15.396   7.736  0.0406 -0.1974 -0.0033
 1261ERGO    C217154   1.318  15.167   8.016  0.0723  0.0402  0.0643
 1262ERGO   ROH17155   4.653  11.846   6.466  0.0259  0.1155 -0.0399
 1262ERGO    R117156   4.592  11.957   6.718 -0.0828 -0.0631  0.0149
 1262ERGO    R217157   4.446  11.821   6.910  0.0014 -0.2764 -0.0668
 1262ERGO    R317158   4.661  11.877   7.067 -0.0531 -0.1952 -0.0214
 1262ERGO    R417159   4.445  11.813   7.255 -0.0697 -0.2675 -0.0671
 1262ERGO    R517160   4.568  11.993   7.255 -0.1349 -0.2242 -0.0446
 1262ERGO    C117161   4.647  11.860   7.604 -0.1625 -0.1860 -0.0247
 1262ERGO    C217162   4.632  11.919   7.995 -0.0517 -0.0615 -0.0572
 1263ERGO   ROH17163  11.374   0.680   9.944 -0.0035  0.1178  0.0287
 1263ERGO    R117164  11.495   0.783   9.710 -0.0025  0.0084 -0.0210
 1263ERGO    R217165  11.532   0.631   9.482 -0.0020 -0.1020  0.0432
 1263ERGO    R317166  11.397   0.835   9.363 -0.0067 -0.1566 -0.0424
 1263ERGO    R417167  11.525   0.689   9.142  0.1662 -0.1005  0.0396
 1263ERGO    R517168  11.540   0.903   9.183  0.0618 -0.1028  0.0414
 1263ERGO    C117169  11.394   0.915   8.831  0.2596 -0.1508 -0.0429
 1263ERGO    C217170  11.396   0.804   8.571  0.4814 -0.1400  0.1874
 1264ERGO   ROH17171  12.888   1.814   6.703  0.1753  0.0782 -0.0307
 1264ERGO    R117172  12.909   1.761   6.980  0.3293  0.0382 -0.0503
 1264ERGO    R217173  13.081   1.901   7.145  0.0568  0.3643 -0.0383
 1264ERGO    R317174  12.855   1.946   7.289 -0.0274 -0.1659  0.0154
 1264ERGO    R417175  13.069   1.937   7.489  0.0815  0.4696 -0.0471
 1264ERGO    R517176  12.886   1.819   7.490  0.3744 -0.0172  0.0586
 1264ERGO    C117177  12.850   1.999   7.824  0.0169  0.0332 -0.0019
 1264ERGO    C217178  12.768   2.154   8.133 -0.0750  0.1869  0.3313
 1265ERGO   ROH17179   5.399  11.902   6.250 -0.1920  0.0385  0.1181
 1265ERGO    R117180   5.490  12.007   6.496 -0.0696  0.0981  0.0475
 1265ERGO    R217181   5.468  11.869   6.735 -0.0062  0.1816  0.0997
 1265ERGO    R317182   5.735  11.915   6.749  0.0110  0.1261 -0.0194
 1265ERGO    R417183   5.649  11.891   7.028  0.1042  0.2810  0.0261
 1265ERGO    R517184   5.761  12.056   6.941  0.1128  0.2142 -0.0950
 1265ERGO    C117185   6.005  11.947   7.213  0.1846  0.2871 -0.1285
 1265ERGO    C217186   6.123  11.881   7.518 -0.1577 -0.3427 -0.1165
 1266ERGO   ROH17187  16.269   6.915   6.272  0.0404  0.1492 -0.1388
 1266ERGO    R117188  16.425   6.911   6.508  0.0932  0.0876 -0.1747
 1266ERGO    R217189  16.559   7.134   6.601  0.0878  0.0730 -0.1289
 1266ERGO    R317190  16.423   7.080   6.830  0.1437 -0.0216 -0.1169
 1266ERGO    R417191  16.649   7.249   6.914  0.0974  0.0371 -0.1182
 1266ERGO    R517192  16.595   7.053   6.996  0.1783  0.0025 -0.1501
 1266ERGO    C117193  16.574   7.265   7.312  0.1554 -0.0725 -0.1008
 1266ERGO    C217194  16.736   7.323   7.600 -0.0638  0.1432 -0.0320
 1267ERGO   ROH17195   0.857  16.328   6.664  0.2188  0.0383 -0.0981
 1267ERGO    R117196   0.916  16.308   6.941  0.1367 -0.0469 -0.0855
 1267ERGO    R217197   1.010  16.522   7.089  0.2183 -0.1228 -0.0177
 1267ERGO    R317198   0.797  16.463   7.248  0.1407 -0.0383 -0.0903
 1267ERGO    R417199   0.999  16.572   7.430  0.0343  0.0646 -0.0494
 1267ERGO    R517200   0.895  16.381   7.450  0.0328  0.0783  0.0053
 1267ERGO    C117201   0.793  16.547   7.778 -0.1456  0.2527 -0.1361
 1267ERGO    C217202   0.753  16.645   8.110 -0.1100 -0.1402  0.0182
 1268ERGO   ROH17203   5.908   9.881   7.643 -0.0655 -0.0260  0.1350
 1268ERGO    R117204   5.686   9.712   7.695 -0.0271 -0.0664  0.1712
 1268ERGO    R217205   5.552   9.714   7.936 -0.0891  0.0239  0.1400
 1268ERGO    R317206   5.335   9.756   7.777 -0.0603 -0.1263  0.0591
 1268ERGO    R417207   5.225   9.641   8.024 -0.0936 -0.0210  0.0863
 1268ERGO    R517208   5.192   9.569   7.821 -0.0184 -0.1408  0.1196
 1268ERGO    C117209   4.832   9.639   7.927 -0.0693 -0.1879 -0.0211
 1268ERGO    C217210   4.496   9.779   7.851  0.2666 -0.1262  0.1089
 1269ERGO   ROH17211   9.417  10.273   6.241 -0.2632 -0.0884 -0.0921
 1269ERGO    R117212   9.548  10.323   6.487 -0.2183 -0.1092 -0.1104
 1269ERGO    R217213   9.459  10.514   6.667 -0.1366 -0.0594 -0.1133
 1269ERGO    R317214   9.463  10.304   6.840 -0.1889 -0.0497 -0.1020
 1269ERGO    R417215   9.409  10.538   7.008 -0.1449 -0.0441 -0.1163
 1269ERGO    R517216   9.567  10.392   7.037 -0.1830 -0.0711 -0.1023
 1269ERGO    C117217   9.383  10.356   7.369 -0.1989 -0.0260 -0.1075
 1269ERGO    C217218   9.265  10.262   7.661 -0.0514  0.2199  0.1476
 1270ERGO   ROH17219  13.360   0.773   6.793 -0.0351 -0.0259  0.0135
 1270ERGO    R117220  13.565   0.873   6.962 -0.0138 -0.1067  0.0344
 1270ERGO    R217221  13.523   1.080   7.140  0.0273 -0.1482  0.0869
 1270ERGO    R317222  13.620   0.902   7.320  0.0027 -0.2096  0.0416
 1270ERGO    R417223  13.579   1.148   7.474  0.0783 -0.2234  0.0947
 1270ERGO    R517224  13.763   1.032   7.462  0.0516 -0.2688  0.0519
 1270ERGO    C117225  13.703   1.020   7.838  0.0849 -0.3247  0.0567
 1270ERGO    C217226  13.544   0.827   8.115 -0.0563  0.0398 -0.2692
 1271ERGO   ROH17227   0.041   7.501   6.694 -0.0760 -0.1457  0.0722
 1271ERGO    R117228   0.070   7.646   6.935 -0.0944 -0.0024 -0.0100
 1271ERGO    R217229  -0.120   7.826   7.024 -0.1720 -0.0593 -0.0575
 1271ERGO    R317230  -0.112   7.674   7.250 -0.0316  0.0618  0.0205
 1271ERGO    R417231  -0.301   7.890   7.311 -0.0827  0.0276 -0.0201
 1271ERGO    R517232  -0.126   7.833   7.428 -0.0175  0.1508 -0.0574
 1271ERGO    C117233  -0.400   7.785   7.690  0.1012  0.1918  0.0749
 1271ERGO    C217234  -0.565   7.803   8.015  0.0871  0.1448  0.1209
 1272ERGO   ROH17235   2.547  10.749   6.164 -0.0038 -0.0373  0.0474
 1272ERGO    R117236   2.577  10.794   6.442  0.0074  0.0847  0.0266
 1272ERGO    R217237   2.568  11.047   6.553 -0.2340  0.1139 -0.0547
 1272ERGO    R317238   2.376  10.936   6.710 -0.0868 -0.0381  0.0219
 1272ERGO    R417239   2.535  11.100   6.893 -0.1981  0.1637 -0.0587
 1272ERGO    R517240   2.487  10.889   6.916  0.0142  0.1201  0.0056
 1272ERGO    C117241   2.335  11.027   7.238 -0.0389  0.0501  0.0110
 1272ERGO    C217242   2.387  11.074   7.651  0.3147  0.2858  0.2251
 1273ERGO   ROH17243   0.791   2.666   6.424 -0.0908  0.1152 -0.0518
 1273ERGO    R117244   0.964   2.601   6.639 -0.2076 -0.0235  0.0019
 1273ERGO    R217245   1.221   2.700   6.658 -0.1381 -0.2176  0.0884
 1273ERGO    R317246   1.137   2.783   6.903 -0.1550 -0.1634  0.0646
 1273ERGO    R417247   1.427   2.755   6.930 -0.1502 -0.1046  0.0754
 1273ERGO    R517248   1.275   2.664   7.057 -0.1354 -0.0957  0.0997
 1273ERGO    C117249   1.467   2.865   7.319 -0.1731  0.0121  0.0456
 1273ERGO    C217250   1.584   2.942   7.696  0.2775  0.1432 -0.1074
 1274ERGO   ROH17251   1.868  14.475   6.286  0.0661  0.0721  0.0030
 1274ERGO    R117252   2.048  14.517   6.501  0.0620  0.0115  0.0175
 1274ERGO    R217253   2.154  14.765   6.559  0.1460 -0.0296  0.0194
 1274ERGO    R317254   2.053  14.715   6.806  0.1100  0.0166  0.0151
 1274ERGO    R417255   2.265  14.912   6.852  0.1973 -0.0624  0.0171
 1274ERGO    R517256   2.244  14.719   6.951  0.1116 -0.0576  0.0229
 1274ERGO    C117257   2.235  14.950   7.254  0.1933 -0.0382  0.0118
 1274ERGO    C217258   2.353  14.997   7.657 -0.0725 -0.0890 -0.1253
 1275ERGO   ROH17259   9.297  14.365   6.413 -0.0694 -0.0580  0.0851
 1275ERGO    R117260   9.308  14.208   6.648  0.2746  0.1372  0.2064
 1275ERGO    R217261   9.417  14.302   6.884 -0.0686  0.6283  0.1881
 1275ERGO    R317262   9.176  14.231   6.987  0.0691  0.0306  0.1352
 1275ERGO    R417263   9.342  14.294   7.221 -0.2051  0.7441  0.1609
 1275ERGO    R517264   9.231  14.109   7.187  0.3330  0.3733  0.2811
 1275ERGO    C117265   9.072  14.223   7.514 -0.1555  0.2504  0.0954
 1275ERGO    C217266   8.841  14.185   7.777 -0.0132  0.0509  0.0312
 1276ERGO   ROH17267   1.469   4.301   6.530  0.2215 -0.0424 -0.1171
 1276ERGO    R117268   1.571   4.156   6.750  0.2092  0.0168 -0.0722
 1276ERGO    R217269   1.634   4.276   6.991  0.1085  0.0669 -0.0697
 1276ERGO    R317270   1.467   4.086   7.092  0.1404  0.0271 -0.0913
 1276ERGO    R417271   1.664   4.133   7.304  0.1242  0.0419 -0.0826
 1276ERGO    R517272   1.611   3.940   7.216  0.1618  0.0413 -0.1012
 1276ERGO    C117273   1.526   3.872   7.582  0.1633 -0.0102 -0.1103
 1276ERGO    C217274   1.477   3.837   7.977 -0.1958 -0.1706  0.1120
 1277ERGO   ROH17275   4.037   5.930   6.549  0.0840  0.0435 -0.0244
 1277ERGO    R117276   4.185   5.996   6.782  0.1350  0.0348 -0.0545
 1277ERGO    R217277   4.170   6.243   6.904  0.0384 -0.0223  0.0510
 1277ERGO    R317278   4.111   6.095   7.124  0.2069 -0.1459  0.0150
 1277ERGO    R417279   4.239   6.336   7.229 -0.1359  0.0154  0.0786
 1277ERGO    R517280   4.296   6.130   7.271  0.1405  0.0817  0.0485
 1277ERGO    C117281   4.224   6.251   7.625 -0.0794 -0.0785  0.0608
 1277ERGO    C217282   4.365   6.260   7.846 -0.1776  0.3332  0.2732
 1278ERGO   ROH17283   3.787  16.430   6.445  0.1948 -0.0969 -0.1449
 1278ERGO    R117284   3.960  16.353   6.655  0.1780  0.0098 -0.0911
 1278ERGO    R217285   4.185  16.499   6.723  0.0493  0.1702  0.0038
 1278ERGO    R317286   4.073  16.496   6.971 -0.0386  0.0631 -0.0369
 1278ERGO    R417287   4.350  16.579   7.016 -0.0915  0.1666  0.0849
 1278ERGO    R517288   4.247  16.414   7.114 -0.0580  0.1006  0.0062
 1278ERGO    C117289   4.341  16.623   7.419 -0.2561  0.0640  0.0938
 1278ERGO    C217290   4.630  16.773   7.511  0.0029  0.1868 -0.2282
 1279ERGO   ROH17291   6.464  13.649   6.322  0.2482  0.1378  0.1135
 1279ERGO    R117292   6.424  13.740   6.587  0.1659  0.0701  0.1246
 1279ERGO    R217293   6.178  13.731   6.713  0.1185  0.0798  0.0288
 1279ERGO    R317294   6.317  13.595   6.903  0.0210  0.0015  0.0455
 1279ERGO    R417295   6.111  13.741   7.051  0.1669  0.2326  0.0347
 1279ERGO    R517296   6.325  13.746   7.089  0.1804  0.0473  0.0054
 1279ERGO    C117297   6.202  13.620   7.427  0.1036  0.2481  0.0539
 1279ERGO    C217298   6.272  13.782   7.756 -0.1106 -0.1681  0.1318
 1280ERGO   ROH17299   2.251  13.611   6.157 -0.1202  0.3570  0.0020
 1280ERGO    R117300   2.229  13.473   6.403 -0.1295  0.2522 -0.0561
 1280ERGO    R217301   2.434  13.464   6.587 -0.0234 -0.0858 -0.1822
 1280ERGO    R317302   2.244  13.560   6.756  0.1889  0.0512 -0.0170
 1280ERGO    R417303   2.403  13.375   6.920  0.0826 -0.2102 -0.2053
 1280ERGO    R517304   2.186  13.372   6.893  0.0603  0.0499 -0.0732
 1280ERGO    C117305   2.206  13.413   7.272  0.3438 -0.1541 -0.0635
 1280ERGO    C217306   2.475  13.302   7.554  0.1353  0.1682 -0.2257
 1281ERGO   ROH17307   5.847   9.966   8.126 -0.0337  0.0096  0.3307
 1281ERGO    R117308   5.880  10.245   8.096 -0.1174 -0.0005  0.1295
 1281ERGO    R217309   6.057  10.392   8.250 -0.1941  0.1716  0.0553
 1281ERGO    R317310   6.150  10.472   8.007 -0.1735  0.0222  0.0145
 1281ERGO    R417311   6.209  10.696   8.188 -0.1106  0.0996 -0.0961
 1281ERGO    R517312   6.100  10.706   7.999 -0.1094  0.0333 -0.1017
 1281ERGO    C117313   6.386  10.948   7.924 -0.0428 -0.0827 -0.2227
 1281ERGO    C217314   6.736  10.971   7.971 -0.0818 -0.1709  0.0382
 1282ERGO   ROH17315   8.398   8.658   6.783  0.1825  0.0163 -0.0283
 1282ERGO    R117316   8.359   8.588   7.054  0.0533  0.0123 -0.0470
 1282ERGO    R217317   8.170   8.711   7.214  0.0388  0.0780 -0.1103
 1282ERGO    R317318   8.086   8.456   7.256 -0.0776  0.1038 -0.1610
 1282ERGO    R417319   8.067   8.585   7.519  0.0758  0.0403 -0.1136
 1282ERGO    R517320   8.172   8.400   7.472 -0.0310 -0.0040 -0.2048
 1282ERGO    C117321   7.928   8.272   7.735 -0.0120  0.0425 -0.1631
 1282ERGO    C217322   7.743   8.030   7.931 -0.0346 -0.3653 -0.0109
 1283ERGO   ROH17323   1.661   0.858  10.254  0.3232 -0.0728 -0.0891
 1283ERGO    R117324   1.742   0.984  10.014  0.1099 -0.0154 -0.1338
 1283ERGO    R217325   1.972   0.911   9.878  0.2243  0.3036 -0.1271
 1283ERGO    R317326   1.800   0.882   9.669  0.2478 -0.0355 -0.1042
 1283ERGO    R417327   2.056   0.953   9.545  0.1511  0.2054 -0.1577
 1283ERGO    R517328   1.865   1.053   9.515  0.0265 -0.0494 -0.2119
 1283ERGO    C117329   1.944   0.950   9.156  0.1306 -0.1702 -0.1544
 1283ERGO    C217330   1.931   1.003   8.789 -0.1765  0.3372 -0.0497
 1284ERGO   ROH17331   0.317  10.807   5.857 -0.0615  0.3228 -0.2047
 1284ERGO    R117332   0.325  10.709   6.122  0.2130  0.2842 -0.2258
 1284ERGO    R217333   0.453  10.845   6.327  0.0022  0.5051 -0.2428
 1284ERGO    R317334   0.211  10.821   6.449  0.0760 -0.0084 -0.1688
 1284ERGO    R417335   0.406  10.807   6.667  0.1894  0.5375 -0.2113
 1284ERGO    R517336   0.248  10.663   6.624  0.5007  0.1400 -0.1082
 1284ERGO    C117337   0.152  10.762   6.980  0.3677  0.0743 -0.1235
 1284ERGO    C217338   0.318  10.795   7.261 -0.1224  0.2146 -0.0788
 1285ERGO   ROH17339  11.423   5.393   6.505  0.1380  0.0333 -0.1570
 1285ERGO    R117340  11.248   5.307   6.709 -0.0035  0.2479 -0.1841
 1285ERGO    R217341  11.302   5.090   6.872 -0.3916  0.0397 -0.3117
 1285ERGO    R317342  11.261   5.270   7.071 -0.0205  0.0153 -0.2071
 1285ERGO    R417343  11.247   5.009   7.203 -0.4176 -0.0267 -0.3329
 1285ERGO    R517344  11.098   5.167   7.212 -0.1492  0.2243 -0.2047
 1285ERGO    C117345  11.177   5.131   7.583 -0.0844 -0.0883 -0.2471
 1285ERGO    C217346  11.124   5.139   7.958 -0.0455  0.0685 -0.0428
 1286ERGO   ROH17347  17.003   3.759   6.439 -0.2529 -0.0234  0.0010
 1286ERGO    R117348  16.866   3.716   6.683 -0.1363 -0.0761  0.0582
 1286ERGO    R217349  16.986   3.751   6.930 -0.0605  0.0074  0.0080
 1286ERGO    R317350  16.773   3.915   6.973 -0.1307 -0.1021  0.0789
 1286ERGO    R417351  16.844   3.811   7.239  0.1552  0.0934  0.0916
 1286ERGO    R517352  16.648   3.803   7.144  0.0782 -0.0885  0.2497
 1286ERGO    C117353  16.562   4.000   7.460  0.2146  0.0408  0.2067
 1286ERGO    C217354  16.494   3.884   7.800  0.2750 -0.1388 -0.1006
 1287ERGO   ROH17355   7.830  12.307   8.129 -0.2978 -0.0013  0.1807
 1287ERGO    R117356   7.872  12.045   8.032 -0.2815  0.0206  0.1289
 1287ERGO    R217357   7.938  11.833   8.197 -0.1683  0.0138  0.0733
 1287ERGO    R317358   7.720  11.717   8.082 -0.1905 -0.0196  0.1474
 1287ERGO    R417359   7.879  11.493   8.183  0.0332 -0.0133 -0.1640
 1287ERGO    R517360   7.806  11.519   7.979 -0.1447  0.1165 -0.0892
 1287ERGO    C117361   7.642  11.186   8.066  0.1298 -0.0605 -0.2328
 1287ERGO    C217362   7.284  11.102   8.056  0.0087 -0.1277  0.0464
 1288ERGO   ROH17363  11.057  13.292   8.155 -0.0579 -0.1563 -0.0754
 1288ERGO    R117364  10.883  13.291   8.377  0.0042 -0.0142 -0.0245
 1288ERGO    R217365  10.860  13.074   8.548 -0.1244  0.0017 -0.0197
 1288ERGO    R317366  10.916  13.259   8.738  0.0838 -0.0428 -0.0341
 1288ERGO    R417367  10.793  13.037   8.884 -0.0561  0.0563  0.0002
 1288ERGO    R517368  10.731  13.246   8.890  0.1159  0.1081  0.0201
 1288ERGO    C117369  10.805  13.190   9.260  0.1791  0.0463 -0.0016
 1288ERGO    C217370  10.721  13.096   9.618 -0.1346 -0.0158 -0.0015
 1289ERGO   ROH17371  15.214   8.965  10.334  0.2788 -0.2357 -0.0780
 1289ERGO    R117372  15.051   8.858  10.129  0.2462 -0.2616 -0.0395
 1289ERGO    R217373  14.908   9.018   9.953 -0.0009 -0.2797  0.1316
 1289ERGO    R317374  15.040   8.872   9.765  0.0196 -0.0627 -0.0262
 1289ERGO    R417375  14.795   8.961   9.632 -0.1188 -0.1925  0.1576
 1289ERGO    R517376  14.866   8.756   9.648  0.0591 -0.1394 -0.0006
 1289ERGO    C117377  14.851   8.790   9.269 -0.1680  0.0620  0.0245
 1289ERGO    C217378  14.907   8.880   8.918 -0.0072 -0.2181  0.1063
 1290ERGO   ROH17379   9.275   5.658   6.589  0.1720  0.1533  0.0918
 1290ERGO    R117380   9.228   5.767   6.846  0.1280  0.0884  0.1109
 1290ERGO    R217381   9.139   5.614   7.058  0.0595  0.0481  0.0527
 1290ERGO    R317382   9.358   5.716   7.182  0.0387 -0.0181  0.1268
 1290ERGO    R417383   9.193   5.611   7.400 -0.0202 -0.0261  0.0652
 1290ERGO    R517384   9.273   5.812   7.384  0.0140 -0.0470  0.1242
 1290ERGO    C117385   9.430   5.704   7.715 -0.0862 -0.1314  0.1420
 1290ERGO    C217386   9.538   5.757   8.089 -0.1501 -0.0255 -0.0454
 1291ERGO   ROH17387   6.230   7.205   6.693 -0.0451  0.2113 -0.0098
 1291ERGO    R117388   6.051   7.337   6.868 -0.0924  0.0669  0.0524
 1291ERGO    R217389   5.914   7.205   7.069  0.0896 -0.0442  0.1056
 1291ERGO    R317390   6.027   7.395   7.227 -0.0102  0.0538  0.0603
 1291ERGO    R417391   5.867   7.232   7.410  0.0938 -0.0020  0.1029
 1291ERGO    R517392   5.857   7.448   7.387 -0.0322 -0.0115  0.0593
 1291ERGO    C117393   5.946   7.426   7.757  0.0027  0.1145  0.0589
 1291ERGO    C217394   5.880   7.339   8.033  0.1641 -0.3305 -0.1357
 1292ERGO   ROH17395  16.796  10.262   6.350 -0.0353 -0.0313  0.0456
 1292ERGO    R117396  16.760  10.327   6.623 -0.1187 -0.1364  0.0607
 1292ERGO    R217397  16.763  10.136   6.823  0.0156 -0.1926  0.0080
 1292ERGO    R317398  16.955  10.297   6.930 -0.1257 -0.0642  0.0724
 1292ERGO    R417399  16.930  10.075   7.120  0.0051 -0.1152  0.0300
 1292ERGO    R517400  16.916  10.287   7.166 -0.1649 -0.1326  0.0630
 1292ERGO    C117401  17.207  10.189   7.392 -0.1339  0.0505  0.1032
 1292ERGO    C217402  17.330  10.030   7.608 -0.3309  0.0535 -0.1714
 1293ERGO   ROH17403   2.994  16.603   6.844  0.3203 -0.0176  0.0879
 1293ERGO    R117404   3.015  16.431   7.068  0.0543 -0.0623  0.0810
 1293ERGO    R217405   2.954  16.513   7.325  0.0508 -0.0189  0.0614
 1293ERGO    R317406   2.790  16.297   7.321 -0.1834  0.1539 -0.0090
 1293ERGO    R417407   2.816  16.365   7.605  0.5147 -0.3998  0.1010
 1293ERGO    R517408   2.854  16.170   7.514  0.1265 -0.2840 -0.3695
 1293ERGO    C117409   2.582  16.075   7.764  0.5649 -0.4592  0.0581
 1293ERGO    C217410   2.186  15.947   7.875 -0.3632 -0.0684 -0.3008
 1294ERGO   ROH17411   8.776  10.980   6.174  0.2078  0.1963  0.0517
 1294ERGO    R117412   8.664  11.066   6.420  0.1045  0.1478  0.0219
 1294ERGO    R217413   8.538  10.893   6.595  0.0010  0.1194 -0.0812
 1294ERGO    R317414   8.716  10.996   6.773 -0.0692  0.0514  0.0293
 1294ERGO    R417415   8.492  10.902   6.937 -0.1174 -0.0518 -0.0915
 1294ERGO    R517416   8.579  11.101   6.939 -0.1373 -0.0425  0.0350
 1294ERGO    C117417   8.632  11.003   7.304 -0.2521 -0.2153  0.0064
 1294ERGO    C217418   8.573  11.039   7.605  0.1054 -0.3305  0.0871
 1295ERGO   ROH17419   6.529   1.874   9.996 -0.1204  0.2795 -0.1213
 1295ERGO    R117420   6.578   1.938   9.725  0.0653  0.1529 -0.1197
 1295ERGO    R217421   6.780   1.818   9.579  0.0931 -0.0056  0.0356
 1295ERGO    R317422   6.577   1.761   9.407  0.1567  0.0309 -0.0512
 1295ERGO    R417423   6.799   1.845   9.235  0.1642  0.2008  0.0547
 1295ERGO    R517424   6.596   1.926   9.235  0.1436  0.1338  0.0506
 1295ERGO    C117425   6.619   1.806   8.873  0.2653  0.3551 -0.0157
 1295ERGO    C217426   6.628   1.900   8.542 -0.2555 -0.0060 -0.1143
 1296ERGO   ROH17427   4.366  13.716   6.222 -0.2341  0.1171 -0.0207
 1296ERGO    R117428   4.501  13.839   6.438 -0.0906 -0.0714 -0.0021
 1296ERGO    R217429   4.376  14.012   6.614  0.1088  0.0438  0.0222
 1296ERGO    R317430   4.473  13.841   6.801 -0.0837 -0.0953  0.0000
 1296ERGO    R417431   4.371  14.069   6.955  0.3793  0.1258  0.0154
 1296ERGO    R517432   4.571  13.983   6.967  0.2514 -0.2205 -0.0757
 1296ERGO    C117433   4.460  13.941   7.329  0.3561  0.0430 -0.0093
 1296ERGO    C217434   4.448  13.836   7.718 -0.0085 -0.0632  0.1497
 1297ERGO   ROH17435  17.177  12.181   9.586  0.0114  0.0130 -0.0066
 1297ERGO    R117436  16.936  12.096   9.464 -0.0220  0.2462 -0.1060
 1297ERGO    R217437  16.851  12.192   9.219  0.3177  0.1248 -0.2740
 1297ERGO    R317438  16.841  11.929   9.155 -0.0265  0.0655 -0.0096
 1297ERGO    R417439  16.612  12.049   9.016  0.3714  0.3261 -0.4849
 1297ERGO    R517440  16.607  11.878   9.151 -0.1223  0.4630 -0.3027
 1297ERGO    C117441  16.462  11.717   8.837  0.0794  0.3875 -0.3596
 1297ERGO    C217442  16.273  11.625   8.710  0.1610 -0.2278 -0.2413
 1298ERGO   ROH17443   2.343   9.351   6.641  0.0704  0.2203  0.0252
 1298ERGO    R117444   2.337   9.493   6.886 -0.0216  0.1468  0.0659
 1298ERGO    R217445   2.103   9.540   7.025 -0.0453 -0.1094  0.1178
 1298ERGO    R317446   2.238   9.423   7.229  0.0975 -0.0422  0.0634
 1298ERGO    R417447   2.049   9.606   7.360 -0.0907 -0.2867  0.1462
 1298ERGO    R517448   2.265   9.597   7.391 -0.0761 -0.0688  0.1248
 1298ERGO    C117449   2.145   9.533   7.747  0.0170 -0.3269  0.1116
 1298ERGO    C217450   1.973   9.340   7.951  0.0574  0.0077  0.0183
 1299ERGO   ROH17451   6.821   0.744   6.404 -0.1143  0.0918 -0.0401
 1299ERGO    R117452   6.820   0.662   6.675 -0.1089  0.0563 -0.0499
 1299ERGO    R217453   6.903   0.827   6.881  0.0147 -0.0112 -0.0397
 1299ERGO    R317454   6.658   0.769   6.983 -0.0001  0.1028 -0.0093
 1299ERGO    R417455   6.829   0.803   7.218  0.0161  0.1236 -0.0299
 1299ERGO    R517456   6.703   0.632   7.173 -0.0408  0.1519  0.0335
 1299ERGO    C117457   6.556   0.735   7.509  0.0031  0.3091  0.0045
 1299ERGO    C217458   6.251   0.764   7.721  0.0709 -0.0441 -0.2809
 1300ERGO   ROH17459  12.499  14.448   6.753  0.0311  0.1544  0.3721
 1300ERGO    R117460  12.440  14.192   6.859 -0.1485  0.1311  0.2213
 1300ERGO    R217461  12.630  14.034   6.982 -0.1896 -0.1944 -0.1068
 1300ERGO    R317462  12.450  14.032   7.185  0.0193 -0.1474  0.0821
 1300ERGO    R417463  12.592  13.777   7.210 -0.1042 -0.2340 -0.1377
 1300ERGO    R517464  12.376  13.805   7.198 -0.1007 -0.1057  0.0949
 1300ERGO    C117465  12.401  13.626   7.534  0.1419 -0.2130  0.0216
 1300ERGO    C217466  12.382  13.637   7.875 -0.0450  0.3963  0.2566
 1301ERGO   ROH17467  15.664   8.186   6.467  0.3571 -0.0602  0.0349
 1301ERGO    R117468  15.728   8.183   6.743  0.2537 -0.0561  0.0573
 1301ERGO    R217469  15.880   8.380   6.863  0.1183 -0.0070  0.1347
 1301ERGO    R317470  15.667   8.397   7.031  0.0563 -0.1136  0.0590
 1301ERGO    R417471  15.880   8.548   7.165 -0.1498  0.2386  0.0044
 1301ERGO    R517472  15.763   8.385   7.250  0.0138  0.1721  0.0978
 1301ERGO    C117473  15.680   8.662   7.498 -0.3641  0.2816 -0.1425
 1301ERGO    C217474  15.639   8.959   7.581 -0.4260 -0.0576 -0.1891
 1302ERGO   ROH17475   1.878  12.711   9.405 -0.3369  0.0166 -0.1102
 1302ERGO    R117476   1.918  12.649   9.132 -0.1303 -0.0129 -0.0759
 1302ERGO    R217477   1.726  12.699   8.939 -0.0759 -0.2397 -0.1934
 1302ERGO    R317478   1.929  12.833   8.818 -0.1354 -0.0758 -0.1127
 1302ERGO    R417479   1.768  12.728   8.597 -0.0064 -0.1346 -0.1762
 1302ERGO    R517480   1.982  12.701   8.626  0.0038  0.0037 -0.1286
 1302ERGO    C117481   1.982  12.872   8.285 -0.0217  0.0803 -0.0902
 1302ERGO    C217482   2.009  12.905   8.039  0.0279 -0.2115  0.0548
 1303ERGO   ROH17483   5.794   0.980   6.182 -0.1763  0.0744 -0.0423
 1303ERGO    R117484   5.676   0.984   6.439 -0.0617  0.1685  0.0092
 1303ERGO    R217485   5.681   0.765   6.608 -0.2138  0.1458 -0.0213
 1303ERGO    R317486   5.790   0.943   6.782  0.0448  0.0141 -0.0417
 1303ERGO    R417487   5.641   0.756   6.952 -0.1314  0.1673 -0.0105
 1303ERGO    R517488   5.622   0.973   6.950  0.1188  0.1978  0.0071
 1303ERGO    C117489   5.720   0.919   7.315  0.1593  0.0562 -0.0234
 1303ERGO    C217490   5.771   1.029   7.671  0.3176  0.2097 -0.1687
 1304ERGO   ROH17491  13.173   0.304   6.496 -0.2206 -0.2061  0.0862
 1304ERGO    R117492  13.224   0.200   6.755 -0.2070 -0.1453  0.1097
 1304ERGO    R217493  13.335   0.352   6.957 -0.0279 -0.1419  0.0162
 1304ERGO    R317494  13.115   0.273   7.094 -0.0459  0.0661  0.1193
 1304ERGO    R417495  13.337   0.239   7.283  0.0335 -0.2305 -0.0165
 1304ERGO    R517496  13.191   0.088   7.226 -0.1736 -0.0574  0.0237
 1304ERGO    C117497  13.130   0.098   7.602  0.0523 -0.0869  0.0613
 1304ERGO    C217498  13.292  -0.072   7.884 -0.0353  0.2008 -0.3501
 1305ERGO   ROH17499  14.685  15.175  10.223  0.0990 -0.2142  0.0155
 1305ERGO    R117500  14.717  15.256   9.953  0.0357 -0.0483  0.0567
 1305ERGO    R217501  14.936  15.183   9.801  0.0097  0.0644 -0.0323
 1305ERGO    R317502  14.745  15.092   9.630 -0.0155  0.1502 -0.0510
 1305ERGO    R417503  14.961  15.186   9.456  0.0644  0.0243 -0.0291
 1305ERGO    R517504  14.751  15.245   9.446  0.0933  0.1350 -0.0634
 1305ERGO    C117505  14.796  15.103   9.095  0.0725  0.0814 -0.0449
 1305ERGO    C217506  14.910  15.156   8.708 -0.2562 -0.2675  0.1357
 1306ERGO   ROH17507  11.353   9.360   6.553 -0.2563 -0.0475  0.0196
 1306ERGO    R117508  11.270   9.452   6.808 -0.1998 -0.0069  0.0233
 1306ERGO    R217509  11.421   9.626   6.960 -0.1219 -0.0660  0.0126
 1306ERGO    R317510  11.192   9.773   6.961 -0.0554  0.0250  0.0265
 1306ERGO    R417511  11.351   9.884   7.180 -0.1338 -0.2257  0.1977
 1306ERGO    R517512  11.146   9.811   7.192 -0.1589 -0.1513  0.0302
 1306ERGO    C117513  11.095  10.171   7.308 -0.0781 -0.2334  0.3185
 1306ERGO    C217514  10.907  10.443   7.293 -0.2337  0.0189 -0.1848
 1307ERGO   ROH17515   7.266  16.849   6.377 -0.0452  0.0084 -0.1494
 1307ERGO    R117516   7.316  16.823   6.655  0.0535  0.1448 -0.1531
 1307ERGO    R217517   7.217  17.000   6.842 -0.1037  0.0853 -0.1767
 1307ERGO    R317518   7.117  16.775   6.956  0.1826  0.0049 -0.0917
 1307ERGO    R417519   7.075  16.984   7.157  0.0886 -0.0215 -0.0950
 1307ERGO    R517520   7.177  16.794   7.187  0.2903  0.0870 -0.1299
 1307ERGO    C117521   6.900  16.763   7.447  0.4693 -0.1595  0.0325
 1307ERGO    C217522   6.681  16.593   7.650  0.0366  0.0430  0.2311
 1308ERGO   ROH17523   8.978   7.659   6.787 -0.0943  0.0785 -0.0025
 1308ERGO    R117524   8.949   7.785   7.039  0.0249  0.1347 -0.0176
 1308ERGO    R217525   8.747   7.720   7.216 -0.0210  0.3316 -0.0046
 1308ERGO    R317526   8.954   7.682   7.388 -0.0489  0.1768 -0.0020
 1308ERGO    R417527   8.719   7.705   7.560 -0.0385  0.4259 -0.0009
 1308ERGO    R517528   8.902   7.821   7.576  0.0738  0.2670 -0.0277
 1308ERGO    C117529   8.897   7.661   7.922 -0.0748  0.3356  0.0036
 1308ERGO    C217530   8.981   7.751   8.394 -0.0772  0.1211 -0.1044
 1309ERGO   ROH17531  15.637   6.284   6.526 -0.0495  0.0983  0.0371
 1309ERGO    R117532  15.482   6.154   6.723 -0.0274  0.1089  0.0624
 1309ERGO    R217533  15.555   5.913   6.836 -0.1056  0.0206 -0.0638
 1309ERGO    R317534  15.527   6.050   7.069  0.0842 -0.0474  0.0006
 1309ERGO    R417535  15.398   5.790   7.119 -0.0605  0.0239 -0.0377
 1309ERGO    R517536  15.309   5.987   7.148  0.0809  0.0676  0.0747
 1309ERGO    C117537  15.281   5.848   7.502  0.1440 -0.0381  0.0379
 1309ERGO    C217538  15.483   5.822   7.784 -0.2663 -0.0169  0.1982
 1310ERGO   ROH17539  17.529  17.276   6.679  0.1825 -0.2894  0.0941
 1310ERGO    R117540  17.717  17.241   6.888  0.1361 -0.0244  0.1842
 1310ERGO    R217541  17.789  17.446   7.060 -0.2123  0.0881  0.2034
 1310ERGO    R317542  17.716  17.267   7.251 -0.0651  0.0053  0.1833
 1310ERGO    R417543  17.943  17.412   7.367 -0.0238  0.0109  0.1024
 1310ERGO    R517544  17.923  17.196   7.348  0.0080  0.0121  0.0370
 1310ERGO    C117545  17.964  17.225   7.726  0.2238 -0.1118  0.0247
 1310ERGO    C217546  18.018  17.121   7.982  0.4898  0.2834  0.0104
 1311ERGO   ROH17547   5.808  17.196   8.362  0.0591  0.1406  0.0010
 1311ERGO    R117548   5.602  17.349   8.243  0.0368  0.1115  0.0031
 1311ERGO    R217549   5.384  17.441   8.385  0.0781  0.1669  0.0274
 1311ERGO    R317550   5.461  17.682   8.286  0.0626  0.1324 -0.0705
 1311ERGO    R417551   5.172  17.710   8.332  0.1134  0.2351  0.2204
 1311ERGO    R517552   5.278  17.750   8.146 -0.0589  0.1828  0.1069
 1311ERGO    C117553   5.122  18.092   8.208  0.1194  0.2422  0.2410
 1311ERGO    C217554   5.055  18.439   8.174 -0.3809  0.1508 -0.1573
 1312ERGO   ROH17555   1.123   1.723   6.289  0.1276 -0.0300  0.0312
 1312ERGO    R117556   1.033   1.747   6.556  0.2444  0.0704  0.0604
 1312ERGO    R217557   0.932   1.534   6.700 -0.0660  0.2108  0.0439
 1312ERGO    R317558   1.123   1.605   6.879  0.1052 -0.1370  0.0124
 1312ERGO    R417559   0.916   1.473   7.039 -0.2586  0.4551  0.0829
 1312ERGO    R517560   1.000   1.671   7.074  0.2303  0.2921 -0.0363
 1312ERGO    C117561   1.086   1.505   7.406 -0.2099  0.2708  0.0759
 1312ERGO    C217562   1.208   1.390   7.674 -0.1096  0.1945 -0.0645
 1313ERGO   ROH17563   9.286   3.247   6.388 -0.1430 -0.0377  0.1601
 1313ERGO    R117564   9.362   3.363   6.635 -0.0211 -0.1143  0.1562
 1313ERGO    R217565   9.179   3.426   6.832  0.0676 -0.0475  0.2000
 1313ERGO    R317566   9.341   3.272   6.987  0.0219 -0.1475  0.1540
 1313ERGO    R417567   9.217   3.460   7.174  0.5107  0.2501  0.1327
 1313ERGO    R517568   9.430   3.424   7.150  0.4468 -0.0995 -0.0936
 1313ERGO    C117569   9.390   3.335   7.518  0.7257  0.3296  0.0502
 1313ERGO    C217570   9.306   3.417   7.861  0.2635 -0.0300 -0.2937
 1314ERGO   ROH17571  11.726   9.662   6.641  0.0202  0.0463  0.0379
 1314ERGO    R117572  11.870   9.602   6.877  0.0236  0.1474  0.0602
 1314ERGO    R217573  11.833   9.742   7.113 -0.2028  0.0388  0.0871
 1314ERGO    R317574  11.789   9.494   7.216  0.0574 -0.0396  0.0095
 1314ERGO    R417575  11.832   9.665   7.450 -0.1515 -0.0629  0.0655
 1314ERGO    R517576  11.938   9.480   7.403  0.0548  0.0661  0.0196
 1314ERGO    C117577  11.790   9.388   7.742  0.1227 -0.1958 -0.0201
 1314ERGO    C217578  11.545   9.353   7.962 -0.1330 -0.4577 -0.0155
 1315ERGO   ROH17579   3.168   1.132   6.454  0.1123 -0.0657 -0.0232
 1315ERGO    R117580   3.399   1.196   6.605  0.1253 -0.0807 -0.0378
 1315ERGO    R217581   3.423   1.133   6.873  0.1173 -0.0387 -0.0297
 1315ERGO    R317582   3.652   1.012   6.791  0.0968 -0.0928 -0.0098
 1315ERGO    R417583   3.670   1.015   7.084  0.0197 -0.1961 -0.0010
 1315ERGO    R517584   3.819   1.091   6.943  0.0850 -0.2009  0.0623
 1315ERGO    C117585   4.029   0.832   7.129 -0.0562 -0.3385  0.0344
 1315ERGO    C217586   4.217   0.766   7.453  0.0087  0.2029  0.2668
 1316ERGO   ROH17587  10.385   0.539   6.587  0.2533  0.2416  0.0924
 1316ERGO    R117588  10.176   0.485   6.770  0.1769  0.1499 -0.0201
 1316ERGO    R217589  10.223   0.414   7.033  0.0672  0.0625 -0.0224
 1316ERGO    R317590  10.058   0.623   7.086  0.0176  0.0233 -0.0230
 1316ERGO    R417591  10.127   0.515   7.350  0.0824  0.0711 -0.0208
 1316ERGO    R517592   9.926   0.549   7.272  0.0628  0.0082  0.0026
 1316ERGO    C117593   9.917   0.770   7.583  0.0448  0.0394 -0.0203
 1316ERGO    C217594   9.874   0.691   7.954  0.2086 -0.1251 -0.2629
 1317ERGO   ROH17595  13.577   8.210   8.288 -0.0241  0.1598  0.1079
 1317ERGO    R117596  13.467   7.960   8.214  0.0633  0.1913 -0.1343
 1317ERGO    R217597  13.255   7.845   8.349  0.2032 -0.0841 -0.1494
 1317ERGO    R317598  13.143   7.837   8.102  0.0611  0.1602 -0.0966
 1317ERGO    R417599  13.036   7.601   8.239  0.2248 -0.0389 -0.2953
 1317ERGO    R517600  13.138   7.605   8.046  0.1132  0.2163 -0.3569
 1317ERGO    C117601  12.804   7.452   7.942  0.1040  0.2168 -0.3305
 1317ERGO    C217602  12.637   7.203   7.893 -0.0575  0.0100 -0.1070
 1318ERGO   ROH17603   8.206   9.916   6.355  0.2918  0.0929  0.1899
 1318ERGO    R117604   8.194  10.080   6.585  0.2760  0.0084  0.2511
 1318ERGO    R217605   7.956  10.167   6.694  0.2676  0.3470 -0.0088
 1318ERGO    R317606   8.057  10.056   6.921 -0.1877  0.0683  0.0731
 1318ERGO    R417607   7.899  10.286   7.013  0.2762  0.4461 -0.0447
 1318ERGO    R517608   8.108  10.244   7.061  0.1476 -0.0640  0.1358
 1318ERGO    C117609   7.961  10.252   7.412 -0.1463  0.2420  0.0113
 1318ERGO    C217610   7.859  10.443   7.755 -0.0692 -0.0297 -0.0625
 1319ERGO   ROH17611   2.164   2.590  10.317  0.0287 -0.2323  0.0919
 1319ERGO    R117612   2.251   2.564  10.048  0.0210  0.1443  0.0467
 1319ERGO    R217613   2.188   2.344   9.892  0.4126  0.1323 -0.1073
 1319ERGO    R317614   2.094   2.534   9.722 -0.0022  0.0885  0.0635
 1319ERGO    R417615   2.185   2.317   9.548  0.2883  0.3599 -0.1259
 1319ERGO    R517616   2.243   2.526   9.535 -0.0795  0.4727 -0.0197
 1319ERGO    C117617   2.095   2.479   9.187 -0.1736  0.4513  0.0237
 1319ERGO    C217618   2.154   2.516   8.815  0.2828  0.2236  0.0894
 1320ERGO   ROH17619  16.561  13.079   9.985 -0.0728  0.0289 -0.0804
 1320ERGO    R117620  16.399  13.105   9.754 -0.0075 -0.0100 -0.1320
 1320ERGO    R217621  16.392  13.337   9.603  0.0191 -0.0230 -0.1609
 1320ERGO    R317622  16.453  13.167   9.400  0.0968 -0.0447 -0.1226
 1320ERGO    R417623  16.322  13.395   9.270  0.2483 -0.0051 -0.2068
 1320ERGO    R517624  16.268  13.185   9.249  0.1963  0.0105 -0.2404
 1320ERGO    C117625  16.339  13.269   8.884  0.4549 -0.0150 -0.1975
 1320ERGO    C217626  16.233  13.369   8.633 -0.0527  0.1040  0.4320
 1321ERGO   ROH17627  14.064   6.693   6.597  0.0905  0.0379  0.1144
 1321ERGO    R117628  14.100   6.689   6.878 -0.0356 -0.1185  0.1305
 1321ERGO    R217629  14.223   6.895   7.015  0.0515 -0.2661  0.2831
 1321ERGO    R317630  13.994   6.892   7.161 -0.0174 -0.1737  0.1763
 1321ERGO    R417631  14.203   6.962   7.354 -0.0904 -0.2084  0.2632
 1321ERGO    R517632  14.058   6.800   7.372 -0.1468 -0.1596  0.2205
 1321ERGO    C117633  13.975   6.998   7.687 -0.2376 -0.0879  0.1514
 1321ERGO    C217634  13.897   7.020   7.980 -0.2673  0.0480 -0.0230
 1322ERGO   ROH17635   7.976   5.505   6.376 -0.4173 -0.4748 -0.0153
 1322ERGO    R117636   8.063   5.536   6.644 -0.1294 -0.5361 -0.0991
 1322ERGO    R217637   7.899   5.637   6.843  0.2835  0.0344 -0.0362
 1322ERGO    R317638   7.965   5.406   6.970 -0.2411 -0.0756  0.0611
 1322ERGO    R417639   7.926   5.600   7.185  0.3148  0.1678 -0.0228
 1322ERGO    R517640   8.102   5.476   7.153  0.0107 -0.2989 -0.0271
 1322ERGO    C117641   8.004   5.362   7.504 -0.1595  0.1423  0.0764
 1322ERGO    C217642   7.875   5.159   7.772  0.3457  0.0484 -0.0379
 1323ERGO   ROH17643   9.819   4.447   6.529  0.1653  0.0029  0.0092
 1323ERGO    R117644   9.978   4.398   6.759  0.2109  0.0330 -0.0173
 1323ERGO    R217645  10.210   4.538   6.811  0.1149  0.1716  0.0278
 1323ERGO    R317646  10.088   4.589   7.048  0.0986 -0.0001  0.0443
 1323ERGO    R417647  10.368   4.659   7.094  0.0408  0.1892  0.0625
 1323ERGO    R517648  10.249   4.523   7.213  0.1508  0.0661  0.0135
 1323ERGO    C117649  10.346   4.777   7.481 -0.0177  0.0384  0.0983
 1323ERGO    C217650  10.228   5.112   7.679  0.1119 -0.0797  0.1745
 1324ERGO   ROH17651  10.561   1.870   6.657  0.0238 -0.1572  0.0355
 1324ERGO    R117652  10.702   1.925   6.896  0.2415 -0.2622 -0.0660
 1324ERGO    R217653  10.576   1.955   7.140  0.3980  0.1880 -0.0303
 1324ERGO    R317654  10.751   1.762   7.218  0.0371 -0.1224  0.0376
 1324ERGO    R417655  10.693   1.912   7.463  0.2921  0.0563 -0.0088
 1324ERGO    R517656  10.890   1.869   7.380  0.2261 -0.3342  0.0195
 1324ERGO    C117657  10.925   1.706   7.723 -0.1084 -0.3118  0.0675
 1324ERGO    C217658  10.949   1.457   7.918  0.1693  0.2880 -0.1329
 1325ERGO   ROH17659  16.349  14.557   6.535  0.1326  0.0380 -0.0950
 1325ERGO    R117660  16.311  14.552   6.816  0.0484  0.0914 -0.1046
 1325ERGO    R217661  16.514  14.611   6.995  0.0318  0.0006 -0.0519
 1325ERGO    R317662  16.333  14.791   7.090  0.1017  0.1126 -0.1282
 1325ERGO    R417663  16.541  14.781   7.295 -0.1583 -0.2745  0.1251
 1325ERGO    R517664  16.328  14.752   7.325 -0.2299 -0.0781 -0.1628
 1325ERGO    C117665  16.386  15.048   7.558 -0.2033 -0.3294  0.1564
 1325ERGO    C217666  16.432  15.192   7.894  0.0048 -0.1657  0.1803
 1326ERGO   ROH17667  13.824   4.060   6.458 -0.3060  0.0138  0.0508
 1326ERGO    R117668  13.919   4.049   6.725 -0.1014  0.0699 -0.0180
 1326ERGO    R217669  13.841   4.230   6.918 -0.0270  0.0566  0.0291
 1326ERGO    R317670  13.774   4.006   7.055  0.1606  0.0387  0.0934
 1326ERGO    R417671  13.898   4.180   7.255 -0.0597  0.2187  0.0601
 1326ERGO    R517672  13.954   3.975   7.210  0.1499  0.2614  0.1467
 1326ERGO    C117673  13.869   3.940   7.580  0.0973  0.2961  0.1384
 1326ERGO    C217674  13.932   3.924   7.892  0.1112 -0.0614 -0.0868
 1327ERGO   ROH17675  11.101  17.939   6.743 -0.2048 -0.0710 -0.0082
 1327ERGO    R117676  11.028  17.988   7.012 -0.0322  0.1058  0.0083
 1327ERGO    R217677  11.024  17.789   7.203 -0.2165  0.1669  0.0666
 1327ERGO    R317678  11.187  17.960   7.338  0.0648 -0.0050 -0.0470
 1327ERGO    R417679  11.050  17.806   7.547 -0.0306  0.2026  0.0517
 1327ERGO    R517680  11.060  18.023   7.531  0.2326  0.1931  0.0041
 1327ERGO    C117681  11.219  17.975   7.875  0.3417  0.0619 -0.0636
 1327ERGO    C217682  11.273  17.857   8.130  0.0519 -0.0585  0.0530
 1328ERGO   ROH17683   9.533  17.001   6.212 -0.2211 -0.1738  0.1066
 1328ERGO    R117684   9.582  16.954   6.487 -0.1694 -0.0624  0.1173
 1328ERGO    R217685   9.817  17.030   6.612 -0.1103 -0.0869  0.0241
 1328ERGO    R317686   9.647  17.157   6.782 -0.0234  0.0537  0.0065
 1328ERGO    R417687   9.856  17.045   6.955 -0.1118 -0.0892  0.0238
 1328ERGO    R517688   9.641  17.016   6.976 -0.1357  0.0729  0.0174
 1328ERGO    C117689   9.720  17.173   7.315 -0.0311  0.0416  0.0072
 1328ERGO    C217690   9.761  17.195   7.693  0.2465  0.0323  0.2462
 1329ERGO   ROH17691  11.561  10.656   6.795 -0.1487 -0.1340 -0.0555
 1329ERGO    R117692  11.455  10.720   7.050 -0.1125 -0.0021 -0.0733
 1329ERGO    R217693  11.381  10.527   7.233 -0.1656  0.0915  0.0017
 1329ERGO    R317694  11.548  10.665   7.397 -0.1101  0.0985 -0.0567
 1329ERGO    R417695  11.332  10.573   7.572 -0.1145  0.1932 -0.0040
 1329ERGO    R517696  11.402  10.778   7.550 -0.0681  0.1748 -0.0688
 1329ERGO    C117697  11.460  10.729   7.923 -0.0327  0.2590 -0.0621
 1329ERGO    C217698  11.446  10.903   8.237 -0.0324 -0.2968 -0.1580
 1330ERGO   ROH17699  15.462  12.867   6.415  0.1143  0.1692  0.1264
 1330ERGO    R117700  15.446  12.717   6.654 -0.0485  0.0690  0.0533
 1330ERGO    R217701  15.630  12.744   6.859 -0.0766 -0.1603  0.1033
 1330ERGO    R317702  15.408  12.789   7.009 -0.0751 -0.0710  0.0810
 1330ERGO    R417703  15.608  12.693   7.200 -0.0502  0.0685  0.1412
 1330ERGO    R517704  15.408  12.612   7.171 -0.0520  0.0327  0.2028
 1330ERGO    C117705  15.387  12.706   7.540 -0.0336  0.2857  0.1423
 1330ERGO    C217706  15.242  12.713   7.879 -0.1139 -0.2391 -0.2287
 1331ERGO   ROH17707   4.191  10.366   9.882  0.0053  0.0642  0.0316
 1331ERGO    R117708   4.277  10.245   9.641  0.0223  0.0942  0.0228
 1331ERGO    R217709   4.104  10.113   9.471  0.0382  0.0971  0.0052
 1331ERGO    R317710   4.206  10.284   9.286  0.0305  0.1227  0.0243
 1331ERGO    R417711   4.086  10.067   9.129 -0.1502  0.2430 -0.0061
 1331ERGO    R517712   4.291  10.141   9.113 -0.1216  0.1508 -0.0752
 1331ERGO    C117713   4.171  10.202   8.756 -0.2672  0.3521  0.0052
 1331ERGO    C217714   4.174  10.231   8.402  0.1930 -0.1311 -0.0687
 1332ERGO   ROH17715  11.651   4.264   6.445  0.0683 -0.0809 -0.1765
 1332ERGO    R117716  11.540   4.278   6.705 -0.0134 -0.2078 -0.2039
 1332ERGO    R217717  11.598   4.093   6.902  0.2462 -0.0767 -0.1566
 1332ERGO    R317718  11.666   4.314   7.044 -0.1433  0.0672 -0.1816
 1332ERGO    R417719  11.629   4.105   7.246  0.3987 -0.0389 -0.1705
 1332ERGO    R517720  11.533   4.300   7.243 -0.0206 -0.2295 -0.1124
 1332ERGO    C117721  11.711   4.319   7.580  0.1218  0.1182 -0.2020
 1332ERGO    C217722  11.571   4.349   7.933 -0.1082  0.0596 -0.0397
 1333ERGO   ROH17723   9.544  16.185   6.681  0.0253 -0.0432 -0.0783
 1333ERGO    R117724   9.558  16.220   6.962 -0.0030 -0.0416 -0.0772
 1333ERGO    R217725   9.492  16.020   7.140  0.0651 -0.0689 -0.0843
 1333ERGO    R317726   9.741  16.069   7.238  0.0407  0.0253 -0.0687
 1333ERGO    R417727   9.581  16.001   7.474  0.0638 -0.1032 -0.0859
 1333ERGO    R517728   9.703  16.180   7.446 -0.0178 -0.0385 -0.0438
 1333ERGO    C117729   9.867  16.036   7.759  0.0404 -0.0344 -0.0721
 1333ERGO    C217730   9.893  16.046   8.027 -0.1870 -0.3106 -0.0842
 1334ERGO   ROH17731   8.836   0.242   9.740 -0.1287  0.0195 -0.0331
 1334ERGO    R117732   8.948   0.262   9.480 -0.0926  0.1660 -0.0077
 1334ERGO    R217733   8.861   0.106   9.269  0.1403  0.0695 -0.0353
 1334ERGO    R317734   8.828   0.346   9.147 -0.1224  0.0396 -0.0297
 1334ERGO    R417735   8.803   0.149   8.931  0.3329  0.0204 -0.0756
 1334ERGO    R517736   8.938   0.321   8.935  0.0804  0.2229  0.0488
 1334ERGO    C117737   8.739   0.400   8.619  0.1985 -0.0364 -0.0939
 1334ERGO    C217738   8.804   0.579   8.350  0.0228 -0.0440 -0.1050
 1335ERGO   ROH17739   4.030   2.480   6.721 -0.1987 -0.1174  0.1484
 1335ERGO    R117740   4.149   2.375   6.956  0.0800  0.0420  0.0833
 1335ERGO    R217741   4.398   2.455   7.044 -0.0203  0.4753  0.0066
 1335ERGO    R317742   4.264   2.507   7.275 -0.0366  0.1860  0.0667
 1335ERGO    R417743   4.546   2.549   7.342 -0.0585  0.2843  0.0876
 1335ERGO    R517744   4.406   2.420   7.447  0.0217  0.1064 -0.0218
 1335ERGO    C117745   4.506   2.654   7.732 -0.0961 -0.0985  0.1911
 1335ERGO    C217746   4.516   2.701   8.055 -0.2006  0.2772  0.0359
 1336ERGO   ROH17747  13.259  11.395  10.219  0.2415  0.0510  0.0879
 1336ERGO    R117748  13.179  11.522   9.979  0.2411  0.0699  0.0967
 1336ERGO    R217749  13.358  11.648   9.810  0.2653 -0.0492  0.0254
 1336ERGO    R317750  13.249  11.483   9.624  0.1146 -0.0125  0.0818
 1336ERGO    R417751  13.333  11.719   9.473  0.1947 -0.0851  0.0237
 1336ERGO    R517752  13.134  11.630   9.474  0.1488  0.0263  0.0988
 1336ERGO    C117753  13.216  11.607   9.102  0.0122 -0.0716  0.0756
 1336ERGO    C217754  13.236  11.644   8.772 -0.1873 -0.0332 -0.1995
 1337ERGO   ROH17755   4.165  10.220   5.982  0.0496 -0.2446 -0.0567
 1337ERGO    R117756   4.245  10.155   6.246  0.1037 -0.0074 -0.0123
 1337ERGO    R217757   4.364  10.338   6.413 -0.0366  0.2014 -0.1309
 1337ERGO    R317758   4.163  10.268   6.583  0.0174  0.1545 -0.0871
 1337ERGO    R417759   4.351  10.422   6.749 -0.0275  0.2651 -0.1468
 1337ERGO    R517760   4.274  10.221   6.790  0.0625  0.2450 -0.0934
 1337ERGO    C117761   4.154  10.405   7.102  0.0284  0.2580 -0.1151
 1337ERGO    C217762   3.817  10.479   7.333  0.0795 -0.0694  0.1318
 1338ERGO   ROH17763   8.876   4.895   6.374 -0.0411  0.1462  0.0024
 1338ERGO    R117764   8.708   4.874   6.600 -0.0164  0.1072  0.0176
 1338ERGO    R217765   8.454   4.766   6.588 -0.0304  0.1345  0.0208
 1338ERGO    R317766   8.547   4.606   6.787 -0.0195  0.0765 -0.0308
 1338ERGO    R417767   8.257   4.616   6.829 -0.0142  0.0355 -0.0269
 1338ERGO    R517768   8.411   4.661   6.976 -0.0220 -0.0009 -0.0128
 1338ERGO    C117769   8.230   4.378   7.157  0.0055 -0.0767 -0.1030
 1338ERGO    C217770   8.170   4.229   7.459 -0.0017  0.2561  0.0765
 1339ERGO   ROH17771   7.071   9.298   6.665  0.1758  0.1152 -0.0586
 1339ERGO    R117772   7.146   9.265   6.936  0.2127  0.0636 -0.0757
 1339ERGO    R217773   7.402   9.198   7.013  0.2509  0.1741 -0.1195
 1339ERGO    R317774   7.381   9.421   7.167  0.1471  0.1101 -0.0382
 1339ERGO    R417775   7.570   9.248   7.311  0.4176  0.2360 -0.2213
 1339ERGO    R517776   7.388   9.338   7.392  0.3829  0.0427 -0.0646
 1339ERGO    C117777   7.647   9.487   7.629  0.4171  0.2121 -0.2042
 1339ERGO    C217778   7.686   9.492   7.979 -0.2222  0.0961  0.1808
 1340ERGO   ROH17779   9.941  15.784   6.571  0.0519  0.1038  0.1820
 1340ERGO    R117780   9.880  15.767   6.847 -0.0522 -0.3252  0.1408
 1340ERGO    R217781   9.946  15.547   7.001  0.6100 -0.2544 -0.0080
 1340ERGO    R317782  10.067  15.734   7.157 -0.0893  0.0519  0.2076
 1340ERGO    R417783  10.020  15.508   7.337  0.5957 -0.2849 -0.0087
 1340ERGO    R517784   9.959  15.714   7.370 -0.1321 -0.4987  0.1464
 1340ERGO    C117785  10.177  15.660   7.678 -0.0691 -0.0150  0.1932
 1340ERGO    C217786  10.199  15.629   8.005  0.1369 -0.0700 -0.1276
 1341ERGO   ROH17787  13.964  12.593   6.496  0.0484 -0.0351  0.1309
 1341ERGO    R117788  14.062  12.522   6.752 -0.0361 -0.0566  0.1580
 1341ERGO    R217789  14.072  12.700   6.963 -0.0400 -0.0530  0.1580
 1341ERGO    R317790  13.930  12.507   7.091 -0.1277 -0.0113  0.1238
 1341ERGO    R417791  14.065  12.655   7.305  0.0281 -0.1857  0.1423
 1341ERGO    R517792  14.072  12.440   7.272 -0.1211 -0.1755  0.0564
 1341ERGO    C117793  13.928  12.447   7.625 -0.0146 -0.2238  0.1011
 1341ERGO    C217794  13.843  12.596   7.829  0.1747  0.0337  0.0502
 1342ERGO   ROH17795  16.760  10.802  10.191 -0.0104  0.3644  0.1507
 1342ERGO    R117796  16.767  10.973   9.966 -0.0832  0.2216  0.0398
 1342ERGO    R217797  17.002  11.079   9.865 -0.1223  0.1870 -0.0793
 1342ERGO    R317798  16.915  10.967   9.633 -0.1589  0.0312  0.0073
 1342ERGO    R417799  17.166  11.098   9.562 -0.1129 -0.0967 -0.0961
 1342ERGO    R517800  16.974  11.126   9.464 -0.1088 -0.1129 -0.1174
 1342ERGO    C117801  17.181  11.005   9.168 -0.1418 -0.4082 -0.0244
 1342ERGO    C217802  17.262  11.056   8.808 -0.3336 -0.1266 -0.1022
 1343ERGO   ROH17803   2.825  10.894   9.912  0.1287  0.0535 -0.2036
 1343ERGO    R117804   2.849  10.704   9.704 -0.1129 -0.0462 -0.1416
 1343ERGO    R217805   2.635  10.626   9.548 -0.1756  0.3191 -0.2327
 1343ERGO    R317806   2.799  10.698   9.344  0.0744 -0.0420 -0.1714
 1343ERGO    R417807   2.642  10.472   9.239 -0.5677  0.4149 -0.2964
 1343ERGO    R517808   2.860  10.490   9.241 -0.4920 -0.1957 -0.2477
 1343ERGO    C117809   2.800  10.451   8.866 -0.5613  0.1318 -0.2758
 1343ERGO    C217810   2.835  10.411   8.525  0.1175 -0.2671 -0.0506
 1344ERGO   ROH17811   9.338   9.404   6.619 -0.0078 -0.0498 -0.0642
 1344ERGO    R117812   9.101   9.468   6.761  0.0153 -0.0500 -0.0242
 1344ERGO    R217813   8.997   9.304   6.958  0.1013 -0.0081  0.0598
 1344ERGO    R317814   9.011   9.530   7.108  0.0958  0.0487 -0.0192
 1344ERGO    R417815   8.789   9.377   7.224  0.1307  0.0499  0.0662
 1344ERGO    R517816   8.782   9.584   7.155  0.0917  0.0314 -0.0053
 1344ERGO    C117817   8.680   9.632   7.519  0.1426  0.1371 -0.0042
 1344ERGO    C217818   8.534   9.717   7.799 -0.1620  0.0545  0.1909
 1345W        W17819  16.037   6.115  12.508 -0.1595 -0.2701 -0.2149
 1346W        W17820  10.542   7.862   5.200  0.3155 -0.1780 -0.0842
 1347W        W17821  17.914   4.541  13.895  0.2518 -0.3039 -0.2248
 1348W        W17822   8.704   5.362  14.067 -0.4538  0.0112 -0.0866
 1349W        W17823   1.600   8.619  13.818  0.0464  0.1286  0.1429
 1350W        W17824  11.239   0.696   0.317 -0.0395 -0.1823  0.0443
 1351W        W17825  12.992   5.462   1.831  0.0948  0.2490  0.0264
 1352W        W17826   0.272  12.979   4.778  0.4016 -0.1435  0.2220
 1353W        W17827   9.927  14.199  14.491  0.3328 -0.1966 -0.1146
 1354W        W17828   8.364   0.392  12.605 -0.0861 -0.1685  0.0458
 1355W        W17829  15.764   2.929   2.206  0.1629 -0.1991 -0.4369
 1356W        W17830   1.555  16.826   0.800  0.1696  0.1983 -0.0814
 1357W        W17831   7.901   9.871  14.822  0.0622 -0.1899 -0.0415
 1358W        W17832   1.244   6.605   0.386 -0.5102  0.0375 -0.1434
 1359W        W17833  16.388   8.449  12.866 -0.0148 -0.2462  0.3304
 1360W        W17834  11.937   6.985   3.802  0.1336  0.2860  0.1164
 1361W        W17835   2.877  10.601   1.439 -0.1814  0.1835  0.1297
 1362W        W17836  12.741   1.426  12.024  0.0846 -0.0909 -0.1320
 1363W        W17837  16.200   8.228   1.605  0.0043  0.0324 -0.0800
 1364W        W17838  17.346   4.556  12.766 -0.1323 -0.4828 -0.2792
 1365W        W17839   3.643  10.525  13.204  0.0972  0.1480 -0.1554
 1366W        W17840  15.323  16.642   3.479  0.0120  0.2971  0.0429
 1367W        W17841  13.834   9.962  12.916 -0.0814 -0.0287  0.3569
 1368W        W17842   0.282   0.402  12.205  0.1465 -0.2262 -0.3174
 1369W        W17843   6.050  15.314  10.739 -0.1493 -0.1378 -0.0018
 1370W        W17844  10.795   4.235  15.492  0.1712  0.0540 -0.0334
 1371W        W17845   8.440  14.060   5.968 -0.1224  0.1864 -0.0996
 1372W        W17846  11.851   7.882  13.820  0.1579 -0.1289  0.3179
 1373W        W17847  17.933  12.780  16.045 -0.0390  0.0020  0.1256
 1374W        W17848   0.301  16.731  13.956  0.1622  0.1357 -0.4256
 1375W        W17849  13.437   6.492   1.553 -0.0068 -0.1420  0.2738
 1376W        W17850  15.098   6.943  12.864  0.1506  0.1284 -0.0992
 1377W        W17851   2.932  13.583  11.510 -0.0121  0.2611  0.2858
 1378W        W17852  12.199   9.362  12.532 -0.0814  0.0628 -0.0361
 1379W        W17853   2.797  16.963   2.281  0.0043  0.1340  0.4756
 1380W        W17854   9.588  16.408   0.146 -0.1016  0.2716 -0.1022
 1381W        W17855  12.195  17.423   4.549 -0.0272 -0.1160  0.0065
 1382W        W17856  15.750   3.556   1.262  0.3266 -0.3841  0.1387
 1383W        W17857   6.709   3.683   3.563  0.2714  0.4994  0.0632
 1384W        W17858  12.653  12.442   5.273 -0.1309 -0.1469 -0.6395
 1385W        W17859   7.209   7.820   2.503 -0.3007  0.2144 -0.2898
 1386W        W17860   9.401   8.054   3.053  0.1928  0.2787  0.0835
 1387W        W17861   0.168  17.912   2.760  0.1671  0.0817 -0.1005
 1388W        W17862   9.005  11.513   2.904  0.2290  0.3282 -0.1902
 1389W        W17863   4.822  16.802  12.980 -0.1109  0.0068 -0.0091
 1390W        W17864   1.350  15.577   1.379  0.0534  0.0262  0.4500
 1391W        W17865  14.101   3.943  15.364  0.0872  0.0789  0.0164
 1392W        W17866   6.153   1.980   5.989  0.1417  0.1831  0.0273
 1393W        W17867   6.331   2.886  11.325 -0.2676  0.0478 -0.0487
 1394W        W17868  11.047  15.737   5.222 -0.0591 -0.1899  0.2887
 1395W        W17869   1.927  11.860   1.737  0.2227 -0.2695  0.1391
 1396W        W17870  10.490  11.063   4.427  0.0594 -0.3490  0.0075
 1397W        W17871  11.621   8.601   4.084  0.1350 -0.5237 -0.1363
 1398W        W17872   7.675   5.330   3.495 -0.0331  0.0295 -0.0933
 1399W        W17873   3.859   1.234  12.723  0.0575  0.0381 -0.2457
 1400W        W17874   0.175   2.375   5.057  0.3529  0.3158  0.3326
 1401W        W17875  15.125   4.363   4.183 -0.1923  0.0161 -0.3756
 1402W        W17876  13.501  17.742   0.976 -0.2919  0.1640  0.3202
 1403W        W17877   3.098  15.444  13.326  0.1404  0.1721  0.1527
 1404W        W17878   0.764  14.969   3.711  0.0595  0.1842 -0.1289
 1405W        W17879  13.204   6.880   2.141  0.0509 -0.0919 -0.0699
 1406W        W17880   2.405   2.993   4.774  0.0509 -0.0417  0.1494
 1407W        W17881   6.807   6.090   1.937 -0.0673 -0.0364 -0.1877
 1408W        W17882  13.201   4.095   5.745 -0.1601 -0.2618  0.2566
 1409W        W17883  10.575  14.982   4.648 -0.0627  0.1140  0.0859
 1410W        W17884   4.538  16.699   5.494  0.2978  0.1896 -0.1430
 1411W        W17885  12.667  17.311   3.698  0.1812 -0.3049  0.1562
 1412W        W17886  10.831  12.436   2.259  0.3779  0.1167 -0.1533
 1413W        W17887  17.278  10.975  13.666  0.3448 -0.0498 -0.1268
 1414W        W17888  17.357   8.098   3.832 -0.1016  0.1578  0.2776
 1415W        W17889  14.298   7.489  12.050 -0.2226 -0.1616 -0.0541
 1416W        W17890  10.175  15.528   2.256 -0.0237  0.2694  0.1218
 1417W        W17891   7.158  15.932   4.816  0.1910 -0.0022 -0.1019
 1418W        W17892   0.457  14.600   1.629 -0.1181  0.0325  0.0390
 1419W        W17893   1.474  12.217   0.676 -0.1210 -0.3175 -0.0650
 1420W        W17894   1.800   6.312  16.653 -0.3189  0.1737 -0.1214
 1421W        W17895  15.187  11.471   1.769 -0.1907 -0.0351  0.3094
 1422W        W17896  14.141  15.998   0.842 -0.0935 -0.1754  0.1172
 1423W        W17897   3.559   8.010  13.835  0.1110  0.4862  0.0168
 1424W        W17898  16.087  12.696   1.742  0.2201  0.1298  0.2350
 1425W        W17899  11.599  12.239  13.550  0.2921  0.0647  0.0436
 1426W        W17900   1.608   4.731   0.254  0.1639 -0.5411 -0.0097
 1427W        W17901   4.446   7.688  12.833  0.0449 -0.0291 -0.1640
 1428W        W17902  14.616  12.637   3.520 -0.1912 -0.2700 -0.0007
 1429W        W17903   1.109   2.229   4.658 -0.0288  0.2980  0.0574
 1430W        W17904   6.303  11.366  16.762 -0.0712  0.1086 -0.3465
 1431W        W17905   0.101  17.642   1.003  0.0337  0.0193  0.0630
 1432W        W17906   0.098   6.662  13.656 -0.1694 -0.2390 -0.3153
 1433W        W17907   7.092   7.080   5.117 -0.0119  0.5709 -0.1917
 1434W        W17908   8.785  14.806  15.008  0.2048  0.1340 -0.1200
 1435W        W17909   5.961   4.047   3.928  0.0619 -0.0788  0.2899
 1436W        W17910   8.650  16.351   5.198 -0.1316 -0.0105  0.1564
 1437W        W17911  15.628   4.094   2.015 -0.1209 -0.0438  0.2839
 1438W        W17912   9.926  17.670  14.381 -0.1744 -0.1653  0.1180
 1439W        W17913  17.968  13.320  12.746  0.1504  0.0851 -0.1687
 1440W        W17914   9.081  15.321  14.143 -0.2313 -0.0559 -0.3304
 1441W        W17915  14.493   8.589  16.425  0.3228  0.0523 -0.1956
 1442W        W17916  10.884   5.225   1.682  0.0118 -0.2512 -0.2119
 1443W        W17917  16.464   4.191   0.311 -0.1658 -0.5043  0.1726
 1444W        W17918  12.122   3.389  12.669 -0.0461  0.0569 -0.0179
 1445W        W17919   6.497  14.761   4.825 -0.0312  0.1854  0.0813
 1446W        W17920   6.604  14.871  12.925 -0.0983  0.4107  0.1793
 1447W        W17921  15.764  13.443   4.091 -0.0486  0.0810  0.0376
 1448W        W17922   3.085   7.367   4.808  0.1870 -0.2900 -0.0237
 1449W        W17923  14.536   4.900   2.712  0.0603 -0.0060 -0.1426
 1450W        W17924  14.813  14.491  12.698  0.1698  0.0958 -0.0050
 1451W        W17925   6.236   6.058  15.404 -0.0741  0.0180  0.1228
 1452W        W17926   1.309   9.800   4.009  0.1097 -0.0102 -0.0104
 1453W        W17927  17.881   0.891   6.226 -0.0140  0.2080  0.1026
 1454W        W17928   5.298   9.691   0.108  0.1760 -0.2275 -0.0315
 1455W        W17929   6.076  11.095  13.415 -0.1736  0.0473 -0.0861
 1456W        W17930  15.802   6.193   3.254 -0.1471 -0.0342  0.0124
 1457W        W17931   3.206   0.406   3.370  0.0221  0.4135  0.3468
 1458W        W17932  15.079   0.945   0.583 -0.0619  0.1368 -0.0088
 1459W        W17933  11.734  10.482   1.667 -0.0788 -0.0453  0.4076
 1460W        W17934   8.759  15.459   1.505 -0.0060 -0.2862 -0.0093
 1461W        W17935  15.109   4.722   2.530  0.1977 -0.1245  0.0385
 1462W        W17936  10.931  14.529   4.870  0.2940  0.0177  0.1530
 1463W        W17937   2.971  17.921  12.444  0.0238 -0.1642  0.0604
 1464W        W17938   0.608  10.059   3.271  0.3098 -0.0526 -0.2152
 1465W        W17939  16.433  15.585  13.418 -0.2286  0.3217 -0.2768
 1466W        W17940  14.125  15.517  13.699  0.0752  0.0273  0.1953
 1467W        W17941   4.778   7.081  14.363 -0.0713  0.0852  0.0385
 1468W        W17942  11.662  15.046   0.568  0.4924 -0.2911  0.1039
 1469W        W17943   8.565  17.987   3.303 -0.0394  0.1544 -0.0611
 1470W        W17944  11.153  12.409   0.136  0.1181  0.0078 -0.1907
 1471W        W17945  12.426   7.753   1.055  0.2472 -0.1156 -0.2340
 1472W        W17946   3.441  13.550  12.142 -0.2306 -0.1989  0.0766
 1473W        W17947   1.255   4.100   3.634 -0.0334 -0.0031  0.1135
 1474W        W17948  16.143   0.363  13.057  0.0853 -0.1735  0.1151
 1475W        W17949  12.224  14.786   2.376  0.2351  0.2036  0.2264
 1476W        W17950   2.544  13.456  11.106  0.0395 -0.0391  0.0033
 1477W        W17951   2.837  15.684   4.078 -0.2391  0.0190 -0.1873
 1478W        W17952  12.695  11.959   0.006  0.0823 -0.1035 -0.1368
 1479W        W17953  14.377   7.841   3.247  0.4130 -0.0399 -0.2088
 1480W        W17954  15.523   0.517  14.593  0.1256 -0.0793 -0.1444
 1481W        W17955   4.736   2.228  12.591  0.0285  0.2150  0.1504
 1482W        W17956   9.093   7.152   2.231 -0.0509  0.0584 -0.0015
 1483W        W17957   9.511  12.868  14.767 -0.1103 -0.2266 -0.3192
 1484W        W17958   5.230  13.364   2.997 -0.0137  0.0699  0.0631
 1485W        W17959  15.615   8.679   3.259  0.2466 -0.1580  0.0314
 1486W        W17960  17.847   6.765   4.412  0.0665  0.0441 -0.0331
 1487W        W17961   2.842  11.666  12.246  0.2156 -0.1316 -0.0163
 1488W        W17962   0.397  14.137  12.830 -0.1080  0.1435 -0.0874
 1489W        W17963   6.882   9.317  14.672  0.1045  0.0265 -0.2174
 1490W        W17964  16.472  13.999  14.570  0.1919 -0.1640  0.0666
 1491W        W17965  13.988   4.870  11.939  0.1869 -0.2323 -0.0246
 1492W        W17966   8.469  12.719  15.906  0.0507  0.0406 -0.0130
 1493W        W17967   3.131   1.542   2.731  0.0457 -0.0749  0.2173
 1494W        W17968   1.155   2.540  15.265  0.2882  0.1102  0.0766
 1495W        W17969  13.546  12.280  14.759  0.0557  0.1134  0.2467
 1496W        W17970  15.553  12.669  16.681  0.2621 -0.0202 -0.0763
 1497W        W17971   8.897   0.435  16.210 -0.2848  0.0585  0.0898
 1498W        W17972  10.088  16.965  12.263  0.1780  0.4076  0.0549
 1499W        W17973   1.198   4.367  12.017 -0.0586  0.0040 -0.0363
 1500W        W17974   1.787   6.017   3.001 -0.0675  0.0600  0.0646
 1501W        W17975   9.179   9.298  14.430  0.2675  0.1505 -0.0681
 1502W        W17976   0.133  12.056   0.981 -0.2903 -0.1582  0.0166
 1503W        W17977  16.205  14.024  14.077  0.3018  0.2550  0.0662
 1504W        W17978   6.728   4.293   0.719  0.3058 -0.4715 -0.0985
 1505W        W17979  13.060   5.913   0.041  0.0329 -0.1313  0.3129
 1506W        W17980   0.636   7.209   4.004  0.2136 -0.2195 -0.0968
 1507W        W17981   3.936   5.091  13.378  0.0657  0.0054  0.2210
 1508W        W17982  17.565  15.808   2.962 -0.0230 -0.0886  0.0149
 1509W        W17983   0.068   8.732   0.225  0.0454 -0.1959 -0.3013
 1510W        W17984   3.488  17.334  15.115 -0.0093 -0.0305  0.0650
 1511W        W17985  13.374  15.689  13.568 -0.1029  0.2282  0.1854
 1512W        W17986   1.087  13.842   4.496  0.0656  0.1021  0.2356
 1513W        W17987   2.613   1.466   2.896  0.0041  0.1047  0.1327
 1514W        W17988   1.467   7.382   3.183  0.0011 -0.1450  0.0193
 1515W        W17989  12.658  12.406  14.527  0.2632 -0.1627 -0.3569
 1516W        W17990  10.381  16.511   3.141 -0.0419 -0.0713  0.0325
 1517W        W17991  17.023  15.144  11.820 -0.0529  0.1395  0.5448
 1518W        W17992   1.424   6.396   2.171 -0.1634  0.5461  0.0463
 1519W        W17993  15.252  17.336  14.684 -0.2176  0.0584 -0.0762
 1520W        W17994   8.425  12.974  13.063 -0.0452  0.0142  0.1797
 1521W        W17995  12.449  15.558   3.032  0.1668 -0.0806 -0.0781
 1522W        W17996  12.288   9.744   0.231 -0.1970  0.0464 -0.2118
 1523W        W17997   2.373   2.387  16.478 -0.1087 -0.2813  0.0478
 1524W        W17998  15.592   5.066  16.558 -0.1915 -0.1132  0.0309
 1525W        W17999   3.699   7.546  13.986  0.1699 -0.2380 -0.1239
 1526W        W18000  11.405   6.043   0.676 -0.0507  0.1264 -0.2088
 1527W        W18001   1.955   9.784  15.193  0.1078 -0.3723  0.2539
 1528W        W18002   4.811   4.320   1.094  0.0240 -0.1433 -0.0544
 1529W        W18003  10.375   3.237   5.727  0.2440 -0.2027 -0.0815
 1530W        W18004   9.149  14.831  14.673 -0.1033  0.2197  0.0841
 1531W        W18005   8.204   1.645   1.060  0.1088  0.2862 -0.1770
 1532W        W18006   7.250   3.543   1.589  0.2069 -0.1059 -0.0026
 1533W        W18007   6.771   2.092   4.439  0.1622  0.0068  0.1189
 1534W        W18008   2.271  11.290  12.150 -0.1316 -0.0042 -0.3193
 1535W        W18009   2.524  13.837   0.549  0.1612  0.1514  0.3060
 1536W        W18010   9.796  15.037  13.484  0.0267 -0.0613  0.0473
 1537W        W18011   6.229  14.266   2.911  0.2848 -0.0527 -0.0677
 1538W        W18012  15.184   4.894   4.046  0.1864 -0.1438 -0.3517
 1539W        W18013   3.652   8.579  12.413 -0.0470  0.1745  0.0775
 1540W        W18014   7.982   8.616  13.994 -0.1366 -0.1746 -0.3619
 1541W        W18015   0.802   5.380   0.045  0.0889 -0.1770 -0.0376
 1542W        W18016   6.791  17.941  12.709 -0.0104 -0.3374 -0.1864
 1543W        W18017   4.655  16.643   4.913 -0.0408 -0.1907  0.0830
 1544W        W18018   5.983   7.590  12.781 -0.1605  0.1388  0.2376
 1545W        W18019   2.571  14.721  15.809  0.2718 -0.2877 -0.0541
 1546W        W18020  16.500  13.615  13.356 -0.3254 -0.0965  0.2524
 1547W        W18021   6.933  11.611   2.304 -0.1929 -0.0920 -0.0595
 1548W        W18022  15.775   8.269   2.898  0.2964  0.1679  0.3338
 1549W        W18023   4.860   2.213   5.148 -0.1241 -0.2504 -0.1218
 1550W        W18024  15.051   6.989   3.558 -0.1620  0.2991 -0.0315
 1551W        W18025  11.371   2.476  10.899  0.1110  0.0392  0.0086
 1552W        W18026   6.153   1.664  12.858  0.0172  0.1397  0.2343
 1553W        W18027   0.000  12.590   4.967  0.1503  0.2866  0.3943
 1554W        W18028   0.896   2.137  13.663  0.0863 -0.0223  0.1132
 1555W        W18029   5.457   0.245   5.155 -0.4599 -0.0195  0.1669
 1556W        W18030   5.873  15.862   4.792 -0.1078  0.3828 -0.1211
 1557W        W18031   6.800   1.166   1.022  0.2371 -0.1626 -0.0468
 1558W        W18032   1.616   2.175   1.964 -0.0523  0.1471 -0.1654
 1559W        W18033   0.919  13.376  12.189  0.0206 -0.3734 -0.0157
 1560W        W18034  11.562  13.757  13.201 -0.0482 -0.1366 -0.0562
 1561W        W18035  12.708  16.405  14.478 -0.2324  0.1467  0.0086
 1562W        W18036   8.509   3.483   4.130  0.1036 -0.0641 -0.2609
 1563W        W18037   2.040   2.653  15.664  0.0927 -0.2590  0.1803
 1564W        W18038   4.607   1.649   5.149 -0.0147  0.0987 -0.0562
 1565W        W18039  11.764   0.767   1.918 -0.2387 -0.0501 -0.2101
 1566W        W18040   5.679   9.342  14.174  0.1388 -0.0331  0.0278
 1567W        W18041   7.115  12.912  13.780 -0.2153 -0.1376  0.1916
 1568W        W18042  17.025   8.673  15.617  0.0658 -0.0343  0.2643
 1569W        W18043   0.254  15.323   2.077  0.3203 -0.1708  0.3743
 1570W        W18044  17.257   5.535  15.509  0.0340 -0.0653  0.1885
 1571W        W18045   0.710  14.421   0.462 -0.1578 -0.1500 -0.0850
 1572W        W18046  15.559  10.549   2.690 -0.1613 -0.2620  0.2874
 1573W        W18047  16.339  16.124  11.972  0.1305 -0.3038  0.1431
 1574W        W18048   0.712  17.359  13.090  0.1444 -0.0413  0.1417
 1575W        W18049   7.989   5.285   5.215 -0.0562 -0.3144  0.0318
 1576W        W18050  15.571  10.572  13.322 -0.1683 -0.0957 -0.1549
 1577W        W18051  16.007   5.440  12.860  0.0843 -0.0246  0.2840
 1578W        W18052   9.683   5.909   6.473  0.0748  0.2538  0.1378
 1579W        W18053   0.576   2.775  14.990  0.2035 -0.3018  0.1422
 1580W        W18054   2.698   4.664  12.102 -0.4286  0.0053  0.0368
 1581W        W18055  17.434  15.677  16.127  0.1447  0.0158  0.1659
 1582W        W18056  15.373  17.095  15.136 -0.1963 -0.3611  0.0355
 1583W        W18057   8.561   0.674  11.517 -0.3670 -0.1250 -0.3731
 1584W        W18058  11.382   9.765  15.639  0.2251 -0.2767  0.0780
 1585W        W18059   7.708  15.640   3.798 -0.0160  0.0560  0.4649
 1586W        W18060   3.688   0.861  15.362  0.2876 -0.1336 -0.0485
 1587W        W18061   6.879  11.763  13.179 -0.0751 -0.2879  0.0408
 1588W        W18062   3.097  14.704   3.114  0.2255  0.1222  0.3081
 1589W        W18063   5.013   8.712   3.691  0.0989 -0.0762  0.1562
 1590W        W18064  17.712   3.781   3.028  0.2597 -0.1192 -0.0479
 1591W        W18065   8.410  12.686   4.062 -0.0558 -0.1372 -0.2727
 1592W        W18066   9.714  13.692   6.266 -0.1467  0.3417 -0.0757
 1593W        W18067   2.632  17.559  12.769  0.2918  0.1207  0.1564
 1594W        W18068   9.299   4.601  16.633 -0.3003 -0.1931 -0.0385
 1595W        W18069   5.031  15.636   1.453 -0.0710  0.1776 -0.0065
 1596W        W18070   3.841  17.018   2.201  0.0328 -0.2225 -0.1861
 1597W        W18071   9.183  14.366  11.946  0.1986 -0.1210  0.2723
 1598W        W18072   9.314   8.418  14.689 -0.0621 -0.0520  0.2398
 1599W        W18073   7.582  17.141   0.585  0.2806  0.1017  0.0506
 1600W        W18074  11.649  14.937   5.543  0.2734 -0.1409 -0.1742
 1601W        W18075  13.979   8.663   1.121  0.0717 -0.3101 -0.2811
 1602W        W18076   5.400  13.001   3.334 -0.2202  0.1241 -0.0942
 1603W        W18077  13.871   7.919  14.952  0.0250 -0.2237  0.0640
 1604W        W18078   4.596  14.624   2.163 -0.0968 -0.0361 -0.1556
 1605W        W18079   9.461   9.775  14.857 -0.0417 -0.1361  0.0963
 1606W        W18080  12.960  16.158   1.352 -0.0409 -0.1319 -0.2733
 1607W        W18081   0.287  16.770   2.947 -0.0756  0.2784 -0.0056
 1608W        W18082   2.160  11.826  16.010  0.4838  0.1172  0.0291
 1609W        W18083   7.554  17.609   0.895 -0.1685 -0.2156 -0.1648
 1610W        W18084  15.450  15.789  14.350 -0.1591 -0.1742  0.0295
 1611W        W18085   5.335  14.168   3.796  0.1252  0.0345 -0.0152
 1612W        W18086   5.253   0.368  16.367  0.0994 -0.0938  0.0750
 1613W        W18087   8.499  14.049   4.529  0.0044  0.4041  0.0249
 1614W        W18088   8.823   2.656  12.338  0.0549 -0.1534 -0.0340
 1615W        W18089  13.473   6.020  11.790  0.3525 -0.2154  0.1444
 1616W        W18090  15.158  11.800  13.558 -0.1606 -0.1885  0.0009
 1617W        W18091   8.814  17.653   1.447 -0.1097 -0.1555  0.0858
 1618W        W18092   5.293   3.118  12.549  0.2482 -0.3215  0.2066
 1619W        W18093  17.248   1.363   2.236 -0.2762  0.1372 -0.2729
 1620W        W18094  11.963   0.395   4.406  0.2282 -0.1306 -0.3477
 1621W        W18095   8.606  13.373  13.305  0.0990 -0.2173 -0.2475
 1622W        W18096  17.469   8.763  11.492 -0.1674  0.0788 -0.1256
 1623W        W18097   0.762  14.191  16.634  0.2348  0.1281  0.2040
 1624W        W18098  13.061   8.304  14.551  0.1302 -0.2726 -0.1814
 1625W        W18099  14.625   6.979  15.155 -0.0950  0.0741 -0.2837
 1626W        W18100  12.573   5.278   1.614 -0.0742 -0.0171 -0.0465
 1627W        W18101   9.678  10.574  11.533 -0.2132  0.0386 -0.1828
 1628W        W18102  14.801  10.215   4.267 -0.2561 -0.0227 -0.1959
 1629W        W18103   9.202   3.924   5.088 -0.0992 -0.3544  0.1743
 1630W        W18104  12.687  11.164  13.655  0.1915  0.0517 -0.4070
 1631W        W18105  12.541  14.815  12.439  0.0718  0.0481 -0.0088
 1632W        W18106   5.952  14.775   0.003 -0.1694  0.0349  0.1401
 1633W        W18107  16.063   9.702   3.028  0.0416 -0.1353 -0.2926
 1634W        W18108  10.700  12.918   0.804  0.1704 -0.0641 -0.1417
 1635W        W18109   9.306  17.274  12.379 -0.1109  0.1545  0.3716
 1636W        W18110   8.387  13.854   4.003  0.0604 -0.3393  0.1785
 1637W        W18111  17.235  15.358  16.487  0.0224 -0.0771 -0.0541
 1638W        W18112  10.565   5.559   3.747  0.2820  0.1860  0.2865
 1639W        W18113   8.470  14.986   0.780  0.1850  0.2221 -0.3513
 1640W        W18114   5.319   0.668  13.172  0.0556 -0.0608  0.1265
 1641W        W18115  16.144  10.957   3.115  0.1106 -0.0902  0.1188
 1642W        W18116  12.421  11.836   2.700 -0.0207  0.0622 -0.0508
 1643W        W18117   5.215  11.099   1.504  0.1891 -0.0023  0.1451
 1644W        W18118   4.378  13.279   4.150 -0.0529 -0.0298 -0.2651
 1645W        W18119  12.714   1.987  13.879  0.2236 -0.1586 -0.1817
 1646W        W18120  15.959   4.204  15.307  0.1351  0.0304  0.1250
 1647W        W18121  14.313  11.026  12.122 -0.0762  0.2029 -0.2661
 1648W        W18122  10.167  16.678  14.233  0.2541 -0.3301  0.3437
 1649W        W18123   8.620   1.204  14.822 -0.1623 -0.0267 -0.0052
 1650W        W18124  14.855  12.375  11.562  0.0015 -0.3803 -0.0739
 1651W        W18125   6.929   5.951  16.732 -0.2216 -0.0900  0.0352
 1652W        W18126  14.394  11.513   2.920  0.0497  0.1416  0.1025
 1653W        W18127   7.264   9.883  14.516 -0.0763 -0.0520  0.0521
 1654W        W18128   6.798   6.786  14.419  0.0467  0.1512  0.0467
 1655W        W18129   9.456   9.093  13.049 -0.0949  0.2688  0.1535
 1656W        W18130  10.645   3.079  15.335  0.1357 -0.2038  0.0579
 1657W        W18131   1.714   6.653   0.210  0.0943  0.0316 -0.0888
 1658W        W18132  13.339   5.266  14.382 -0.0227  0.0560  0.1609
 1659W        W18133   5.656  11.457  12.744 -0.2411 -0.1179 -0.1557
 1660W        W18134  15.581   4.560  14.551 -0.1358  0.1838 -0.5080
 1661W        W18135   4.383  12.754  15.000 -0.1828  0.0319  0.1738
 1662W        W18136  15.728   9.471   3.545 -0.0052 -0.2384 -0.1842
 1663W        W18137   1.399  17.250   3.621  0.1043  0.0869  0.0454
 1664W        W18138   8.369  11.621  11.453  0.0672  0.0658 -0.0245
 1665W        W18139  13.217  10.435  13.360 -0.2461 -0.4089  0.3946
 1666W        W18140  16.442  11.196  16.434 -0.1458 -0.0687  0.2257
 1667W        W18141  17.802   5.549   4.877 -0.1585 -0.0539 -0.2805
 1668W        W18142  11.859  17.516  13.464  0.0285  0.2490 -0.2969
 1669W        W18143   4.825   9.863  11.189 -0.1869  0.0909 -0.0923
 1670W        W18144   8.220  13.609   3.019  0.1121  0.0018  0.0342
 1671W        W18145   4.964  16.691   5.247  0.0240 -0.0473 -0.0042
 1672W        W18146  12.685   2.575  12.287  0.1368 -0.0597 -0.2573
 1673W        W18147   4.683   3.043   5.007  0.0836  0.3821 -0.1189
 1674W        W18148  14.012  13.593   1.736 -0.0008 -0.2312  0.0649
 1675W        W18149  12.909  16.006  13.772 -0.3791 -0.1138  0.0147
 1676W        W18150   2.101   1.781  13.891  0.2831 -0.0553 -0.1827
 1677W        W18151   5.163  15.129  10.382 -0.0235 -0.1407  0.0497
 1678W        W18152  13.907  14.046   2.014 -0.0173  0.0940  0.1212
 1679W        W18153  13.793  17.428   1.367  0.0451  0.0307  0.2612
 1680W        W18154  17.336   0.124   6.718 -0.1064 -0.3467  0.0543
 1681W        W18155  17.627   2.862   2.719  0.1789 -0.2910  0.0432
 1682W        W18156   2.947  15.753  14.461  0.0895  0.4012 -0.0771
 1683W        W18157  15.020  16.320   1.937  0.1583  0.0044 -0.2330
 1684W        W18158   6.450  18.000   2.137 -0.0455  0.0241 -0.0572
 1685W        W18159  16.557   6.702   3.718 -0.0104 -0.2514 -0.0859
 1686W        W18160   5.365   5.797  16.589 -0.4107 -0.0419  0.1215
 1687W        W18161  10.765   1.797  13.833  0.1193  0.0295 -0.0127
 1688W        W18162  10.020   2.877   5.348 -0.0056 -0.1264  0.0693
 1689W        W18163  11.185   5.852  15.059  0.1996 -0.0171  0.1673
 1690W        W18164   7.693  14.272   4.488 -0.2462  0.1064 -0.0462
 1691W        W18165   3.040   2.586  11.444  0.1918  0.0135 -0.0641
 1692W        W18166   3.514   5.973  15.062 -0.1901 -0.0567 -0.1579
 1693W        W18167  10.424  14.785  14.356 -0.2036  0.2028  0.2623
 1694W        W18168  12.270  16.380   0.241 -0.1437 -0.2342 -0.0782
 1695W        W18169   3.438   5.535  14.788 -0.1011  0.0538  0.0279
 1696W        W18170   7.673   4.241  11.833  0.1860  0.3167  0.5179
 1697W        W18171  16.601  10.241  16.581 -0.2133 -0.1365  0.3105
 1698W        W18172   5.709   9.605   0.835 -0.0038 -0.0348 -0.1856
 1699W        W18173  16.700   3.392  14.576 -0.2608  0.0905  0.0264
 1700W        W18174  15.773  16.628  12.884 -0.2465  0.2111  0.0208
 1701W        W18175   2.663   7.742  12.814  0.1240 -0.0417  0.1566
 1702W        W18176   6.135   9.364  12.371 -0.0028  0.1453  0.0086
 1703W        W18177  15.179  10.505   3.416  0.1404  0.0071  0.0359
 1704W        W18178  15.171   5.804   4.243  0.0217 -0.0470  0.0473
 1705W        W18179   7.589   4.488   2.165  0.0595  0.1354 -0.3693
 1706W        W18180   8.585  16.177   3.411 -0.0056 -0.1579  0.0163
 1707W        W18181   0.196  13.354   3.495 -0.1260  0.0889 -0.3909
 1708W        W18182   3.651   0.638   5.124 -0.1985 -0.0120 -0.1139
 1709W        W18183  15.110  17.799   3.851 -0.1846  0.2073  0.1465
 1710W        W18184  13.053   4.616   5.244 -0.0895 -0.2710 -0.1380
 1711W        W18185   4.873   8.249   3.470 -0.1548 -0.1019 -0.0221
 1712W        W18186   0.592  10.266   1.082 -0.1098 -0.3273  0.0029
 1713W        W18187  16.798  10.992   1.621 -0.2199  0.1322 -0.0611
 1714W        W18188  11.872  17.036   3.879  0.0139 -0.0428 -0.1530
 1715W        W18189   8.534   3.779   1.931 -0.2187 -0.2998  0.2152
 1716W        W18190   1.204   0.725  12.350  0.0704 -0.2107 -0.2425
 1717W        W18191   7.371   4.133  15.345  0.2989 -0.0539  0.1478
 1718W        W18192  10.066   9.031  12.480 -0.0733 -0.0172 -0.0050
 1719W        W18193  16.123   6.818  12.024 -0.1489 -0.2312 -0.3644
 1720W        W18194   4.767   1.570  14.798 -0.0371 -0.1094  0.0891
 1721W        W18195  11.888   9.150  13.956  0.2299  0.2777  0.2204
 1722W        W18196   7.412   0.355   4.542  0.1272  0.1623 -0.0661
 1723W        W18197   5.149   3.431   2.719  0.0956  0.1762  0.3008
 1724W        W18198   4.283   8.776   4.413 -0.2735 -0.0138 -0.0784
 1725W        W18199  12.386   8.948   0.309 -0.0061 -0.0548 -0.0969
 1726W        W18200   5.516  16.484  13.430 -0.0947 -0.0235 -0.2452
 1727W        W18201   0.403   3.726  14.998  0.0438  0.2407 -0.3100
 1728W        W18202   1.775   1.788   5.059 -0.0691 -0.1068  0.0786
 1729W        W18203   2.130   5.938   5.931 -0.0681 -0.0197  0.4082
 1730W        W18204   5.080   0.742   0.904 -0.0663 -0.1363 -0.1192
 1731W        W18205   5.145   4.553   0.720 -0.0424 -0.1434  0.3311
 1732W        W18206   8.213  11.180  11.577  0.2949  0.0097 -0.0554
 1733W        W18207   6.591   9.169  15.141 -0.0931 -0.1381 -0.1070
 1734W        W18208  16.054  17.706   1.890 -0.0574 -0.2379 -0.2985
 1735W        W18209  12.179   1.457   4.298  0.3211 -0.2144  0.1432
 1736W        W18210   3.784   4.835  14.487  0.1843 -0.0401 -0.2275
 1737W        W18211  13.236  13.333   3.409  0.0401 -0.0871 -0.2491
 1738W        W18212  17.616   5.075  11.743  0.0056  0.0145 -0.0879
 1739W        W18213  15.468  11.666  13.897 -0.1975  0.0337 -0.3092
 1740W        W18214   2.030  10.924   1.909  0.1755  0.2935 -0.0352
 1741W        W18215  10.327  10.262  15.328  0.1257 -0.0251  0.1771
 1742W        W18216   5.795   9.705  15.975  0.0138  0.2679  0.1204
 1743W        W18217  14.362   2.387  16.753  0.1104 -0.1008 -0.0914
 1744W        W18218   9.735   0.224   1.497 -0.1450  0.3201  0.0018
 1745W        W18219   6.730   2.242  16.517  0.0795 -0.1865 -0.0537
 1746W        W18220   9.830   1.442  14.159  0.3456 -0.2886 -0.2973
 1747W        W18221   6.875   5.455  14.634  0.1153 -0.1896 -0.1170
 1748W        W18222   3.167   7.189  16.287 -0.1183 -0.0325  0.4584
 1749W        W18223  12.090   5.850  15.845 -0.0498  0.1467  0.1068
 1750W        W18224  15.385  12.225   0.141  0.2642  0.0367  0.3953
 1751W        W18225  12.079  17.686  15.554  0.2704 -0.0591 -0.1772
 1752W        W18226   0.919   4.687  14.140 -0.1188  0.2276 -0.1544
 1753W        W18227  11.611  17.354   4.838 -0.0663  0.0669 -0.1124
 1754W        W18228   8.028  17.576   6.171 -0.0059 -0.3232  0.2707
 1755W        W18229   6.618   4.852  13.329  0.3776  0.0127  0.0062
 1756W        W18230  10.228   4.959  16.528 -0.1551  0.3161 -0.1334
 1757W        W18231   1.104   9.747  11.647  0.0337  0.0696  0.1613
 1758W        W18232  10.461  15.722   1.295 -0.2206  0.0984 -0.2862
 1759W        W18233  10.588   9.700  14.016  0.2340 -0.1995  0.2974
 1760W        W18234  17.230   0.530  12.825 -0.3128  0.0118 -0.0112
 1761W        W18235  11.184   3.821  12.579  0.2410 -0.0308 -0.0037
 1762W        W18236   1.343   3.793   0.265 -0.0868 -0.1578  0.2604
 1763W        W18237   8.475  15.068   2.830  0.1404 -0.0760 -0.3109
 1764W        W18238   9.481   7.878  13.385  0.4241 -0.1643 -0.0277
 1765W        W18239  11.421  15.297   4.648 -0.0731 -0.0763  0.1451
 1766W        W18240  17.342  14.366  11.126  0.0118  0.1417 -0.2101
 1767W        W18241  14.692  15.401  11.537 -0.1187 -0.2365 -0.1933
 1768W        W18242   4.430   5.915  15.038  0.4918  0.0188  0.0616
 1769W        W18243  10.768   9.246  12.168  0.2502 -0.0279 -0.1845
 1770W        W18244   0.376  12.477   4.614  0.3709 -0.0139  0.1817
 1771W        W18245  11.963   5.978   4.790 -0.0213 -0.1388 -0.1673
 1772W        W18246  13.152  17.316   0.399 -0.3505 -0.0210  0.2168
 1773W        W18247  13.626   5.257   4.165  0.0904  0.2254 -0.1369
 1774W        W18248   3.517  10.250   0.880 -0.0343 -0.3435 -0.0791
 1775W        W18249   2.059   4.540  16.455  0.0584  0.1524  0.1498
 1776W        W18250  13.101   4.266  15.084  0.1018  0.3080 -0.4781
 1777W        W18251   9.764  14.666   4.133 -0.0732 -0.0338 -0.3388
 1778W        W18252  11.512   9.212   2.223  0.0360 -0.3833  0.0855
 1779W        W18253   1.928   5.514   1.934 -0.0745  0.2046 -0.2335
 1780W        W18254   7.730   5.669  14.141 -0.0350 -0.0968  0.2569
 1781W        W18255   2.285   2.715   0.278 -0.2482  0.1575 -0.1856
 1782W        W18256  10.784  16.260  15.468  0.2965  0.0019  0.0399
 1783W        W18257  11.958   5.749  16.387  0.1032 -0.2537 -0.0825
 1784W        W18258  17.777  14.522  14.144  0.1307  0.2151  0.1892
 1785W        W18259   5.888  11.802   4.985 -0.0798 -0.2180 -0.1252
 1786W        W18260  14.594   8.554  13.489  0.1973  0.3006  0.0097
 1787W        W18261  14.232  16.860   1.278 -0.0573 -0.1140  0.1954
 1788W        W18262  13.919  12.922   4.758 -0.1740 -0.0288 -0.2029
 1789W        W18263  13.642  11.594  14.018  0.1187 -0.2632 -0.0378
 1790W        W18264   2.350  16.930   1.999 -0.0311 -0.3565 -0.0799
 1791W        W18265   6.852   5.353   5.795 -0.0291  0.3321 -0.1467
 1792W        W18266   9.846  11.259   1.550 -0.0246 -0.1480  0.1752
 1793W        W18267   6.042  16.410  13.618  0.2428 -0.0201 -0.0590
 1794W        W18268   2.329   1.904  16.713  0.1156  0.0939  0.0571
 1795W        W18269   3.239   6.861   4.302  0.0301 -0.2105 -0.2144
 1796W        W18270  17.981   9.808   0.108  0.0985 -0.0456  0.0034
 1797W        W18271   5.934  14.507   4.208  0.0803  0.0682  0.0200
 1798W        W18272  10.671  10.810  15.427  0.3401  0.0115  0.1508
 1799W        W18273  15.387   6.299  15.384  0.1869  0.0228 -0.2325
 1800W        W18274   0.140  11.674  11.129 -0.0607  0.1008  0.2597
 1801W        W18275   6.308   7.288   2.699 -0.2834 -0.0533 -0.0509
 1802W        W18276   9.234  17.418   1.538 -0.1432  0.2070  0.2510
 1803W        W18277   3.868   7.283   5.798 -0.1303 -0.2441 -0.2184
 1804W        W18278   0.361   1.895  14.952  0.0975  0.2553  0.3480
 1805W        W18279  15.520  14.342   2.315  0.0310  0.0349  0.0357
 1806W        W18280   5.824   2.583  16.612 -0.1940  0.1633  0.2705
 1807W        W18281   3.982   5.441  16.684  0.1486  0.0432 -0.1304
 1808W        W18282  12.875   9.239  11.886 -0.0924 -0.1267  0.1037
 1809W        W18283  14.488   4.157  14.958 -0.2000  0.1293 -0.1947
 1810W        W18284  15.679  14.732   1.426  0.1723 -0.2274 -0.1162
 1811W        W18285  16.167   7.580  12.864 -0.3784 -0.4616  0.1789
 1812W        W18286  16.864  10.786   3.484  0.1382  0.0867 -0.0141
 1813W        W18287  15.707  13.981  14.819 -0.2604 -0.2477  0.0088
 1814W        W18288  15.040  16.917   2.686 -0.2037  0.1571  0.1493
 1815W        W18289  17.188  17.330   3.463  0.1909 -0.2064  0.1857
 1816W        W18290   1.200  10.226  15.121 -0.0007  0.0971 -0.0289
 1817W        W18291   4.604  14.686  12.899 -0.1866 -0.0031 -0.0156
 1818W        W18292   4.331   6.241  14.663 -0.0707  0.1082  0.2955
 1819W        W18293   6.005   8.677   1.258 -0.3301  0.2457  0.0975
 1820W        W18294  14.280  10.552   3.054 -0.1824 -0.0300  0.0141
 1821W        W18295   0.854   7.946  16.681 -0.0904 -0.0005  0.0538
 1822W        W18296   3.138   1.376   3.932 -0.2444 -0.1106 -0.0214
 1823W        W18297  13.972   0.940  16.544  0.0306 -0.1670  0.1040
 1824W        W18298   9.984  12.452   0.079  0.2604 -0.0987 -0.3448
 1825W        W18299  15.351   4.580  15.014  0.2922 -0.0376 -0.1386
 1826W        W18300  17.048  16.632  12.927 -0.0490  0.0427 -0.0737
 1827W        W18301   5.040   1.268  16.259  0.1650  0.0303  0.3121
 1828W        W18302   5.878   2.786  14.483  0.0743  0.0279  0.0273
 1829W        W18303   3.476   1.525  14.158  0.0305  0.0859 -0.0352
 1830W        W18304  17.650  16.819   2.199 -0.1398  0.1395 -0.0834
 1831W        W18305   0.043  11.851  11.956 -0.1719 -0.3285  0.0980
 1832W        W18306   8.916  16.649   4.862  0.3365 -0.1510 -0.0434
 1833W        W18307   7.662  11.146  16.490 -0.0150 -0.0304  0.1160
 1834W        W18308   0.337  10.143  11.421  0.1665 -0.1574 -0.0687
 1835W        W18309  11.765  13.253  12.978  0.1802  0.3427  0.2480
 1836W        W18310   5.029  17.301   0.308 -0.0534 -0.4095 -0.0660
 1837W        W18311  12.848  14.257  14.094 -0.3316 -0.1563 -0.0531
 1838W        W18312  11.588  15.809  11.557  0.2228  0.0263 -0.1880
 1839W        W18313  10.935   8.085  12.971 -0.0581 -0.2927  0.1466
 1840W        W18314  11.294   1.380   3.194  0.1110  0.0992  0.1308
 1841W        W18315   4.463   2.355   4.418 -0.0056  0.0066 -0.0962
 1842W        W18316   4.298  12.526  11.263  0.0483  0.0827  0.2082
 1843W        W18317  10.880   7.525   6.045  0.2413 -0.1491  0.3200
 1844W        W18318   3.317  16.822   5.113  0.2397 -0.1022 -0.2040
 1845W        W18319   7.688  10.688  15.563  0.3381 -0.0618 -0.0059
 1846W        W18320  17.630   4.034   1.096 -0.0171 -0.1302 -0.2243
 1847W        W18321   6.674   0.546   1.561 -0.1543 -0.1261  0.2629
 1848W        W18322   7.555   9.206   2.910 -0.0840  0.2215  0.2474
 1849W        W18323   0.312  14.894  10.545 -0.0498 -0.1875 -0.0895
 1850W        W18324   3.705   4.971   5.750  0.2100 -0.0275 -0.1657
 1851W        W18325   8.485   5.257   1.707 -0.0343 -0.0398 -0.0128
 1852W        W18326  10.846   7.938   4.123 -0.0691 -0.1222 -0.1617
 1853W        W18327  13.756  10.939  14.857  0.0431  0.2397  0.3217
 1854W        W18328  13.445   6.181  16.603  0.3980 -0.0553 -0.0918
 1855W        W18329   6.467  11.063   4.575  0.1203  0.0820 -0.0995
 1856W        W18330  17.490  14.114   3.053 -0.0265  0.2855  0.0079
 1857W        W18331   7.403  15.679   2.072  0.1893 -0.1175 -0.0538
 1858W        W18332  15.603  12.048  13.532 -0.0660  0.0641 -0.1024
 1859W        W18333   6.626   7.573   0.081 -0.1003  0.1974  0.2206
 1860W        W18334  13.742  16.126   3.854 -0.1059 -0.0442  0.0352
 1861W        W18335  16.228  10.228  13.004 -0.3021 -0.1279 -0.0237
 1862W        W18336   8.092   9.448  12.978  0.1464  0.0840  0.1382
 1863W        W18337  17.302   4.583  15.084 -0.0248 -0.0074 -0.3905
 1864W        W18338   7.816   4.869   4.753  0.0403 -0.3085  0.0130
 1865W        W18339   9.824  15.332  12.512 -0.3147  0.2922 -0.1639
 1866W        W18340   9.825   0.741  12.707 -0.1383  0.0531  0.1578
 1867W        W18341   7.071  15.273  16.524 -0.0336  0.1411  0.0042
 1868W        W18342   0.186   3.209   0.453 -0.2831 -0.0202  0.1581
 1869W        W18343   6.312  13.433   5.639 -0.0548  0.1657 -0.0463
 1870W        W18344   6.714  12.984   1.593  0.1020  0.2758 -0.0358
 1871W        W18345   5.377   1.461  16.006 -0.2892  0.0168 -0.0972
 1872W        W18346  15.806  10.804   1.349 -0.2653 -0.0180  0.0695
 1873W        W18347   8.190  13.016   0.042 -0.0067 -0.0792  0.5465
 1874W        W18348   2.706  14.971  14.112 -0.1557  0.1100 -0.3241
 1875W        W18349   8.038   3.827  15.886 -0.1419 -0.4313  0.2667
 1876W        W18350  14.880   0.201   2.013 -0.0358  0.2855  0.1939
 1877W        W18351   0.288   7.412   1.673 -0.1032 -0.2551  0.3721
 1878W        W18352  15.335   0.264   3.766 -0.2361 -0.0118 -0.2315
 1879W        W18353   2.521  14.736   4.838 -0.1883  0.0510 -0.4908
 1880W        W18354   2.602   2.207   5.500 -0.1574  0.1762  0.1676
 1881W        W18355  17.933  14.809  15.046  0.1735  0.1544  0.1458
 1882W        W18356  16.380   8.903   4.712 -0.1290  0.1909  0.0355
 1883W        W18357  12.416   7.412   3.428  0.0085 -0.2803  0.1714
 1884W        W18358  12.652   4.545  13.275  0.2010  0.0312 -0.0596
 1885W        W18359   1.919  10.888   0.053  0.1613 -0.2479 -0.1906
 1886W        W18360   3.206   3.680  14.307  0.2060 -0.0078  0.1184
 1887W        W18361   1.605   0.517   2.778 -0.0474  0.1314 -0.4622
 1888W        W18362   4.762  13.770  12.572 -0.1981 -0.3944 -0.2921
 1889W        W18363   4.831   0.470  14.246 -0.1099 -0.1750 -0.1051
 1890W        W18364  11.843   2.572  13.997 -0.0466 -0.0078 -0.1354
 1891W        W18365  16.759   4.454  14.913 -0.1955 -0.0760 -0.1106
 1892W        W18366   2.528  16.432  16.486 -0.1526 -0.0416  0.0466
 1893W        W18367   6.069  10.526   1.883 -0.0729  0.0683 -0.2108
 1894W        W18368   8.732   7.363   3.083  0.2297 -0.0449 -0.2483
 1895W        W18369   3.431   5.425   4.897 -0.0174  0.0418 -0.1317
 1896W        W18370  10.908   3.319   6.314  0.2557 -0.0071  0.0433
 1897W        W18371   6.085  13.544  12.807 -0.0920 -0.4375 -0.0135
 1898W        W18372   2.743  11.458   0.565  0.0276 -0.0674  0.2842
 1899W        W18373   3.159   4.414   3.112  0.0597 -0.0449  0.1317
 1900W        W18374   6.815   6.034   5.671 -0.1772  0.0040  0.2377
 1901W        W18375   3.915  10.577  11.849 -0.1202 -0.1794  0.1570
 1902W        W18376  17.681  16.561   3.539  0.3769 -0.1284 -0.0369
 1903W        W18377  15.555  16.978   2.493  0.2779  0.0823 -0.1347
 1904W        W18378  15.716  15.823   4.567 -0.4437 -0.2391  0.0372
 1905W        W18379   0.531   8.192   5.023 -0.0262 -0.0331 -0.1856
 1906W        W18380   3.477   6.683  15.526  0.0986  0.0576 -0.1710
 1907W        W18381   1.117   9.671   3.377  0.3945 -0.2091  0.3023
 1908W        W18382  14.166  17.458  16.078 -0.0709  0.3676  0.2941
 1909W        W18383   5.833   3.495  14.287  0.0093  0.0045  0.3019
 1910W        W18384   0.317   1.808  16.709  0.1012  0.0091  0.0139
 1911W        W18385   5.720   6.119  13.681  0.0326 -0.2600 -0.2597
 1912W        W18386   7.751   8.442   2.520 -0.2648  0.1175  0.1037
 1913W        W18387  16.400   6.530  14.015  0.0171  0.1122 -0.1685
 1914W        W18388  11.724   7.199   5.629  0.2086 -0.2733  0.0613
 1915W        W18389  15.444   6.570  12.735 -0.0311 -0.2206  0.0608
 1916W        W18390  13.371   5.588  15.336 -0.2355 -0.0420 -0.1461
 1917W        W18391  12.602  15.285  15.599 -0.2639 -0.0296  0.0101
 1918W        W18392  17.055  15.722   6.247 -0.0086 -0.1515 -0.1349
 1919W        W18393   5.530   9.886  11.377  0.0703 -0.0140 -0.1200
 1920W        W18394  15.098  17.135  12.319  0.2750  0.0947  0.0711
 1921W        W18395  11.354  17.319  15.453 -0.0312 -0.1012  0.2932
 1922W        W18396  14.341   3.694   2.199  0.3210  0.0318 -0.0291
 1923W        W18397   4.058   9.740  14.141 -0.0582 -0.0716 -0.2791
 1924W        W18398   1.275  15.018   4.382 -0.0618  0.2364 -0.0420
 1925W        W18399  10.714  17.967  14.159  0.1576  0.2763  0.1381
 1926W        W18400   4.875   3.688   5.432  0.0350  0.0629 -0.2264
 1927W        W18401   5.266  15.149  16.413  0.0481 -0.2222  0.0532
 1928W        W18402  13.897   8.464   1.579  0.2400 -0.2023  0.1770
 1929W        W18403   8.999  16.611  12.940  0.1345  0.3905  0.1750
 1930W        W18404  11.575   5.662   4.761  0.0934 -0.2350 -0.1858
 1931W        W18405   6.621   0.275  13.091  0.1932  0.3670  0.1181
 1932W        W18406   7.378   6.106   3.004 -0.4638  0.3140  0.0408
 1933W        W18407  17.748  12.504  12.403 -0.1386  0.0656 -0.0198
 1934W        W18408   9.125  12.505   0.855  0.3301  0.0369 -0.2953
 1935W        W18409  16.969  11.347   4.354  0.0678 -0.0298 -0.1942
 1936W        W18410   8.806   6.214  13.586  0.0146 -0.0555  0.0049
 1937W        W18411   3.810   7.553   4.319 -0.1898 -0.0705  0.1308
 1938W        W18412  17.767  12.174  15.572 -0.0681 -0.0258  0.2385
 1939W        W18413   6.846  12.165   1.102 -0.0768 -0.2171 -0.1445
 1940W        W18414   2.243   8.118   2.153 -0.3937  0.0264  0.0788
 1941W        W18415  14.514   7.282  12.437 -0.0911 -0.2431 -0.2313
 1942W        W18416  17.804   4.120  13.071 -0.0656 -0.1817  0.1913
 1943W        W18417   3.242   7.375  14.913  0.1766  0.0814 -0.1689
 1944W        W18418   4.161  11.761   3.990 -0.2836  0.3255 -0.0763
 1945W        W18419   6.345   7.833   4.747  0.1309  0.0298  0.1598
 1946W        W18420   6.014   5.801  12.202  0.3048  0.0154  0.1017
 1947W        W18421   9.695   9.493  15.204  0.0102 -0.0820 -0.1465
 1948W        W18422   4.195   2.050   3.106 -0.1003  0.1905  0.1743
 1949W        W18423  17.395  10.316   0.950 -0.1529  0.1311  0.3338
 1950W        W18424   5.496  14.891   2.673  0.1114 -0.0190  0.0568
 1951W        W18425  16.839   6.293   1.329 -0.1989 -0.0262 -0.0944
 1952W        W18426   2.300   1.791  15.596 -0.0272 -0.0577  0.5079
 1953W        W18427  14.247  12.257  12.291 -0.1889  0.2665 -0.2700
 1954W        W18428   5.033  14.024  13.809 -0.0683  0.0333  0.1423
 1955W        W18429   2.645   6.257  12.659  0.0949 -0.0101 -0.1881
 1956W        W18430   8.391  11.239   4.605  0.2504  0.1953  0.1266
 1957W        W18431   6.779  16.256  16.760 -0.2817  0.2517  0.0183
 1958W        W18432   8.021   7.968  14.686 -0.2024  0.2612 -0.1418
 1959W        W18433   9.777  10.078  11.760 -0.1498  0.0675  0.1447
 1960W        W18434  12.052   4.843  12.730 -0.1756  0.0118  0.2351
 1961W        W18435   0.931   6.440  12.043 -0.0698  0.2854 -0.1004
 1962W        W18436  13.975   3.479   3.096  0.1236 -0.0181  0.1907
 1963W        W18437   8.772  15.603   0.495 -0.3066  0.0465 -0.1396
 1964W        W18438   0.579  15.721   0.826  0.0875  0.1783  0.3801
 1965W        W18439   1.187   7.821  14.372 -0.1293  0.1301 -0.2328
 1966W        W18440  10.735  10.632  16.740 -0.1678  0.1540  0.4308
 1967W        W18441   9.810   9.793  12.922  0.0280  0.0634  0.2142
 1968W        W18442  16.321   1.778   1.667  0.2505 -0.2447 -0.1058
 1969W        W18443   6.603   7.800   0.959 -0.1957 -0.0168  0.0967
 1970W        W18444   4.751  13.173  11.530 -0.0259  0.1236 -0.2702
 1971W        W18445   3.648   5.985  16.126 -0.2973 -0.1628  0.1334
 1972W        W18446   6.428   6.591   4.642 -0.0309  0.2570 -0.2591
 1973W        W18447   8.881   2.558   0.498  0.1934 -0.3629  0.0866
 1974W        W18448   8.022  12.842   5.905 -0.1067 -0.1963  0.4210
 1975W        W18449   7.877  12.441  13.111 -0.0429 -0.0333 -0.0169
 1976W        W18450  13.483   9.083   0.357  0.0548  0.0897 -0.1194
 1977W        W18451   2.666   9.432   2.392  0.0204  0.2018  0.1538
 1978W        W18452  10.621  12.121   3.093 -0.0214 -0.0084  0.2855
 1979W        W18453   1.170   0.278  16.468 -0.0304  0.0188 -0.2378
 1980W        W18454  14.031  17.436   4.197 -0.1112  0.2443  0.1763
 1981W        W18455  14.114   2.987  14.196  0.1217 -0.1529 -0.0479
 1982W        W18456  14.368   3.847  16.412  0.3581  0.1420  0.0472
 1983W        W18457   7.617   9.307  11.469  0.0499 -0.2539  0.0656
 1984W        W18458  17.690   0.663  12.951  0.0804 -0.1495 -0.2352
 1985W        W18459  15.907  15.176  13.969  0.0683 -0.2070 -0.2349
 1986W        W18460   1.632   3.984   0.761  0.1512 -0.1093 -0.1662
 1987W        W18461  10.392   7.058   1.447  0.0843 -0.0082 -0.0292
 1988W        W18462   8.890   8.048  12.602 -0.2633 -0.2332  0.0432
 1989W        W18463   3.793   1.345   5.194  0.2067  0.1682  0.0807
 1990W        W18464   3.804  10.065  11.626 -0.0268 -0.0528  0.1768
 1991W        W18465   9.903   7.477   2.602  0.1759  0.1463  0.1735
 1992W        W18466   1.479  14.178  11.639 -0.0661 -0.0447  0.0902
 1993W        W18467   0.380   0.402   3.210 -0.0323  0.2708 -0.0584
 1994W        W18468   4.273  17.155  13.624 -0.1287 -0.3310  0.3874
 1995W        W18469  15.063   8.666  15.179 -0.3064  0.0862  0.1034
 1996W        W18470   3.409  12.069  10.955  0.0785 -0.1914  0.0990
 1997W        W18471  13.397  15.811   1.184  0.3641 -0.0113  0.0138
 1998W        W18472   7.211   5.671   5.752  0.2961  0.1129  0.0770
 1999W        W18473   8.233   8.244  16.316  0.1078 -0.1923 -0.1865
 2000W        W18474  15.727   0.303  13.408 -0.1281  0.1896  0.0401
 2001W        W18475   8.110  15.549   4.087 -0.1518  0.1613  0.0940
 2002W        W18476   5.863  15.562  13.188  0.0389  0.0245 -0.1574
 2003W        W18477   7.042   3.693  14.701 -0.1696  0.0967 -0.0382
 2004W        W18478   1.711  12.096   2.068 -0.0058  0.5261 -0.0162
 2005W        W18479   6.760  13.859  13.580  0.0523 -0.3641 -0.2403
 2006W        W18480  12.754  15.403   1.778  0.1355  0.0823  0.0155
 2007W        W18481   2.675  14.241   3.520  0.2156 -0.0361 -0.1322
 2008W        W18482  14.679  13.810   4.490 -0.1092 -0.0834 -0.1598
 2009W        W18483  11.349  11.114   1.628  0.1670  0.1524 -0.1856
 2010W        W18484   4.669  11.246   3.638  0.1029  0.0632  0.0809
 2011W        W18485   0.556   2.489   2.786 -0.0380  0.0880  0.0028
 2012W        W18486   3.905   3.093  11.602  0.0081  0.1070 -0.0544
 2013W        W18487  16.222   7.901  14.165 -0.1784  0.1984 -0.1387
 2014W        W18488  14.846  12.344  15.472  0.2062 -0.0372  0.0046
 2015W        W18489  17.112  13.001   3.920  0.2519  0.0087  0.2166
 2016W        W18490  10.724   5.457  12.679 -0.2394  0.2518  0.0297
 2017W        W18491   9.385   2.511   1.952 -0.0283  0.1348  0.4536
 2018W        W18492   9.172  13.695  15.398  0.2007 -0.4381 -0.2727
 2019W        W18493   1.306  13.249  11.443  0.3824  0.0201  0.2136
 2020W        W18494  12.028   0.969   4.240  0.4092 -0.1885  0.1859
 2021W        W18495  15.868   3.885   3.564 -0.1859  0.2206 -0.0553
 2022W        W18496  10.422  13.949  11.546  0.2268  0.1349  0.0795
 2023W        W18497   2.147   0.980   4.560 -0.2189  0.0313 -0.1854
 2024W        W18498   5.939   5.076  12.772  0.0778 -0.1771  0.0715
 2025W        W18499  13.993   2.916  13.270  0.1971 -0.1855  0.1002
 2026W        W18500  13.293   0.340   2.822  0.1623  0.1881  0.2123
 2027W        W18501   2.740   4.338   3.423 -0.0365 -0.2183  0.1032
 2028W        W18502  17.206  11.541  11.228 -0.2203 -0.0479 -0.1514
 2029W        W18503  13.038   9.936  11.542  0.1025  0.1718 -0.0296
 2030W        W18504  15.189   9.331  12.037  0.1615  0.2160 -0.1490
 2031W        W18505   9.631   8.698  15.572 -0.0800  0.2562 -0.3855
 2032W        W18506   1.843   0.184   0.860  0.1789  0.3881  0.1041
 2033W        W18507   1.194   3.085   1.539  0.0370 -0.1961 -0.0144
 2034W        W18508  17.352  14.316  13.831 -0.0724  0.1460  0.0585
 2035W        W18509   2.511   6.574  15.973  0.0069 -0.5142  0.0297
 2036W        W18510  16.134   1.154  13.151  0.3519 -0.2704  0.1765
 2037W        W18511   5.188   4.079  13.193  0.0143  0.1376  0.1042
 2038W        W18512  16.234  14.851  12.972 -0.0227  0.2311 -0.3090
 2039W        W18513   5.359  17.325  15.152  0.0585 -0.2119  0.0271
 2040W        W18514   3.921   8.047  14.761  0.0145  0.0479  0.0355
 2041W        W18515   6.227   7.012   0.232 -0.1938 -0.0416  0.2092
 2042W        W18516   5.377  13.969   1.102 -0.3087 -0.0387  0.0229
 2043W        W18517  12.322  14.819   1.435 -0.1697  0.1367 -0.2235
 2044W        W18518   7.123   0.486  11.304 -0.1470 -0.4724 -0.2345
 2045W        W18519   1.579  12.475  12.536 -0.1848 -0.0104 -0.0545
 2046W        W18520  13.867   4.488   2.116 -0.0079  0.3238  0.1733
 2047W        W18521  14.923  12.781   5.187 -0.1864  0.0980 -0.1548
 2048W        W18522   1.441   6.612   5.302 -0.3032  0.1252 -0.1004
 2049W        W18523   3.547   4.753  16.693 -0.2064 -0.0904 -0.0362
 2050W        W18524  12.106  15.413   0.717 -0.0416 -0.1646 -0.1375
 2051W        W18525  14.760   7.838   5.398  0.0487 -0.3068 -0.1122
 2052W        W18526  12.388   3.781   6.630 -0.2049 -0.0037  0.2338
 2053W        W18527  13.918   5.932  11.940  0.1239 -0.0707 -0.1812
 2054W        W18528  17.553  11.422  13.683  0.0877 -0.1210  0.0485
 2055W        W18529   3.007  15.953  13.269 -0.1839  0.4367  0.0557
 2056W        W18530  16.178  16.834   1.671  0.3214 -0.3095 -0.0299
 2057W        W18531   4.596   1.429  13.028 -0.0934  0.0174  0.1833
 2058W        W18532   9.265   9.741   1.768  0.4942  0.1777 -0.0821
 2059W        W18533  10.696   3.309   2.425  0.4172 -0.0255  0.0218
 2060W        W18534  13.452  12.052   2.802 -0.1813  0.0933 -0.2122
 2061W        W18535   7.697  12.731  12.514  0.0208  0.0676 -0.2168
 2062W        W18536  11.272  10.366   0.312  0.3415 -0.1975  0.1624
 2063W        W18537   9.476   6.946   1.170 -0.0081  0.2452  0.0967
 2064W        W18538  16.282  15.093   3.158  0.3921 -0.0163  0.0482
 2065W        W18539  11.040  17.128  14.143  0.0812  0.2678 -0.1582
 2066W        W18540  14.759   0.550  15.782  0.1745 -0.0943 -0.0898
 2067W        W18541   9.922  10.906  14.234  0.3399 -0.2352 -0.0106
 2068W        W18542  16.997   0.359   4.974  0.0335 -0.2711 -0.3767
 2069W        W18543  11.730  16.623   4.181 -0.1595  0.1374  0.2915
 2070W        W18544  13.639   6.788  11.974  0.0047 -0.0814  0.2668
 2071W        W18545   0.983  12.049  15.219 -0.0777 -0.0755 -0.1857
 2072W        W18546  17.706   9.642   2.484  0.1325 -0.2844  0.0212
 2073W        W18547  11.997  16.825   1.040  0.0521  0.1585 -0.0667
 2074W        W18548  11.952  10.847   5.779 -0.0621  0.1728  0.2208
 2075W        W18549   7.453  16.586  11.415  0.0446  0.0885  0.0717
 2076W        W18550   5.862   1.548  12.421 -0.3072  0.3546  0.0506
 2077W        W18551   5.980   6.806  12.478  0.3709  0.0851 -0.2022
 2078W        W18552  16.391   5.711   5.391 -0.1694 -0.1961  0.3675
 2079W        W18553   0.975  15.548   1.695 -0.1322 -0.1293  0.4159
 2080W        W18554  14.528  10.646  14.778  0.2918  0.1949 -0.0825
 2081W        W18555   5.293   7.112  16.385  0.3563 -0.2049  0.0232
 2082W        W18556  10.256   1.460   4.809 -0.2733  0.3016  0.3056
 2083W        W18557   9.214   8.026   5.021  0.0565 -0.1188  0.0511
 2084W        W18558   4.273  17.429   2.258  0.1617  0.0785 -0.2998
 2085W        W18559  15.643  10.153   5.075  0.0850 -0.0265 -0.3483
 2086W        W18560   2.161   6.015  13.838 -0.3178 -0.0508  0.1654
 2087W        W18561  10.250   5.741  11.994  0.0124 -0.0695  0.0436
 2088W        W18562  15.949   5.345  11.842 -0.3316  0.0027  0.0870
 2089W        W18563   8.059  11.225  14.802 -0.2589 -0.0357  0.0313
 2090W        W18564   0.524  16.791  14.900  0.1013  0.3559  0.1202
 2091W        W18565   3.266   5.594  15.285  0.0306 -0.0706 -0.0402
 2092W        W18566  17.506   0.618  15.728 -0.0819  0.2088 -0.0213
 2093W        W18567   4.964   2.354  15.774  0.1847 -0.1654 -0.0493
 2094W        W18568  11.530   8.388  16.714 -0.0673  0.3525 -0.1722
 2095W        W18569   7.604  14.136   1.360 -0.3560  0.2098  0.0794
 2096W        W18570  15.453   9.522   4.386  0.0752 -0.0112  0.0381
 2097W        W18571   5.430   5.898  14.881 -0.1443  0.0363 -0.0105
 2098W        W18572  11.512   7.393  16.013 -0.0109 -0.0607 -0.1557
 2099W        W18573  13.659   9.047   1.251  0.0724  0.1538 -0.0268
 2100W        W18574  15.012   2.360  12.630 -0.1693  0.0252  0.0826
 2101W        W18575   2.326  12.219  15.755  0.1689 -0.1217 -0.0121
 2102W        W18576  14.161   1.748   4.640  0.0476  0.0247  0.1432
 2103W        W18577   8.797   7.023  13.543  0.1479 -0.2574  0.1578
 2104W        W18578  17.713   9.322   5.174  0.1122 -0.1057 -0.0818
 2105W        W18579   0.085  17.370   3.526 -0.0825 -0.0275  0.0740
 2106W        W18580   5.937  16.845   2.541 -0.0660 -0.1573 -0.1135
 2107W        W18581   0.828   6.194  12.505  0.1777 -0.1131  0.1263
 2108W        W18582   1.298  12.670  11.325  0.0137 -0.0561  0.3886
 2109W        W18583   6.626  12.868   4.176  0.2941 -0.2430 -0.0028
 2110W        W18584  17.962   1.973  14.416 -0.0375 -0.1500 -0.0710
 2111W        W18585  12.600  17.327  13.627  0.1137 -0.0876  0.2218
 2112W        W18586   4.962  11.015   4.377 -0.0217  0.1302 -0.1831
 2113W        W18587   1.976  11.091   4.823  0.0069  0.1019 -0.2006
 2114W        W18588  10.257   7.421   5.295  0.1700 -0.1179 -0.1743
 2115W        W18589   4.397  11.114   4.599 -0.0824  0.0756 -0.0989
 2116W        W18590   8.324   9.162  14.453  0.0158 -0.2990 -0.0203
 2117W        W18591  13.816  16.402   3.437  0.2463 -0.1192 -0.1888
 2118W        W18592  11.610  12.522  11.213 -0.2981  0.0379 -0.1191
 2119W        W18593  12.753  15.826  12.187  0.2871 -0.1747  0.1896
 2120W        W18594  17.648  17.720   0.803 -0.1019  0.2679 -0.0927
 2121W        W18595   1.790   4.651  16.050 -0.1417 -0.0694  0.0264
 2122W        W18596   4.060  17.498  14.044  0.2584 -0.1996 -0.1932
 2123W        W18597  15.814   6.441   1.455  0.4352  0.0454  0.2728
 2124W        W18598  11.560   0.815   6.538  0.0350 -0.0359 -0.2414
 2125W        W18599   5.236   6.249   2.232  0.3132  0.1302 -0.2247
 2126W        W18600  11.613   9.286  12.010  0.2833  0.0095 -0.3358
 2127W        W18601   0.105  12.480  14.138  0.2052 -0.0091  0.0550
 2128W        W18602   3.864   2.887  12.056 -0.1738 -0.0813 -0.0125
 2129W        W18603   1.756  17.903   5.696  0.1573 -0.0688 -0.5039
 2130W        W18604  14.403  10.408   0.353  0.1119 -0.2331 -0.1752
 2131W        W18605  15.327   0.275   6.235  0.1460 -0.3263 -0.2873
 2132W        W18606   0.137   3.673   4.943 -0.4004  0.1290 -0.1922
 2133W        W18607   8.810   1.166   4.831  0.0248  0.6852  0.0907
 2134W        W18608  12.641   7.806   0.170  0.4789  0.1543  0.0655
 2135W        W18609  12.815  17.771   3.587  0.0532  0.0792 -0.1475
 2136W        W18610   5.045  14.695   2.479  0.1588  0.0288 -0.0403
 2137W        W18611   7.502   0.000  14.029  0.2556  0.2284 -0.1200
 2138W        W18612   8.153   0.941   5.943 -0.2467  0.0240  0.0854
 2139W        W18613   5.546   8.683  11.947  0.2945  0.2091  0.1586
 2140W        W18614   4.299  17.048  10.596 -0.0051 -0.0599 -0.0669
 2141W        W18615   4.295   5.703   1.845 -0.0732  0.1161  0.1605
 2142W        W18616  13.933  16.857  15.427 -0.1861  0.3135  0.1914
 2143W        W18617   0.349  16.900  14.430  0.0031  0.2152 -0.1422
 2144W        W18618   6.566   2.615  14.084 -0.0929 -0.1244 -0.0184
 2145W        W18619   3.683   2.605   2.108 -0.1092 -0.2977  0.0473
 2146W        W18620  13.498  11.859   4.801  0.0418 -0.0638 -0.1554
 2147W        W18621   0.226  13.602   3.068 -0.0299  0.1529  0.1595
 2148W        W18622  10.970   5.893  12.694  0.1017  0.1441  0.0520
 2149W        W18623   0.769  11.100   1.585 -0.2847  0.3054  0.1218
 2150W        W18624  11.478  17.743  13.648 -0.3773  0.1152  0.1341
 2151W        W18625   8.555   9.809   5.154 -0.1479 -0.4462  0.0739
 2152W        W18626   3.682   2.607  14.179  0.1859 -0.2648 -0.0842
 2153W        W18627  11.492   5.963   3.292  0.0002 -0.1302 -0.2262
 2154W        W18628  13.133   7.826   0.258  0.0170  0.1327  0.4355
 2155W        W18629  13.061  13.491  14.565 -0.0290 -0.1116  0.1466
 2156W        W18630  10.989  12.849   1.203  0.2214  0.3179 -0.3451
 2157W        W18631  17.599   1.945   4.635  0.2626 -0.0983  0.1012
 2158W        W18632   1.152   8.725   1.371 -0.1647  0.0320 -0.0649
 2159W        W18633  15.487  11.698  14.894 -0.1474  0.0451  0.2120
 2160W        W18634   3.904   3.764   5.325 -0.3121 -0.1152  0.2052
 2161W        W18635   7.617   9.146  13.022 -0.0634  0.0505  0.0058
 2162W        W18636  15.179   4.097   0.196  0.0022 -0.2716  0.0963
 2163W        W18637   1.627   1.193  15.332  0.2526 -0.0666 -0.2106
 2164W        W18638  11.279   4.775   4.737 -0.1839 -0.4071 -0.0603
 2165W        W18639  11.086   4.525   4.219 -0.0788 -0.0143 -0.1360
 2166W        W18640   2.984  10.194  13.471  0.1164  0.0708  0.0672
 2167W        W18641   9.741   4.059   1.755  0.1730  0.2823 -0.3076
 2168W        W18642  15.669   5.797  12.698 -0.2381 -0.0736  0.2071
 2169W        W18643  12.622   0.507  15.172 -0.0263  0.2197  0.1297
 2170W        W18644   4.851  11.975   3.233  0.0980 -0.1625  0.1904
 2171W        W18645   0.808  10.455  15.427 -0.1405  0.0270 -0.1613
 2172W        W18646  14.257   1.418   3.739 -0.0675 -0.0653  0.2457
 2173W        W18647   2.561   7.625   0.004 -0.1024  0.0096  0.3536
 2174W        W18648  13.591   6.594   0.071 -0.0607  0.0621 -0.1178
 2175W        W18649  17.714  11.988  13.208 -0.0143 -0.0064 -0.0952
 2176W        W18650   1.520   7.619   2.537  0.3498 -0.0399 -0.0705
 2177W        W18651   0.065   0.038  15.985  0.4429 -0.1760 -0.0930
 2178W        W18652   8.322   0.138  13.426  0.0327 -0.1773  0.2876
 2179W        W18653   7.326  13.585  15.264 -0.0217  0.0116  0.2178
 2180W        W18654   3.568   7.618  12.529 -0.0219 -0.0186  0.0741
 2181W        W18655   0.636   5.075  11.747 -0.1447 -0.4362 -0.0066
 2182W        W18656   0.116   2.375   1.420 -0.3060  0.1201  0.2510
 2183W        W18657   3.196   8.710   3.625  0.2171 -0.4177  0.1298
 2184W        W18658   5.737   4.276   5.821  0.2067 -0.0806  0.0429
 2185W        W18659   4.408  12.921  13.967 -0.3296 -0.2493 -0.1268
 2186W        W18660   4.972  13.117  10.648 -0.0498  0.1370 -0.0390
 2187W        W18661  10.783   9.455   4.329 -0.1439  0.2492  0.0918
 2188W        W18662   6.653  11.262  13.396  0.4595 -0.0566 -0.0106
 2189W        W18663   0.429   6.379  12.783 -0.1221  0.0142  0.0542
 2190W        W18664   3.541  14.823  12.594 -0.0853  0.1097 -0.0910
 2191W        W18665   8.962  14.370   3.756 -0.1451  0.1689 -0.2071
 2192W        W18666  12.449   5.461  14.210 -0.0198  0.0455  0.1555
 2193W        W18667  13.227  10.284  16.742 -0.0041 -0.1591 -0.1909
 2194W        W18668   8.714  12.967   0.070  0.1435  0.1025  0.1205
 2195W        W18669   2.364   2.406   3.027  0.1652  0.0807 -0.1483
 2196W        W18670   8.053   3.045   0.682 -0.3209 -0.2744  0.0393
 2197W        W18671   2.149   4.282  12.075  0.1882 -0.2308 -0.0202
 2198W        W18672   5.288   0.140  14.225 -0.1228 -0.1782 -0.4444
 2199W        W18673  14.827   2.065  14.048 -0.0293 -0.2142 -0.1625
 2200W        W18674  11.778   2.118   2.225  0.0444 -0.0520  0.0602
 2201W        W18675   3.198  17.609   3.386  0.2174 -0.2737  0.0619
 2202W        W18676   8.094  14.300   0.364  0.1493  0.2802  0.0589
 2203W        W18677   9.793  13.687   5.743 -0.1811  0.0928 -0.2211
 2204W        W18678  15.234  14.990   5.095  0.2070 -0.2217  0.0958
 2205W        W18679   7.060  11.337   1.343  0.0638 -0.2383  0.1875
 2206W        W18680   7.606  13.603   6.323 -0.2978 -0.1901  0.2788
 2207W        W18681   7.807  14.588  12.521 -0.1629 -0.0963  0.0501
 2208W        W18682   4.919  15.205  13.601  0.2377  0.2115  0.0636
 2209W        W18683   2.879  17.270  16.187  0.1740 -0.2726 -0.1915
 2210W        W18684   2.881  12.691  15.895 -0.0944  0.3460  0.0364
 2211W        W18685  13.658  15.102   3.083 -0.0067  0.2068 -0.0191
 2212W        W18686   5.465   7.507  12.741  0.1192 -0.3288 -0.1597
 2213W        W18687   1.086   7.488  14.937  0.0046  0.3468  0.3151
 2214W        W18688   8.138  17.761   3.683  0.3658  0.0966 -0.0565
 2215W        W18689   6.767   5.651   0.301  0.2415  0.1364 -0.1096
 2216W        W18690  17.994   2.381   0.397 -0.0426 -0.0707  0.0222
 2217W        W18691  16.893  17.796  16.583  0.0881  0.1003  0.0758
 2218W        W18692  16.539   0.278   5.804 -0.1934 -0.0421 -0.1500
 2219W        W18693  16.223   5.563   1.095  0.1305  0.0704 -0.2621
 2220W        W18694   3.183   1.215   4.619  0.1430  0.0265  0.1537
 2221W        W18695  12.526   4.611   4.407 -0.0332  0.1043  0.0907
 2222W        W18696   8.961   6.612  13.282  0.1071 -0.1135  0.2302
 2223W        W18697   8.785  14.115   5.102  0.0026 -0.2831 -0.0594
 2224W        W18698  11.553  17.339   4.315 -0.0662 -0.1601 -0.1568
 2225W        W18699   6.978  12.927   0.639  0.2750 -0.3615  0.1391
 2226W        W18700   7.863  11.410   4.684 -0.0892  0.3676  0.1689
 2227W        W18701  14.071   7.556  12.487  0.1524 -0.1607  0.1383
 2228W        W18702  11.767  15.586   3.432 -0.1613  0.3194 -0.0007
 2229W        W18703  14.125   1.888  11.883  0.0588  0.0824 -0.0385
 2230W        W18704   7.949   6.589   1.416  0.5050  0.0883  0.3294
 2231W        W18705  10.888   5.534  14.297  0.1323 -0.0635 -0.1032
 2232W        W18706   6.634  11.225   1.607 -0.0073  0.4157  0.2664
 2233W        W18707  13.683   2.539  12.396 -0.0417  0.0528 -0.1717
 2234W        W18708   1.047   7.076   2.556 -0.0404  0.3993 -0.1365
 2235W        W18709  12.690  14.614  12.977 -0.0504  0.2612  0.1351
 2236W        W18710   8.542   1.590   2.227  0.0701  0.0790 -0.0647
 2237W        W18711   8.613   3.839   2.731 -0.2281  0.5183  0.0355
 2238W        W18712  15.291   9.954  13.165 -0.0097 -0.2301 -0.3757
 2239W        W18713   5.244  16.859   2.037 -0.0156  0.3486  0.1786
 2240W        W18714   3.573   8.326  14.435  0.1245 -0.1262  0.1966
 2241W        W18715   2.854  17.550  14.425 -0.0251  0.0392  0.1054
 2242W        W18716  11.437  12.306  10.787  0.0028 -0.2324 -0.3808
 2243W        W18717   9.829  12.136   2.270 -0.1574  0.1778 -0.4359
 2244W        W18718   2.760   5.281  15.403 -0.1761  0.4620 -0.0257
 2245W        W18719   0.452   6.354  12.137  0.1959 -0.0831  0.1738
 2246W        W18720   3.458  11.643  15.283  0.0080  0.1931 -0.1345
 2247W        W18721   8.401   2.814  13.940 -0.3407 -0.0364 -0.3040
 2248W        W18722   2.255   2.107   1.121  0.1070 -0.1772  0.2219
 2249W        W18723  17.212  15.654   3.299 -0.0257 -0.2553  0.0369
 2250W        W18724   8.923  17.136   3.651  0.0649 -0.1035  0.0475
 2251W        W18725  15.632  14.811   5.951 -0.0859 -0.0576  0.1272
 2252W        W18726  10.875  15.417  12.643 -0.1552  0.0196 -0.1094
 2253W        W18727   7.636  12.154   3.258 -0.0104 -0.3830 -0.0329
 2254W        W18728   4.282  15.419  11.676  0.0423 -0.0671  0.1265
 2255W        W18729   0.758   8.563  14.977  0.0664 -0.1498 -0.0370
 2256W        W18730  15.861   9.870  16.109  0.2046 -0.3165 -0.2509
 2257W        W18731   3.935  12.900   4.820  0.3853 -0.0071  0.0807
 2258W        W18732  11.375   0.588  15.925 -0.0064  0.1556  0.0594
 2259W        W18733  14.507  10.277   1.596  0.1754  0.1218  0.0672
 2260W        W18734   7.745   3.609   5.300 -0.0666 -0.2125 -0.4628
 2261W        W18735   6.053   1.295  12.020 -0.0124  0.1319 -0.5341
 2262W        W18736  12.466  16.017   4.348  0.0074  0.0410  0.1499
 2263W        W18737  16.295  10.205  13.667 -0.0331 -0.0569 -0.1770
 2264W        W18738  10.990   1.000  14.231  0.1895 -0.2264 -0.0680
 2265W        W18739   1.824   9.683  14.038  0.0403  0.2589  0.2064
 2266W        W18740  16.645   2.623  13.050  0.1438  0.1650 -0.0088
 2267W        W18741  13.154   6.967   0.731 -0.3064 -0.0228  0.2982
 2268W        W18742   0.922  11.144   4.643  0.2360 -0.1574  0.1316
 2269W        W18743   3.511   7.171  15.918  0.0530  0.0506 -0.1792
 2270W        W18744  10.023  11.343   0.529 -0.2599 -0.3645  0.0844
 2271W        W18745   9.454  17.874   5.162  0.2217 -0.2808  0.1645
 2272W        W18746  17.198  11.639   3.522  0.1250  0.0635  0.1551
 2273W        W18747  17.549  13.381  16.716  0.0785 -0.1316  0.0820
 2274W        W18748  10.641   6.970   3.222 -0.0899 -0.2225  0.4639
 2275W        W18749   0.752  16.553   2.813 -0.2172 -0.2816  0.0587
 2276W        W18750   3.508   1.705   3.658 -0.2737 -0.0586 -0.1532
 2277W        W18751  17.260  13.594   0.700  0.1422 -0.0179  0.2250
 2278W        W18752   6.255   8.810  15.106  0.5375 -0.0449 -0.0923
 2279W        W18753  17.791   5.444  13.292  0.1609 -0.2439 -0.3125
 2280W        W18754  13.531  16.349   1.331 -0.1154 -0.0010  0.0786
 2281W        W18755  16.716   5.289   3.813 -0.1591 -0.0759  0.0055
 2282W        W18756   8.771   4.983   0.934  0.3056 -0.1244 -0.0318
 2283W        W18757   5.817   3.213   4.369  0.1289 -0.1287 -0.1486
 2284W        W18758  10.376  15.023  10.441  0.1619  0.1762 -0.1937
 2285W        W18759   9.524   7.871   3.913 -0.0076 -0.3173 -0.0408
 2286W        W18760  12.085  13.633   4.860 -0.2115 -0.0059  0.1951
 2287W        W18761   4.960   9.519   4.274 -0.1056  0.0284  0.5750
 2288W        W18762   0.712   8.951  14.076 -0.0261  0.0185  0.0043
 2289W        W18763   3.473  11.234  13.737 -0.1188  0.1883 -0.1032
 2290W        W18764   3.592  12.158  16.363  0.0210  0.1876  0.2580
 2291W        W18765   4.486  10.663  15.579  0.2142  0.0906 -0.0889
 2292W        W18766  15.304  15.032  13.474  0.0575 -0.0695  0.1675
 2293W        W18767   1.030   3.765  14.610 -0.0545 -0.2216  0.0504
 2294W        W18768  13.659   8.908   5.334 -0.1916  0.1192  0.0751
 2295W        W18769   9.010  10.874  15.002  0.0541  0.2623  0.2548
 2296W        W18770   4.368  10.331  13.343 -0.1544  0.1283  0.0570
 2297W        W18771   0.417   2.087   1.122 -0.2195 -0.1334  0.0464
 2298W        W18772   6.311  13.693  13.799 -0.4617  0.1158  0.0409
 2299W        W18773  17.012  10.367   2.179 -0.0921 -0.0326 -0.3310
 2300W        W18774   1.491   3.509   0.667 -0.1276 -0.0995 -0.1105
 2301W        W18775  17.343   8.025   0.963  0.0065 -0.0879 -0.1442
 2302W        W18776  15.518   9.745  13.589  0.0582 -0.1368 -0.2430
 2303W        W18777   1.526  13.558   5.721  0.1250 -0.0193  0.1158
 2304W        W18778   7.804  13.392   2.885 -0.0037  0.0799 -0.1415
 2305W        W18779   3.550   9.429  12.379  0.1273 -0.5276 -0.2039
 2306W        W18780   0.998  12.410   2.434  0.2159 -0.2079 -0.0624
 2307W        W18781   4.091   5.523   4.288  0.4558 -0.0134 -0.2626
 2308W        W18782   5.827  16.335   4.247 -0.1167 -0.0992 -0.1259
 2309W        W18783  16.530  11.658   0.005  0.0392  0.0211  0.1080
 2310W        W18784   9.746  17.280  10.992 -0.4096  0.0461 -0.4406
 2311W        W18785  14.358  10.025   3.289  0.2309  0.1399 -0.2423
 2312W        W18786  16.650  11.302  12.773 -0.2587  0.1070  0.1695
 2313W        W18787  17.096  10.774  14.526  0.2855 -0.0375 -0.0666
 2314W        W18788  13.177  12.118   3.826 -0.4851 -0.1080  0.1673
 2315W        W18789  11.330  11.884   3.873  0.3150 -0.0338  0.0774
 2316W        W18790  16.600   7.372  13.066  0.0732 -0.0552  0.1457
 2317W        W18791   6.961  12.858   2.938 -0.0778  0.0025  0.2461
 2318W        W18792   5.628   3.737   4.687 -0.2417 -0.1609  0.0840
 2319W        W18793   3.455  11.194  14.303 -0.2223 -0.0878  0.2697
 2320W        W18794   6.082  15.327  15.905  0.1711  0.1949 -0.0787
 2321W        W18795   8.034   4.958  14.249  0.0546 -0.2043 -0.0813
 2322W        W18796   9.292  13.196   3.109 -0.0083 -0.1172  0.0483
 2323W        W18797  14.362   1.166  15.151 -0.1989  0.0218 -0.0706
 2324W        W18798   4.086   4.282   1.741 -0.1836 -0.0903  0.1383
 2325W        W18799   4.195  17.331   0.043 -0.0887  0.0938  0.0306
 2326W        W18800  10.091  16.333   1.470 -0.1036  0.0319  0.2457
 2327W        W18801   5.056   2.669  12.505 -0.0806 -0.0809 -0.2653
 2328W        W18802  15.515   6.677   3.659 -0.2699  0.1677  0.0599
 2329W        W18803  13.246   6.731   1.147  0.2020 -0.0744  0.1037
 2330W        W18804  11.738   4.436  14.107 -0.0920 -0.2039  0.1901
 2331W        W18805  14.013  13.367   0.171 -0.0226 -0.3392 -0.1269
 2332W        W18806   9.217   0.447  11.715  0.0374  0.3009 -0.1802
 2333W        W18807   6.421   3.156  16.433  0.1179  0.1469  0.0702
 2334W        W18808  13.911  13.941  16.438 -0.3504  0.1021  0.2679
 2335W        W18809  16.940   1.979  15.601 -0.0297 -0.0279 -0.1233
 2336W        W18810   4.704   6.460   3.709 -0.2793  0.2111  0.3461
 2337W        W18811   2.554  10.295   2.181 -0.0029 -0.0536 -0.0891
 2338W        W18812  13.985   5.687  15.380  0.1729 -0.0638  0.0328
 2339W        W18813  14.066  16.562   3.904 -0.1465 -0.1236 -0.0839
 2340W        W18814  17.106  15.292   2.360  0.1993  0.0602  0.2314
 2341W        W18815  15.490  15.559  15.710  0.1508  0.1377 -0.1166
 2342W        W18816  14.414   9.606  11.135  0.2850  0.0644  0.3521
 2343W        W18817   6.888   8.176  12.561  0.0558 -0.1175  0.0745
 2344W        W18818   1.693   2.540  13.451  0.0050 -0.0146 -0.1630
 2345W        W18819  10.363   6.346   2.884 -0.0541  0.0454  0.0285
 2346W        W18820  16.432   0.401   3.346 -0.3103 -0.0573 -0.2922
 2347W        W18821  10.499  10.481  15.774  0.0968 -0.1900 -0.2755
 2348W        W18822  16.958  16.509  14.302  0.3435  0.0475  0.0073
 2349W        W18823  10.058  11.523   5.682  0.0754  0.4074 -0.2002
 2350W        W18824  12.722  10.347  14.180 -0.1848 -0.2107  0.2803
 2351W        W18825  14.702   4.484   2.374  0.3353  0.1598  0.3286
 2352W        W18826   8.244  14.088   5.030 -0.0551  0.1691 -0.0125
 2353W        W18827  12.239   7.458   6.572  0.2106  0.1176 -0.2373
 2354W        W18828   0.583   3.405  11.720 -0.1689  0.1501 -0.0578
 2355W        W18829   8.610   5.350  12.547  0.1345  0.3011 -0.1142
 2356W        W18830   1.579  17.199  12.143  0.0810  0.0716 -0.0339
 2357W        W18831   8.075   1.587  14.016 -0.1804  0.1637 -0.4791
 2358W        W18832   2.517  15.250  15.885  0.2216  0.2532  0.0102
 2359W        W18833   0.659   3.296   2.278  0.1116  0.0582 -0.1025
 2360W        W18834  14.226   9.632   4.911  0.0912  0.0797  0.1561
 2361W        W18835  12.752   8.535  15.287 -0.2313 -0.0433 -0.0535
 2362W        W18836  11.100   9.489   2.509  0.3044  0.0785 -0.1367
 2363W        W18837   0.197   3.506   2.231  0.1088  0.0688  0.3156
 2364W        W18838   7.620   6.915   3.231 -0.0093 -0.3965 -0.2177
 2365W        W18839   6.947   0.347  16.102  0.1593  0.1389 -0.1482
 2366W        W18840  16.865   0.860  15.411 -0.2274  0.0963 -0.0765
 2367W        W18841  13.693   6.752  16.378  0.2190  0.0667 -0.2247
 2368W        W18842   9.410  10.454   0.577 -0.0621  0.0747  0.0783
 2369W        W18843  16.784   8.862  16.075 -0.0674 -0.2468  0.1942
 2370W        W18844   9.155  12.149   0.208 -0.0795 -0.4668  0.0728
 2371W        W18845  16.962   2.739   1.240 -0.1041 -0.1533 -0.2600
 2372W        W18846  14.624  11.172  11.550 -0.4540 -0.1275 -0.1989
 2373W        W18847   5.283   9.093   4.013 -0.3066  0.0534 -0.0049
 2374W        W18848   7.605   5.500  16.475 -0.0824  0.1947 -0.1021
 2375W        W18849   0.717   6.789   1.156 -0.2048  0.0187  0.0083
 2376W        W18850  13.161  13.067   2.439  0.4902  0.3085 -0.2887
 2377W        W18851  10.510   0.380  14.829  0.0797  0.0254  0.2797
 2378W        W18852  10.537  15.910   3.964  0.3516  0.3328 -0.0059
 2379W        W18853  17.419   6.009   0.949 -0.3815  0.1399 -0.3763
 2380W        W18854   6.017   0.397  14.943 -0.1590 -0.0134  0.0346
 2381W        W18855   9.752   3.289   5.516 -0.1247  0.0091 -0.1222
 2382W        W18856   0.995  16.317   3.152 -0.1288  0.0796  0.0474
 2383W        W18857   8.350  15.841  13.786 -0.1650  0.1074  0.2224
 2384W        W18858   3.478   7.090   2.245 -0.0114  0.1869 -0.2668
 2385W        W18859   9.214   5.193   0.758  0.0890  0.1930 -0.2119
 2386W        W18860  10.561   2.212   1.661 -0.3720 -0.4341  0.1274
 2387W        W18861   2.937   0.110  15.172  0.0413  0.0385 -0.1066
 2388W        W18862  12.108  15.930   0.504 -0.2383  0.3747 -0.0337
 2389W        W18863  17.198  15.046  14.430 -0.1485 -0.0947  0.0433
 2390W        W18864   6.011  12.754   2.242  0.0979  0.0556  0.0901
 2391W        W18865   4.659   1.382  12.240 -0.1428  0.1475 -0.2149
 2392W        W18866   8.221   2.404  11.419 -0.1169 -0.1992 -0.4049
 2393W        W18867  11.319   3.660   2.659 -0.2187 -0.3030 -0.1967
 2394W        W18868   2.295   3.730   4.119 -0.2406 -0.2375 -0.2665
 2395W        W18869  14.322   7.775  15.127 -0.1745  0.1594 -0.2989
 2396W        W18870   8.587  16.403  16.490 -0.1283 -0.2193 -0.0555
 2397W        W18871   2.125   9.673  13.200 -0.2357 -0.0912  0.1088
 2398W        W18872   6.685  13.971   0.953 -0.0096  0.0851  0.0326
 2399W        W18873  11.714   6.473  13.293 -0.2392  0.0473 -0.2092
 2400W        W18874   4.016  10.453   0.701  0.0225 -0.3768 -0.0989
 2401W        W18875   0.250   0.035   0.171 -0.0117  0.0878  0.0067
 2402W        W18876  15.972  14.831  14.471 -0.3093  0.1193  0.3013
 2403W        W18877   6.593  16.341  11.902 -0.2886  0.0411  0.1983
 2404W        W18878  11.574   8.587   0.908  0.1837  0.0830 -0.3333
 2405W        W18879   4.437   1.080  14.045 -0.0883  0.1724 -0.3817
 2406W        W18880  14.326  13.747   2.111  0.1663 -0.3275  0.0243
 2407W        W18881  12.441   2.191   5.819 -0.3107  0.3154  0.1111
 2408W        W18882  10.025   3.293   3.568  0.1560 -0.2019  0.3867
 2409W        W18883  11.752  15.471  12.083 -0.4654  0.0314  0.1587
 2410W        W18884  12.280   8.236  10.756  0.2276 -0.0574 -0.1565
 2411W        W18885  16.112   1.016   3.130  0.1263  0.1901  0.0569
 2412W        W18886  14.463   8.763  12.156  0.0015 -0.1507  0.3526
 2413W        W18887   8.420   0.741  14.738  0.1149 -0.4459 -0.1883
 2414W        W18888  15.410  16.568   2.716 -0.2154 -0.0675 -0.1785
 2415W        W18889   4.367   9.946   1.935  0.2175  0.1657 -0.1239
 2416W        W18890   2.860   9.972  14.785 -0.0825 -0.0718 -0.0458
 2417W        W18891  15.825   7.812   4.617 -0.0911  0.0812 -0.0731
 2418W        W18892   1.023  15.961   4.401 -0.1205  0.0775 -0.0317
 2419W        W18893  10.140   5.422   2.926  0.1627  0.0394  0.0381
 2420W        W18894   1.977   6.976   1.538 -0.0109 -0.1617  0.0578
 2421W        W18895  17.500  14.797  14.829  0.1096 -0.3019 -0.0213
 2422W        W18896  12.436   0.183  13.290  0.1463 -0.0229 -0.4644
 2423W        W18897   0.041  15.394  15.293 -0.4908  0.0263 -0.2643
 2424W        W18898   0.503  14.661   5.075  0.2046 -0.0941  0.0351
 2425W        W18899   0.801   2.245  14.969 -0.3806 -0.0792 -0.1488
 2426W        W18900   0.482   0.210   1.569  0.0247 -0.2868  0.3743
 2427W        W18901   3.643   2.008  12.464  0.1037 -0.0453  0.1331
 2428W        W18902  14.176  11.809   0.482  0.0475  0.1659 -0.2708
 2429W        W18903   8.221   5.267   4.123  0.1244  0.0179 -0.4087
 2430W        W18904   1.687   9.346   4.573 -0.1185 -0.3129  0.2500
 2431W        W18905   0.246   7.261   2.194  0.2829  0.0868  0.2306
 2432W        W18906  17.977   8.323   4.326  0.0294 -0.0534  0.0917
 2433W        W18907  10.559  14.710   1.679  0.1413 -0.1465  0.2169
 2434W        W18908   7.757  11.183   3.731 -0.0813 -0.1095 -0.2586
 2435W        W18909   6.753  11.265   0.624  0.1890 -0.1437 -0.1102
 2436W        W18910   0.825  16.754   4.370  0.1603 -0.3729 -0.0603
 2437W        W18911  14.956   7.894  15.268 -0.0524 -0.0616  0.2617
 2438W        W18912   0.353  14.791  11.609  0.1283 -0.0611 -0.0370
 2439W        W18913  17.717   3.732   0.715  0.4523  0.1955  0.1660
 2440W        W18914   4.012   3.766   4.638  0.2841  0.1671  0.1327
 2441W        W18915  10.508   8.557   2.393 -0.1377  0.1440 -0.0054
 2442W        W18916   1.668   9.486   0.400  0.0691  0.0320  0.4469
 2443W        W18917  10.447   1.389   3.688 -0.0778  0.1995  0.1222
 2444W        W18918   8.536  14.572   0.491 -0.1717 -0.3542 -0.0726
 2445W        W18919   0.882  12.253  16.734 -0.1760 -0.2572  0.1722
 2446W        W18920  17.439   7.236  13.201 -0.0286 -0.0218 -0.0500
 2447W        W18921  13.058   8.213   2.891  0.4040  0.0605 -0.2253
 2448W        W18922  13.524  16.770  11.715 -0.0599  0.1992 -0.1463
 2449W        W18923   4.183   2.451  12.229 -0.0327  0.0600  0.1281
 2450W        W18924   9.620   4.553   1.779  0.1078  0.0045  0.0105
 2451W        W18925   3.639   6.213   3.749 -0.2285  0.1616  0.2741
 2452W        W18926  13.956   9.940   5.129  0.0393 -0.4130  0.0090
 2453W        W18927   2.854   8.512   4.570  0.1006 -0.1074  0.0907
 2454W        W18928  11.703   2.568   0.340 -0.0592 -0.4271  0.1282
 2455W        W18929   4.827  13.826   4.703  0.3156 -0.1966 -0.0705
 2456W        W18930   9.750   5.641   0.237  0.0046 -0.1757  0.0705
 2457W        W18931  13.707  13.205  12.485 -0.0278 -0.1623  0.0562
 2458W        W18932  14.336   6.929   5.599 -0.0089 -0.3154 -0.1507
 2459W        W18933   2.782   5.255   0.813 -0.3556  0.0652 -0.1457
 2460W        W18934   3.919  11.169  11.001  0.1001 -0.1863 -0.1434
 2461W        W18935  16.329  11.516   1.023  0.0339 -0.0455 -0.1636
 2462W        W18936   7.662   5.942   5.746  0.0412 -0.0674  0.1070
 2463W        W18937  11.769  11.895   1.829  0.0801 -0.1150  0.0373
 2464W        W18938   2.549   2.492   1.115 -0.0838  0.0774 -0.1493
 2465W        W18939   0.231  10.574   4.600 -0.2323  0.5413 -0.2076
 2466W        W18940   5.764   5.107   5.722 -0.0444 -0.1787  0.3802
 2467W        W18941  17.123  11.586  15.017 -0.0541  0.1541  0.0822
 2468W        W18942   9.652   8.056   4.753 -0.2151  0.1420 -0.1414
 2469W        W18943  16.344   6.029   3.308  0.0995 -0.3436  0.0251
 2470W        W18944  17.467   1.012  11.564 -0.0203 -0.3402  0.1337
 2471W        W18945  14.474   3.945   3.605 -0.0785 -0.3373 -0.0187
 2472W        W18946   5.268  12.401  12.328  0.1542  0.1426  0.1388
 2473W        W18947  13.745  12.015  12.149 -0.1030  0.0671  0.3313
 2474W        W18948   4.353   1.656   1.232 -0.0570 -0.0166  0.1112
 2475W        W18949   9.571   1.334   3.364  0.1156  0.2452  0.0448
 2476W        W18950  16.671   7.989   1.689  0.2493 -0.0359 -0.0330
 2477W        W18951   8.983  10.963  11.671 -0.1025 -0.1700 -0.0777
 2478W        W18952  10.864   7.517   5.434  0.1490 -0.0610 -0.2502
 2479W        W18953   6.150  16.293  16.625  0.0438  0.0280  0.0879
 2480W        W18954  16.742   0.856   5.555 -0.4139 -0.2253  0.1804
 2481W        W18955   6.872  11.125  15.771 -0.0412  0.1154  0.2385
 2482W        W18956   1.478   9.534  14.330 -0.1633  0.2528  0.0655
 2483W        W18957   1.592   8.108   2.603  0.1355 -0.0161  0.0981
 2484W        W18958  13.693  17.283  13.015 -0.3497 -0.1736  0.2478
 2485W        W18959  13.460   0.650  15.392  0.0251  0.2997  0.3288
 2486W        W18960  13.097   4.683   0.507 -0.0021  0.1079  0.1191
 2487W        W18961  14.846  17.603   1.576  0.1442  0.0273 -0.2028
 2488W        W18962   7.261  12.347   3.607  0.0256  0.1818 -0.1560
 2489W        W18963   3.331   4.689  15.937  0.0694 -0.0345  0.0567
 2490W        W18964  13.304  12.912   1.663 -0.2461  0.0268  0.2175
 2491W        W18965  10.075   5.918   2.831  0.0167  0.0144  0.0132
 2492W        W18966   3.842  14.332  15.071 -0.1765 -0.3610 -0.1308
 2493W        W18967  11.137  17.990   5.771  0.1032 -0.1122 -0.1149
 2494W        W18968  15.930  10.920  15.192  0.0765  0.1906  0.2877
 2495W        W18969   1.079  16.451   3.628  0.0139 -0.0531  0.1105
 2496W        W18970  15.360   8.265   2.596 -0.2405  0.0356  0.1622
 2497W        W18971   3.773  15.338   2.319  0.1017 -0.0776  0.1658
 2498W        W18972  13.277  15.209   1.271 -0.0367 -0.1249 -0.0146
 2499W        W18973  16.169  12.368   4.949 -0.0086 -0.1410  0.0871
 2500W        W18974  16.583  12.019  12.597 -0.2645 -0.4722  0.2961
 2501W        W18975  17.828   9.347  13.962 -0.0428  0.3009  0.1178
 2502W        W18976  11.268  14.866   2.679 -0.0603  0.3701 -0.4430
 2503W        W18977   5.756   9.139  12.623 -0.0799  0.3056  0.1553
 2504W        W18978  13.301   2.083   3.020 -0.0994  0.0460  0.1167
 2505W        W18979  12.796   3.920   0.652  0.2407  0.1159  0.2162
 2506W        W18980  15.792   8.094   1.918  0.4049  0.0715 -0.1981
 2507W        W18981  11.525  11.037   2.713  0.1455  0.0144 -0.2226
 2508W        W18982   8.914   2.364   2.074  0.2698  0.2800  0.0225
 2509W        W18983  13.324   6.837  12.849  0.1348  0.0582  0.0448
 2510W        W18984  11.517  17.956   2.211 -0.1065  0.0879  0.1886
 2511W        W18985   5.219   9.449  16.482  0.1004  0.0864  0.1536
 2512W        W18986   5.207  10.539  11.596 -0.3199  0.2466  0.0473
 2513W        W18987   9.891   1.455  13.185 -0.1098  0.2517 -0.1635
 2514W        W18988   7.607   6.815  11.812 -0.0436  0.1774  0.1501
 2515W        W18989  12.674   4.720   3.938 -0.1366  0.0501 -0.0833
 2516W        W18990   3.437  14.528   4.690 -0.0826  0.0318 -0.0314
 2517W        W18991   6.659   1.342   2.909  0.0754 -0.1696  0.1410
 2518W        W18992   9.600  14.934   2.550 -0.1669 -0.2339 -0.2670
 2519W        W18993   1.092  11.348  10.814  0.1695  0.2845  0.0204
 2520W        W18994  12.818  17.155  14.039 -0.0377 -0.3810  0.0189
 2521W        W18995  16.735  13.948   0.042  0.1291 -0.3033  0.1803
 2522W        W18996  14.547  12.786   5.633 -0.0993  0.0403  0.0331
 2523W        W18997   3.736  10.901  10.111 -0.0487 -0.0384  0.1188
 2524W        W18998   3.418  14.615  13.080 -0.0621 -0.2664 -0.0996
 2525W        W18999  12.234   0.399   0.206 -0.0396  0.3410 -0.0953
 2526W        W19000  12.698  10.603  11.410 -0.2576 -0.1338 -0.1032
 2527W        W19001  17.377   0.349  14.830 -0.0098 -0.1627  0.0714
 2528W        W19002   1.684   7.876   0.390  0.0633 -0.0494  0.0830
 2529W        W19003   2.020  11.463   3.623 -0.0716  0.0984  0.1349
 2530W        W19004   1.515   8.965  11.116  0.2327  0.2307  0.0314
 2531W        W19005  13.911  16.977   0.801 -0.0487  0.1810  0.2847
 2532W        W19006   0.243   1.289  12.294 -0.1246  0.2043  0.0272
 2533W        W19007  14.638   5.907  15.009 -0.1481  0.0555 -0.1149
 2534W        W19008  16.225   9.167   2.581 -0.3213 -0.4621  0.1795
 2535W        W19009  16.473   2.133  11.657  0.1248  0.0673 -0.0071
 2536W        W19010   3.458  12.857  11.923  0.0101  0.0372 -0.0941
 2537W        W19011  12.527  10.463  15.744 -0.1711  0.0347  0.0481
 2538W        W19012  16.062   9.159  13.279 -0.0651  0.0370  0.0418
 2539W        W19013   4.584   4.770  16.704 -0.0980  0.1025  0.1443
 2540W        W19014   3.221   6.872   0.469 -0.0781  0.2477  0.2982
 2541W        W19015  11.760  13.580   2.368 -0.0441  0.2470 -0.0509
 2542W        W19016  10.864   1.677   1.244  0.1053 -0.1172 -0.0476
 2543W        W19017  10.135  13.540  12.581 -0.0303 -0.0818  0.1426
 2544W        W19018   1.845   1.687  13.513 -0.3845 -0.1235 -0.1091
 2545W        W19019  14.263  11.132  16.165  0.2383  0.0715 -0.0764
 2546W        W19020  14.153  10.869  12.619  0.3347  0.5406  0.1152
 2547W        W19021  12.231  14.752   3.679  0.3278 -0.0614 -0.2784
 2548W        W19022   8.033   6.820   2.980  0.1421  0.1327  0.2770
 2549W        W19023  14.770   7.771  12.020 -0.0408  0.3546 -0.2532
 2550W        W19024  10.505   1.121   2.009 -0.1544 -0.3077  0.0130
 2551W        W19025  16.515   6.005   1.016  0.3019  0.1027  0.0297
 2552W        W19026   3.780  13.334  12.751  0.2153  0.2208 -0.1150
 2553W        W19027  10.277  13.021   0.097  0.1120 -0.0690  0.2446
 2554W        W19028  14.907  15.441   4.384  0.2236 -0.0758 -0.2354
 2555W        W19029  10.922   2.214   1.265  0.2948 -0.1986  0.2999
 2556W        W19030   3.074   8.751   3.091  0.1416  0.1022 -0.1576
 2557W        W19031   1.505  15.533   2.676 -0.0459  0.1619  0.0408
 2558W        W19032   0.973   6.160   2.311  0.0506  0.0644  0.0384
 2559W        W19033   4.273  13.356   3.540 -0.0303  0.2069  0.0784
 2560W        W19034  10.640  12.221   0.579  0.1275 -0.0307  0.0283
 2561W        W19035   0.900   1.271  13.294 -0.1093 -0.0813 -0.2258
 2562W        W19036  12.022   3.762  12.346  0.1085 -0.0256 -0.2128
 2563W        W19037   9.379  17.256   4.265 -0.0480  0.1206  0.1040
 2564W        W19038  11.719  10.673   3.077 -0.0757  0.2321 -0.0645
 2565W        W19039  16.554   8.790   3.456 -0.0742 -0.1540 -0.0996
 2566W        W19040  10.666   3.690   3.419 -0.0330 -0.2137  0.1465
 2567W        W19041  17.574  12.359   0.643  0.1682  0.1349  0.1387
 2568W        W19042   5.241  13.878   2.818 -0.2810  0.1523  0.0715
 2569W        W19043  13.305   0.118  15.991  0.1637  0.1329  0.1089
 2570W        W19044   0.427  14.415  13.410  0.1726  0.0109 -0.2383
 2571W        W19045  13.859  14.456   0.130  0.1980  0.1000  0.4441
 2572W        W19046  14.280   0.939  11.721 -0.3593 -0.1728 -0.0208
 2573W        W19047  16.282  10.839   5.292 -0.2425  0.2163  0.0947
 2574W        W19048  11.109  15.428  14.557  0.0494 -0.1139 -0.1269
 2575W        W19049   3.544   0.440   3.040  0.0074  0.0350  0.0063
 2576W        W19050  16.518  14.847  16.369 -0.3165  0.0483  0.0776
 2577W        W19051   9.071  12.618  14.268  0.2336 -0.1532  0.0649
 2578W        W19052   2.936  14.894  16.742  0.1697 -0.2101 -0.1466
 2579W        W19053   2.624  16.548   5.841  0.2519 -0.0371  0.2169
 2580W        W19054  10.242   9.831   1.145  0.4132  0.0133 -0.2674
 2581W        W19055   9.789   3.473   2.761  0.0523 -0.0119 -0.1713
 2582W        W19056  11.191  15.557  11.794 -0.0560  0.2555  0.2772
 2583W        W19057   2.025  12.171  13.313 -0.0494 -0.3568  0.0996
 2584W        W19058  10.270   9.643  13.624 -0.0837  0.0737  0.2644
 2585W        W19059  15.573   8.308  12.322 -0.0011  0.1900  0.0007
 2586W        W19060   3.530   4.952   3.869  0.1367 -0.0599  0.2131
 2587W        W19061   4.251   6.892   3.813  0.0708 -0.0287  0.0041
 2588W        W19062   0.914  15.526  12.285 -0.1750  0.1805  0.0497
 2589W        W19063   8.943  15.871  14.703  0.1718  0.0839  0.2151
 2590W        W19064  11.805   8.213  15.448  0.1536 -0.1293 -0.1445
 2591W        W19065   4.014   2.203  14.286  0.0837  0.1718 -0.0024
 2592W        W19066  13.953   5.207  15.115  0.0822 -0.3576 -0.0349
 2593W        W19067   2.994  13.422  12.988  0.3386  0.0915 -0.3424
 2594W        W19068  16.884   1.329  13.052  0.2967  0.2467  0.1195
 2595W        W19069   4.301   3.192   2.690  0.0232  0.0844  0.2067
 2596W        W19070   4.242  13.453   0.212  0.0951  0.2823  0.0733
 2597W        W19071   4.946  16.868   2.405  0.1687 -0.2135  0.1832
 2598W        W19072  14.221   9.867   1.689 -0.0072 -0.1723 -0.0443
 2599W        W19073   6.337  15.571   5.013 -0.0694  0.3159 -0.0518
 2600W        W19074   0.149  14.462  12.086  0.2171 -0.0759 -0.0912
 2601W        W19075  14.994   2.367   0.468  0.4385 -0.0609 -0.0311
 2602W        W19076   1.492   2.717   0.163 -0.2804 -0.0137 -0.0824
 2603W        W19077   9.160   0.023   4.099 -0.0412  0.2585  0.1701
 2604W        W19078  10.595  11.838   3.497  0.3235  0.0638  0.2681
 2605W        W19079   0.677  10.752   4.538  0.0835  0.0120  0.1448
 2606W        W19080   7.653   0.561   0.824 -0.0274 -0.4205  0.1435
 2607W        W19081   0.808   6.424   0.582 -0.0611 -0.3682 -0.1365
 2608W        W19082   8.307  16.898  14.594  0.0375 -0.1838  0.1918
 2609W        W19083  15.324   5.532  14.273 -0.0742 -0.0554  0.0024
 2610W        W19084   0.766   7.839   0.972 -0.0780  0.4701 -0.0325
 2611W        W19085   1.789   4.425   2.114 -0.0119  0.1551 -0.1991
 2612W        W19086   9.614   1.372   4.403  0.2000 -0.0722 -0.1734
 2613W        W19087  13.601  10.309   5.247 -0.0660  0.0678 -0.0390
 2614W        W19088   6.235   9.178  14.282 -0.0876  0.3186 -0.0567
 2615W        W19089  14.579  17.453   4.547  0.0722  0.1243  0.0039
 2616W        W19090   6.162   4.474   1.521 -0.2599  0.0321 -0.0258
 2617W        W19091   0.588   5.948  16.064  0.0001  0.3414  0.1468
 2618W        W19092  16.418   7.220   0.497 -0.3721  0.4028 -0.0580
 2619W        W19093  14.963  13.451   1.481  0.1567 -0.0372 -0.1091
 2620W        W19094   2.556   4.040   1.586 -0.0175  0.0295  0.1576
 2621W        W19095   4.913   5.898  13.090  0.1379  0.1543 -0.0670
 2622W        W19096   1.248  12.923   4.595 -0.2091 -0.1295  0.0124
 2623W        W19097  11.724   2.929   6.427 -0.1134  0.0668 -0.0121
 2624W        W19098  14.994  12.445   3.781  0.1897 -0.1107  0.0872
 2625W        W19099   2.274   0.123  13.910  0.0209 -0.3498 -0.0981
 2626W        W19100   2.955   3.991   1.964 -0.0797  0.0427  0.5785
 2627W        W19101   6.037   3.231  13.881  0.0804 -0.3211 -0.0648
 2628W        W19102  12.530   1.482  15.186 -0.0495  0.1136  0.1068
 2629W        W19103   2.351  14.949  14.448  0.0978 -0.2444  0.0298
 2630W        W19104  15.610  13.409   1.848 -0.2331  0.2066  0.1812
 2631W        W19105   0.311   1.599   0.418  0.1260  0.2997  0.2164
 2632W        W19106   5.624  10.958  15.339 -0.2181 -0.2031 -0.1353
 2633W        W19107   8.580   0.921   3.431  0.0501  0.3526  0.0440
 2634W        W19108   7.721   1.175  11.679 -0.1656  0.4772  0.1477
 2635W        W19109   0.035   4.929   0.608 -0.4849 -0.0609 -0.0897
 2636W        W19110  15.544   9.817   3.879 -0.0364 -0.0586  0.0713
 2637W        W19111   7.408  17.567   0.336  0.1523  0.3039  0.4230
 2638W        W19112  16.964  13.151  15.320 -0.1796  0.2343  0.0860
 2639W        W19113   8.281  11.846  14.250  0.0202 -0.1739  0.0811
 2640W        W19114   1.124   5.897   4.182 -0.3160 -0.2011  0.0412
 2641W        W19115   7.273   3.439  12.142  0.0973  0.0611 -0.0871
 2642W        W19116   1.423   6.226   4.513 -0.2170 -0.1168  0.2253
 2643W        W19117   2.545   5.232  16.373  0.1154  0.2003 -0.2026
 2644W        W19118  10.223   5.207   0.267  0.4045  0.1496  0.2047
 2645W        W19119   2.093   0.445   3.585  0.0842 -0.1500 -0.0115
 2646W        W19120  15.996   1.661  15.792  0.0218 -0.0596 -0.1553
 2647W        W19121   4.177   2.655   1.893  0.0420  0.0116 -0.0245
 2648W        W19122   5.114   1.166   0.565  0.0411 -0.0589 -0.0750
 2649W        W19123  17.210  14.454   5.018  0.2563  0.1308  0.2389
 2650W        W19124  16.640   9.588   1.810  0.1246  0.1649  0.0110
 2651W        W19125  14.360   2.132   2.730 -0.4711 -0.3020  0.2538
 2652W        W19126  17.339   8.456  13.012  0.2323 -0.2863 -0.1167
 2653W        W19127  10.035  15.599   0.036  0.1108  0.1851 -0.2016
 2654W        W19128   4.007   9.000   3.487  0.0102 -0.0470 -0.1939
 2655W        W19129   1.312   7.277  12.891 -0.1448  0.1897  0.2035
 2656W        W19130   3.265  12.633  14.841 -0.0561 -0.1472 -0.1839
 2657W        W19131   3.599   6.484  13.387  0.0773 -0.1869  0.1965
 2658W        W19132   0.507  12.401  11.349 -0.2470  0.1839 -0.0428
 2659W        W19133   5.953  16.176   1.959  0.1087 -0.2849  0.2359
 2660W        W19134   4.264  16.747   4.059  0.1282 -0.0257  0.1546
 2661W        W19135  13.045   0.669   0.040  0.1254 -0.0399  0.0586
 2662W        W19136   9.524  15.547  14.334 -0.0212  0.0624  0.0012
 2663W        W19137   5.830  13.302  13.192  0.0747 -0.3192 -0.1627
 2664W        W19138  16.796  11.544   3.944 -0.0895  0.0808  0.1696
 2665W        W19139   1.711  13.743   0.313 -0.0535 -0.0641 -0.0240
 2666W        W19140   2.917  17.550   0.067 -0.1165 -0.0744 -0.2038
 2667W        W19141  10.784   3.202   0.221 -0.1111 -0.4618 -0.0221
 2668W        W19142   5.399  10.371   1.267  0.2828  0.2956  0.1970
 2669W        W19143  16.044   0.047   5.597  0.0624  0.2348  0.0084
 2670W        W19144  15.780   8.106   2.411 -0.0619 -0.1523  0.0979
 2671W        W19145   4.321   5.530   3.843 -0.2928 -0.0920 -0.1451
 2672W        W19146   3.864   7.334   1.715 -0.2610  0.0255  0.0312
 2673W        W19147  14.306   2.495   5.655  0.0551 -0.2155  0.0745
 2674W        W19148   2.652   1.039   4.689 -0.1199 -0.1025  0.0735
 2675W        W19149  17.636  13.876  16.770  0.2393  0.2370 -0.3216
 2676W        W19150  10.965   0.319   1.077 -0.2388  0.0971  0.1669
 2677W        W19151  15.318   4.824  11.733  0.4011 -0.1533 -0.0893
 2678W        W19152   0.248   4.179  13.906  0.1273  0.0613 -0.1634
 2679W        W19153   2.808   9.005  11.825 -0.1453 -0.4278  0.0168
 2680W        W19154  10.737  11.110  15.815 -0.1153 -0.2605  0.0829
 2681W        W19155   9.747  10.467  16.393  0.0858  0.0225  0.2390
 2682W        W19156   7.861  16.770   5.556  0.0935  0.0169  0.4733
 2683W        W19157  13.814  14.666  13.215 -0.4848  0.0039  0.3446
 2684W        W19158  11.076  16.716  14.618 -0.1027 -0.1661 -0.1591
 2685W        W19159   7.613  14.080   0.321  0.1196  0.3534 -0.3380
 2686W        W19160  16.095   9.384  11.284  0.1576  0.1989  0.1799
 2687W        W19161  12.247   0.388   2.612  0.0654  0.0546  0.1538
 2688W        W19162  12.830   0.371   1.346 -0.0403 -0.0285 -0.3961
 2689W        W19163   1.300   0.218   5.669  0.1385  0.0140 -0.1682
 2690W        W19164   6.048   8.605   4.083  0.1381  0.1201 -0.1834
 2691W        W19165  12.489   9.228  13.895  0.0195 -0.0208  0.3673
 2692W        W19166   6.867  13.742  11.700  0.3418 -0.0839 -0.2024
 2693W        W19167   5.030  10.375  16.438  0.3442 -0.0185  0.0272
 2694W        W19168  10.001  15.232   3.319 -0.2782 -0.1878  0.0666
 2695W        W19169   6.190  11.904   1.701 -0.3935 -0.0119  0.0134
 2696W        W19170  17.028  11.319  13.332 -0.1886 -0.0860  0.2322
 2697W        W19171   6.070  15.733  12.334  0.1285 -0.3169 -0.2002
 2698W        W19172   3.498  12.231  13.345 -0.0610  0.1185  0.1153
 2699W        W19173  11.376   8.672  15.435 -0.0443  0.0767  0.2420
 2700W        W19174  15.295   0.411  13.211  0.0789 -0.0669  0.2280
 2701W        W19175  11.561   0.641  11.414 -0.4212  0.2066 -0.0137
 2702W        W19176   1.803  15.658  13.390  0.0304 -0.2349  0.3163
 2703W        W19177   3.064   4.088  12.397  0.0247  0.1441  0.3176
 2704W        W19178   4.810   4.885  12.137  0.1950 -0.1136  0.1661
 2705W        W19179  12.946   9.628  16.349 -0.0095  0.3061  0.0548
 2706W        W19180   7.375   8.370  13.343 -0.0145 -0.3601 -0.0256
 2707W        W19181  15.459   8.535   3.717  0.0586 -0.0334  0.0297
 2708W        W19182  14.113  12.222   3.690  0.2149 -0.3353  0.4169
 2709W        W19183   2.821  11.120  15.507  0.0016 -0.0656 -0.2615
 2710W        W19184  12.818   2.089  12.509  0.1590  0.2052  0.2277
 2711W        W19185   9.443   9.905  13.261 -0.0985 -0.1538  0.0395
 2712W        W19186  12.527  12.313   2.020  0.3238  0.0599  0.0698
 2713W        W19187   8.923  12.082   0.660 -0.1863  0.1833  0.0751
 2714W        W19188  12.571   5.437  11.978 -0.0347 -0.0228  0.1323
 2715W        W19189   5.675   8.202   2.519 -0.1278  0.0995  0.1184
 2716W        W19190   6.149   6.332   1.253  0.0021 -0.0032 -0.2152
 2717W        W19191  10.550   0.679   5.319 -0.0961  0.0009  0.0417
 2718W        W19192   9.909   8.891   4.014  0.3113 -0.1087  0.0841
 2719W        W19193  11.454  13.319  12.001 -0.0084  0.1402 -0.0830
 2720W        W19194   5.693   2.570   3.593  0.0979  0.0976  0.1309
 2721W        W19195   6.503   6.470   3.300  0.1412 -0.0882 -0.0502
 2722W        W19196  10.547  10.465  13.203 -0.2009 -0.2401  0.1676
 2723W        W19197   3.492   8.739   0.563  0.1817 -0.0558  0.1399
 2724W        W19198  16.132   8.341   4.273 -0.0347  0.0619  0.0169
 2725W        W19199  14.384   8.136  14.739  0.0341  0.0118  0.1120
 2726W        W19200   7.027  12.578  11.345 -0.1094 -0.0950  0.0106
 2727W        W19201  11.838  17.999  12.178  0.1517  0.0404  0.0146
 2728W        W19202  13.096   9.297  16.679 -0.0526  0.0148  0.0391
 2729W        W19203   3.255   2.293   1.983  0.0153 -0.1451  0.3697
 2730W        W19204  16.740   7.709   4.654  0.0461 -0.4008  0.0967
 2731W        W19205   0.970   1.374   3.877 -0.0010 -0.0383 -0.1644
 2732W        W19206  12.726  17.187  12.277  0.0608 -0.0606 -0.0685
 2733W        W19207  17.397   6.241   4.385  0.0011  0.6138 -0.4006
 2734W        W19208   4.987   9.923   3.752 -0.0899  0.3256 -0.3176
 2735W        W19209  16.694  13.893   4.361 -0.1166 -0.1869 -0.0914
 2736W        W19210   0.431   4.202  14.622 -0.1782  0.0573  0.0825
 2737W        W19211  10.817  10.626   0.485 -0.1092 -0.0851  0.0774
 2738W        W19212   2.560   1.768  15.153 -0.0546  0.1029  0.3220
 2739W        W19213   9.118   2.037   3.969 -0.0265  0.3650  0.2760
 2740W        W19214  11.828  11.153   3.302  0.3066 -0.1699 -0.0891
 2741W        W19215   9.804   2.388  16.528  0.0527 -0.1264  0.1768
 2742W        W19216   4.752   7.918   0.004 -0.1390 -0.0355  0.0077
 2743W        W19217  17.485  14.894   1.113  0.0136  0.3438 -0.3371
 2744W        W19218   6.158   9.674  14.112  0.0005 -0.1463  0.0726
 2745W        W19219  11.729   8.067  14.238  0.1249  0.0429  0.0130
 2746W        W19220   4.341  15.488  16.148 -0.1581  0.3460  0.0023
 2747W        W19221  13.497   4.272   3.155  0.2580 -0.0101  0.0864
 2748W        W19222  10.596   1.185   4.540 -0.1936  0.0248 -0.1199
 2749W        W19223   9.536  10.259   4.782 -0.0433  0.2262  0.3116
 2750W        W19224   2.321   7.080   4.253 -0.1204 -0.1535 -0.0925
 2751W        W19225   6.118  15.057  11.177 -0.2266  0.4168  0.0627
 2752W        W19226   6.622   0.695   1.071  0.1198  0.1941  0.0478
 2753W        W19227   5.981  10.407  14.271 -0.2474  0.4862 -0.0093
 2754W        W19228   0.894   2.125   5.695  0.0294  0.2164  0.2854
 2755W        W19229   1.626  17.970  12.128  0.2153 -0.3856  0.1781
 2756W        W19230  12.092   8.275   3.032 -0.0263 -0.1989  0.2915
 2757W        W19231  10.491  12.817   2.084 -0.2209  0.4245  0.1439
 2758W        W19232  12.881   8.243   0.326  0.2734  0.4816  0.1092
 2759W        W19233   3.595   4.874   0.708  0.2157  0.0819  0.1421
 2760W        W19234   5.352  16.012  13.316 -0.3458 -0.2199  0.1264
 2761W        W19235  12.725   8.906  14.855 -0.2294  0.0207  0.3126
 2762W        W19236  11.224   1.357   4.866 -0.0046 -0.0051 -0.1446
 2763W        W19237  11.346   1.900   3.471 -0.0849  0.0671  0.2851
 2764W        W19238  14.976  13.647   2.342  0.3207  0.1118  0.3212
 2765W        W19239   4.140   8.585   3.701 -0.0161  0.2425 -0.0487
 2766W        W19240  10.297  11.309  16.452  0.0917  0.1756  0.3933
 2767W        W19241  13.990  10.563  14.663 -0.2849  0.1816  0.1189
 2768W        W19242   5.284  11.645  14.142 -0.0009 -0.1836 -0.1518
 2769W        W19243   1.654  16.665  16.206 -0.0290 -0.3151  0.1730
 2770W        W19244   0.050  14.054  13.315  0.3714 -0.0953  0.0160
 2771W        W19245  10.192   2.802   1.530 -0.0769  0.0273 -0.1962
 2772W        W19246   2.200  10.031   1.224 -0.2013  0.0763  0.0033
 2773W        W19247   8.815  15.050   1.904  0.0690  0.0987  0.3301
 2774W        W19248   9.869   9.284  12.889 -0.1160  0.3023  0.2463
 2775W        W19249  10.119   9.665  12.534  0.0570  0.0100  0.0165
 2776W        W19250   8.006  13.430   3.614 -0.1084 -0.0904  0.0546
 2777W        W19251  16.900   2.957  12.805  0.0959 -0.2693  0.2992
 2778W        W19252   5.616   4.672   4.665 -0.2377 -0.1226 -0.3785
 2779W        W19253   3.047  15.980  15.587 -0.0694  0.1998 -0.1577
 2780W        W19254   9.862  15.799  15.546 -0.0113 -0.2659 -0.0270
 2781W        W19255   6.886   2.946   0.824  0.1643 -0.0803 -0.5147
 2782W        W19256   1.574  16.277  12.035  0.2514  0.0035 -0.3258
 2783W        W19257   2.171  17.547  14.792  0.2392 -0.0713  0.1335
 2784W        W19258   1.371  15.509  16.430 -0.1304  0.2237  0.0165
 2785W        W19259  17.076  14.503   1.907 -0.2727  0.2907  0.2009
 2786W        W19260   2.338  15.372  16.562  0.1102  0.0655 -0.0256
 2787W        W19261   9.732  14.824   0.197 -0.2562  0.0656  0.2040
 2788W        W19262  12.318   0.784   0.643 -0.3071  0.0121 -0.1157
 2789W        W19263  12.590  17.957   2.531  0.2241  0.1588  0.0973
 2790W        W19264   8.820  13.613   0.490 -0.1488 -0.1066  0.0075
 2791W        W19265  13.449  15.157  13.328  0.1852 -0.1502 -0.1440
 2792W        W19266   2.792   7.143   2.453  0.0900 -0.0096  0.2770
 2793W        W19267   7.804   8.956   0.126  0.0474  0.3238  0.0218
 2794W        W19268   2.622  13.846   2.911 -0.1830 -0.1536 -0.1238
 2795W        W19269   3.353   5.294  13.761  0.2060 -0.0433  0.1048
 2796W        W19270   0.153  16.480  14.790 -0.3941  0.0598  0.2193
 2797W        W19271   4.381  12.095   3.419 -0.3115 -0.0619  0.2625
 2798W        W19272  10.273  13.283  14.328 -0.3219 -0.0190 -0.0707
 2799W        W19273   2.790  10.909  14.936 -0.4886  0.0819  0.1668
 2800W        W19274  17.395  17.062  16.337  0.0263 -0.3235  0.1086
 2801W        W19275   1.225   2.439  12.041 -0.0895  0.1376 -0.0396
 2802W        W19276   1.892  15.663  15.107  0.0579 -0.0529  0.0524
 2803W        W19277   9.988   8.407  12.763  0.1609  0.1089 -0.2392
 2804W        W19278   9.539  17.173  16.229  0.1191 -0.2376  0.0518
 2805W        W19279   5.905  13.155  12.574 -0.0174  0.0227  0.4500
 2806W        W19280  11.993   5.705  12.816 -0.1289  0.2282 -0.0343
 2807W        W19281   9.431   1.552  11.899 -0.0813  0.1068  0.1332
 2808W        W19282  14.764   8.270  11.252  0.0662  0.0110 -0.0263
 2809W        W19283  10.734  15.654  15.525 -0.0303  0.1014 -0.2564
 2810W        W19284  13.772  17.770  12.986  0.0027 -0.0045  0.0506
 2811W        W19285  16.668   0.695   2.589  0.1880  0.0977 -0.0670
 2812W        W19286   7.376   3.975  14.891  0.0382 -0.0374  0.2574
 2813W        W19287  10.857  16.070   0.782 -0.0975 -0.2082  0.0418
 2814W        W19288  10.335  11.530   0.126 -0.1154 -0.2221  0.0038
 2815W        W19289   6.615   7.600  12.904  0.3204  0.0203 -0.0559
 2816W        W19290   3.917  13.323   2.565  0.2310 -0.0185  0.0360
 2817W        W19291  10.710   1.844  14.334 -0.3028  0.1529 -0.3361
 2818W        W19292   9.605   5.659   2.101  0.2897  0.0495 -0.3188
 2819W        W19293   4.415   7.869  14.943  0.0914 -0.1183 -0.3960
 2820W        W19294  12.809   9.391  14.841 -0.1969 -0.2129 -0.1375
 2821W        W19295   1.295   7.037   1.232  0.1782  0.3044 -0.1647
 2822W        W19296  11.647   1.829   6.050 -0.0182  0.1913 -0.0592
 2823W        W19297   4.833   6.688   3.101 -0.1575  0.3693 -0.1278
 2824W        W19298   4.259  16.931  15.562  0.1142  0.1012 -0.1322
 2825W        W19299   5.196   9.564  14.716 -0.1452 -0.2394  0.3477
 2826W        W19300  12.422   4.539   2.513 -0.1110 -0.1903  0.3516
 2827W        W19301   1.622  13.740  16.566  0.0308  0.0004 -0.0872
 2828W        W19302  12.752   5.623   4.464  0.2487 -0.0379  0.0019
 2829W        W19303   8.904   8.882   2.885 -0.1394  0.0437  0.0913
 2830W        W19304   8.943   1.017   5.374  0.2606  0.1107  0.2529
 2831W        W19305   4.304  13.421  12.796 -0.0371  0.2216  0.0745
 2832W        W19306   1.174  11.233  12.601  0.0816  0.1062  0.1897
 2833W        W19307   9.816   8.911  16.064  0.0363  0.0271 -0.0585
 2834W        W19308   7.424   2.526   0.209 -0.0453  0.2094  0.0955
 2835W        W19309   2.619   5.657  14.516  0.4480 -0.1581  0.1521
 2836W        W19310   9.028   7.571   0.591  0.1100  0.3349 -0.0315
 2837W        W19311  14.713   6.239   4.539 -0.2575  0.1979 -0.1991
 2838W        W19312  16.924   7.513   1.918 -0.3137 -0.0094 -0.2248
 2839W        W19313  16.217  17.326   0.273  0.1247  0.5282  0.1775
 2840W        W19314   7.760   1.199   4.787 -0.0710  0.3010  0.0110
 2841W        W19315   3.685  17.048   1.348 -0.3276  0.0563 -0.1221
 2842W        W19316  16.167   0.059  13.520  0.2849 -0.1026 -0.2223
 2843W        W19317  11.109   5.715  13.889  0.2850 -0.2819  0.4238
 2844W        W19318  15.117   1.734  16.672 -0.0493  0.0076 -0.2810
 2845W        W19319   9.236  17.784   3.675  0.2029  0.3208 -0.0098
 2846W        W19320  17.297   5.915   4.917 -0.0862 -0.0968  0.0916
 2847W        W19321   6.181  13.192   0.458 -0.1019  0.0320 -0.0018
 2848W        W19322  15.680   9.175   2.621 -0.1734  0.1294 -0.2444
 2849W        W19323  17.526   6.043   3.085  0.1282 -0.3859  0.0110
 2850W        W19324  14.710  14.968   3.484 -0.0510  0.1099  0.1304
 2851W        W19325   4.968   3.035  14.904 -0.1441 -0.0893  0.1278
 2852W        W19326   7.405   1.601  11.757  0.0112  0.2785  0.5165
 2853W        W19327  11.783  14.630  14.919  0.0297  0.2871 -0.1311
 2854W        W19328  15.547   2.817  15.319  0.1612  0.5259 -0.1399
 2855W        W19329   4.409  12.506   4.849 -0.0538 -0.0303 -0.0292
 2856W        W19330   0.354   9.997  13.376  0.3047 -0.2019  0.2739
 2857W        W19331  11.271   2.917  14.844  0.0026 -0.0445  0.0053
 2858W        W19332  14.193   9.317  13.636 -0.0926  0.0220 -0.0119
 2859W        W19333   4.598   6.976   4.829 -0.0561 -0.3989  0.1977
 2860W        W19334   5.121  14.370  16.383  0.1724  0.1285 -0.0581
 2861W        W19335   5.258  17.494   3.054 -0.1422  0.0087  0.2523
 2862W        W19336  15.319   4.831  13.355 -0.1396 -0.0234  0.4006
 2863W        W19337   9.846  10.424  13.015  0.2975 -0.2587  0.3083
 2864W        W19338  14.744  15.613  13.214 -0.4560  0.0925 -0.0581
 2865W        W19339  14.396   4.039   3.020  0.2180 -0.1593  0.1723
 2866W        W19340   3.544   9.050   3.683  0.1953  0.1806  0.0162
 2867W        W19341   2.243   5.165   3.902  0.1743  0.2735 -0.0373
 2868W        W19342   7.946  10.457  11.130  0.0417  0.1205 -0.0428
 2869W        W19343   3.426  14.366   4.144  0.0472  0.1177 -0.4669
 2870W        W19344  10.427   8.920   2.767  0.0841  0.6210  0.1370
 2871W        W19345   0.438  12.540  16.451  0.1848 -0.0059  0.0030
 2872W        W19346  10.055  13.366  13.050 -0.0582  0.0054  0.1091
 2873W        W19347  11.900   6.268  14.899 -0.0638  0.0362 -0.1260
 2874W        W19348   8.038  15.399   2.986 -0.0675  0.2445 -0.1321
 2875W        W19349   9.554  15.392   0.045 -0.1253  0.0619  0.4348
 2876W        W19350   2.590   7.648   4.093  0.0964 -0.1027  0.1499
 2877W        W19351   4.604   8.413   1.363 -0.1232 -0.0369  0.0355
 2878W        W19352   4.879   7.085   2.705  0.0543 -0.3798 -0.0083
 2879W        W19353  12.588   8.727   3.459  0.1961  0.0419  0.0985
 2880W        W19354   8.647   1.650  11.302  0.2375  0.1166 -0.0435
 2881W        W19355   1.373   5.248  12.444 -0.0686  0.0062 -0.0114
 2882W        W19356  11.642  12.933  16.620 -0.0201  0.1257  0.1314
 2883W        W19357  16.730   2.044  16.065  0.0043 -0.2255 -0.1735
 2884W        W19358  17.254  14.931   1.997  0.1963 -0.1051 -0.1129
 2885W        W19359  16.889   5.726   5.764  0.0739  0.2097 -0.3573
 2886W        W19360   5.057  12.210   1.402  0.0793  0.2159  0.0387
 2887W        W19361   7.939  14.413  13.341  0.2725  0.0652 -0.1290
 2888W        W19362  13.929  17.483   0.873 -0.0925  0.0103 -0.1073
 2889W        W19363   8.835   2.186  15.740  0.0495 -0.0638  0.0452
 2890W        W19364  11.762  10.225   0.761  0.0289 -0.1475 -0.1382
 2891W        W19365  10.010   7.459   1.589 -0.0093 -0.0017 -0.0775
 2892W        W19366  17.214   5.760   2.365  0.0227 -0.0416 -0.0613
 2893W        W19367   3.770  15.120  13.808  0.1974 -0.0621  0.2187
 2894W        W19368  11.378  10.977   3.238 -0.0230 -0.1288  0.0395
 2895W        W19369  15.493  13.182   4.444  0.0213  0.0309 -0.1317
 2896W        W19370   0.044  14.325  13.732  0.3518 -0.0300  0.1113
 2897W        W19371   3.271  10.094  16.221 -0.0633  0.0023 -0.1983
 2898W        W19372   5.631   4.994  14.419  0.0912  0.4726  0.4186
 2899W        W19373   6.201   5.809   2.838  0.0607 -0.1119  0.0214
 2900W        W19374  12.081  11.473   1.793 -0.2090 -0.0179  0.0652
 2901W        W19375  16.510  12.517   1.927  0.0245  0.1729 -0.1699
 2902W        W19376   2.453  12.628   3.948 -0.0312  0.0073 -0.0030
 2903W        W19377  12.398  17.594   3.274 -0.0041 -0.2801  0.2509
 2904W        W19378  12.970   8.404   5.592  0.0896  0.1779  0.0337
 2905W        W19379   1.507   8.822  14.281  0.2309 -0.0863  0.2681
 2906W        W19380   4.438   9.075   3.739 -0.1766  0.1294  0.0483
 2907W        W19381  17.653   5.338  14.273  0.1721  0.0400 -0.2289
 2908W        W19382   7.154   1.501   2.951 -0.1287 -0.2868 -0.1798
 2909W        W19383  15.204  13.430  14.066  0.1264  0.2367  0.2395
 2910W        W19384   1.444   8.913  12.238  0.0195  0.2017 -0.1262
 2911W        W19385  12.822  15.048   2.966 -0.3506 -0.0195  0.1617
 2912W        W19386  11.929  10.098  12.366  0.0130  0.3030 -0.2443
 2913W        W19387   8.859  10.281   4.300  0.1043  0.0613 -0.1217
 2914W        W19388  11.641   7.087   4.214  0.1988  0.0168 -0.0306
 2915W        W19389   1.195  10.802   1.684 -0.1850 -0.1567  0.2666
 2916W        W19390  12.136   6.703   2.009 -0.0927 -0.0738 -0.0213
 2917W        W19391  11.547   3.126  13.156 -0.2297  0.3155  0.0683
 2918W        W19392   5.367  16.438   5.071 -0.0035 -0.1388  0.3017
 2919W        W19393  13.042  12.230  13.613  0.0325  0.1047 -0.1524
 2920W        W19394   1.377   2.496   0.753  0.2438  0.0071 -0.1465
 2921W        W19395   2.439  11.114   5.343  0.0924  0.2993 -0.0928
 2922W        W19396  10.446   7.205   3.635 -0.0424 -0.2608 -0.1161
 2923W        W19397  13.329  12.560  13.938 -0.0482  0.0264 -0.1460
 2924W        W19398  17.823  17.574   5.020  0.0961  0.0744 -0.1198
 2925W        W19399  17.578   7.983   2.553 -0.1756 -0.0958  0.0419
 2926W        W19400   4.892   2.483   2.708  0.0191  0.2313  0.0564
 2927W        W19401   7.013  17.259  14.406  0.1189  0.1592  0.0646
 2928W        W19402   3.577   5.862  14.313 -0.0561  0.4240 -0.0299
 2929W        W19403  16.263   5.223   1.546 -0.0935  0.2372  0.2329
 2930W        W19404  14.060   0.061  13.850 -0.1445 -0.0316 -0.0836
 2931W        W19405  12.654  16.909  12.690 -0.1182 -0.2264 -0.0594
 2932W        W19406  17.788   8.363   3.872 -0.1955  0.0607 -0.0706
 2933W        W19407   1.175  12.698   4.139  0.3304  0.0710  0.0921
 2934W        W19408   7.490   6.751  15.097  0.1814 -0.0845  0.1835
 2935W        W19409   9.631   2.871  12.931 -0.2429 -0.2186 -0.0148
 2936W        W19410   0.803   7.767   2.346  0.0316  0.3009  0.2711
 2937W        W19411   1.095   8.998   0.304 -0.0414 -0.0736  0.1568
 2938W        W19412  17.853   7.671  12.573 -0.0480 -0.0565  0.0043
 2939W        W19413  15.478  11.186  14.034  0.0242  0.3698  0.0800
 2940W        W19414  17.397  15.586   3.886  0.3252 -0.0603  0.1187
 2941W        W19415   5.221  13.629  12.716 -0.0673  0.0171 -0.0131
 2942W        W19416  12.071   3.282   0.877  0.3795 -0.0371  0.1596
 2943W        W19417   4.606   5.680   0.474 -0.3046  0.2389 -0.2059
 2944W        W19418   8.975  15.154  15.314 -0.0886  0.0376  0.0602
 2945W        W19419   3.278  16.765  15.812  0.0967 -0.0410  0.0123
 2946W        W19420   3.586   4.331  14.733 -0.0044 -0.1111 -0.0537
 2947W        W19421   7.698   9.925   0.063 -0.0101 -0.0446  0.4006
 2948W        W19422   6.623  16.656   1.020  0.1813  0.4971  0.0547
 2949W        W19423   1.204   3.845  12.221 -0.0058  0.1548  0.0287
 2950W        W19424  11.619   0.183  13.579 -0.0857  0.4979  0.1494
 2951W        W19425   9.124   7.570   5.263 -0.0599 -0.1542 -0.0590
 2952W        W19426  13.276  12.613  15.307  0.2492  0.0509 -0.0020
 2953W        W19427   9.804  17.774   0.837 -0.0294 -0.0984 -0.2488
 2954W        W19428  15.075   5.516  11.767 -0.3095 -0.2541 -0.0116
 2955W        W19429   3.572   2.141   1.045  0.0271  0.0870  0.0737
 2956W        W19430   1.582   4.698  12.461  0.0057  0.2962  0.1210
 2957W        W19431  14.932  16.759   0.308  0.0269 -0.3085  0.4402
 2958W        W19432   7.057   9.220  12.234 -0.0934  0.0409  0.0497
 2959W        W19433  17.078   9.361   4.033 -0.3349 -0.0965 -0.0454
 2960W        W19434  13.883   8.069  13.955 -0.2718  0.0522  0.1912
 2961W        W19435   7.347  15.323   3.138 -0.0054  0.0324  0.0690
 2962W        W19436   8.795  16.053   4.769  0.1155 -0.0893  0.0848
 2963W        W19437  12.182   4.879  11.679  0.0166 -0.1154 -0.0546
 2964W        W19438   3.068   1.936   3.615  0.0994  0.0872 -0.3234
 2965W        W19439  14.047  15.214  14.630  0.0093 -0.1370  0.3404
 2966W        W19440   5.194   1.812  13.649 -0.0766 -0.1502  0.0010
 2967W        W19441  13.029  16.864   0.078 -0.4272  0.1790 -0.1041
 2968W        W19442  10.079  13.911   1.626 -0.1374  0.1267 -0.1749
 2969W        W19443  15.651  13.106   0.184  0.0982 -0.1475 -0.2082
 2970W        W19444   8.949   4.945   0.053  0.1938  0.2803  0.0110
 2971W        W19445  10.839   6.854  15.532 -0.1342 -0.1317 -0.3071
 2972W        W19446   1.285   3.266  12.965 -0.0549 -0.1529  0.2732
 2973W        W19447  11.423  10.226   3.194 -0.1290 -0.0647  0.1384
 2974W        W19448  10.984   5.814   0.580 -0.0234 -0.2251  0.0865
 2975W        W19449  15.582  11.699  15.691  0.1226  0.0290  0.1147
 2976W        W19450  10.099  12.220  13.591 -0.0568 -0.1033  0.0663
 2977W        W19451   5.011  12.700   1.031 -0.2298 -0.1038 -0.1315
 2978W        W19452  14.779   8.748   4.444 -0.0190 -0.0769  0.0065
 2979W        W19453   2.237   7.570  13.142 -0.0010 -0.2291  0.0914
 2980W        W19454   5.162   9.059  14.918 -0.0368  0.0784  0.0297
 2981W        W19455   5.295   7.097   5.389  0.0024 -0.2183  0.0294
 2982W        W19456   7.247  12.069   4.615  0.1702  0.2133 -0.1418
 2983W        W19457   1.842   9.161   1.269  0.3352  0.2298 -0.1381
 2984W        W19458   6.345   8.383   0.454 -0.2033 -0.3711 -0.1016
 2985W        W19459   9.205   3.582  14.402  0.0212  0.0133  0.2723
 2986W        W19460   5.589  10.735   1.475  0.2239 -0.2063  0.0608
 2987W        W19461   7.078  10.262   5.040 -0.3387  0.1564 -0.1805
 2988W        W19462  15.620  17.023  14.584 -0.4585  0.2499  0.1457
 2989W        W19463   0.508  16.443   1.937 -0.0818  0.1843  0.1104
 2990W        W19464   4.655   8.463  13.677  0.0297  0.1310  0.4380
 2991W        W19465   4.564  16.329   2.561 -0.3175 -0.0391 -0.0177
 2992W        W19466  11.506  13.407  16.733  0.0314 -0.0039 -0.1366
 2993W        W19467   9.936  16.468   4.101  0.2129  0.0560 -0.1907
 2994W        W19468   5.629   0.168  15.740  0.2600 -0.1235 -0.1637
 2995W        W19469   0.130  15.119   0.371  0.0724 -0.0504 -0.0572
 2996W        W19470  12.268   0.402   0.959  0.0262 -0.3154 -0.0815
 2997W        W19471  14.182  16.716   6.278 -0.2203 -0.1327  0.1346
 2998W        W19472  12.339   7.187   1.068  0.2403 -0.2019  0.0104
 2999W        W19473   0.586  16.551  16.712  0.1150  0.1446 -0.1260
 3000W        W19474  16.382  14.939  14.038  0.1446  0.0328 -0.1158
 3001W        W19475   0.409  13.589   1.694 -0.3447 -0.1124  0.0886
 3002W        W19476   0.464  17.250  16.068  0.0539  0.0627 -0.2206
 3003W        W19477  10.722  10.568  12.678  0.1182  0.1432 -0.1244
 3004W        W19478  16.348   4.224  14.736  0.1031  0.1054  0.0872
 3005W        W19479  12.759   1.124  12.759 -0.1536 -0.2171  0.1174
 3006W        W19480   7.213   9.205  11.761  0.0573 -0.0585  0.0040
 3007W        W19481   4.392  12.294  16.594 -0.1642  0.2437 -0.1654
 3008W        W19482   0.252  15.037   3.794  0.1062 -0.0838 -0.1321
 3009W        W19483   2.970   4.066  14.806  0.1624  0.0283  0.2577
 3010W        W19484   6.259  14.150  13.933  0.1525 -0.4504 -0.3131
 3011W        W19485  13.561   8.063   4.825  0.1108  0.0073  0.1061
 3012W        W19486   7.904  10.683   0.605  0.2850 -0.1383  0.4073
 3013W        W19487  11.969   5.885   1.296 -0.1299 -0.2193  0.0717
 3014W        W19488  16.088   0.116   3.041 -0.0890 -0.0977  0.2656
 3015W        W19489  15.512   5.313  11.637 -0.2123 -0.0311 -0.0206
 3016W        W19490  15.969  17.611  11.945  0.0079  0.2101  0.0166
 3017W        W19491  15.322   9.409   0.286  0.0662 -0.1439  0.3569
 3018W        W19492   7.757   5.229  12.652  0.1493  0.1349 -0.1543
 3019W        W19493   1.533   9.929  13.559 -0.3763  0.1288 -0.2103
 3020W        W19494  16.754   3.194   2.059  0.0314  0.3766 -0.0220
 3021W        W19495   8.973   7.871  12.147  0.1049  0.1254 -0.1405
 3022W        W19496   9.798   0.006  15.267  0.0614 -0.1709 -0.0367
 3023W        W19497   9.174  11.260   2.469  0.1527 -0.3643  0.3936
 3024W        W19498  10.773   3.664  15.179  0.1634  0.2296  0.0251
 3025W        W19499  10.544  16.614   1.511 -0.2099  0.1332 -0.1542
 3026W        W19500  11.106  16.656   5.328 -0.1700  0.2347 -0.0372
 3027W        W19501  12.115  13.889   2.563  0.0648 -0.2808  0.2114
 3028W        W19502  12.541   2.274  14.617 -0.0921 -0.1066  0.3770
 3029W        W19503   3.681  11.771   4.079  0.1274 -0.0886  0.0748
 3030W        W19504   4.219   6.029   5.261 -0.1170 -0.0858  0.1882
 3031W        W19505  17.020   3.439  14.220 -0.0472  0.0013 -0.0867
 3032W        W19506   9.515   6.012   3.065  0.1992 -0.0228  0.0550
 3033W        W19507  14.068   4.438  12.273  0.3234  0.0042  0.0229
 3034W        W19508  11.945  10.859  14.075 -0.0698 -0.0754  0.2300
 3035W        W19509   7.613   8.976  14.716 -0.0293 -0.2907  0.1075
 3036W        W19510  15.315  12.063  15.402 -0.3714 -0.1593  0.1456
 3037W        W19511   4.268  10.457   1.681 -0.1814 -0.2169  0.2790
 3038W        W19512   7.486   8.864   5.796  0.0651 -0.1098 -0.0421
 3039W        W19513   0.702   8.728  13.657  0.0764 -0.2643 -0.1157
 3040W        W19514   9.769   4.739  13.880 -0.2600  0.3967 -0.1903
 3041W        W19515  14.661  14.618   1.101 -0.0832  0.2374  0.0589
 3042W        W19516   3.795  10.351  16.730 -0.0267  0.0488  0.0211
 3043W        W19517   7.021   7.230  12.188 -0.1189 -0.1718  0.2344
 3044W        W19518   0.029   3.164  16.263 -0.0120 -0.2685 -0.0331
 3045W        W19519   1.267   4.644   5.364  0.1038 -0.2760  0.3117
 3046W        W19520   8.147  13.439  11.660 -0.2644 -0.2084 -0.0817
 3047W        W19521  10.750   1.801  12.515  0.0579 -0.4009  0.0213
 3048W        W19522  17.075   6.849  14.827  0.0536  0.2260  0.0949
 3049W        W19523   4.555  12.772  11.810  0.2259  0.0324  0.0356
 3050W        W19524  10.280  10.270   1.380 -0.0187  0.2175 -0.0777
 3051W        W19525   9.081  15.083  11.387 -0.4546  0.0441 -0.2914
 3052W        W19526   6.991   9.966   6.124  0.0321 -0.1513 -0.0197
 3053W        W19527   7.164  15.782  11.715 -0.0441 -0.3748 -0.1361
 3054W        W19528   5.405   4.231  16.473  0.1064  0.0777 -0.2160
 3055W        W19529   7.559   5.322   4.737 -0.1989 -0.0105 -0.0563
 3056W        W19530  17.057   2.144  16.487 -0.0307 -0.0140  0.4018
 3057W        W19531   6.991   7.961   5.111  0.2955 -0.2804 -0.2340
 3058W        W19532   9.700   9.157  16.572 -0.2425  0.2367  0.0048
 3059W        W19533   1.641   2.611  11.634  0.1956 -0.0089 -0.2397
 3060W        W19534   5.264  11.938  12.101 -0.0865  0.0881 -0.0002
 3061W        W19535   6.611  16.908  11.716  0.3108  0.1280  0.2390
 3062W        W19536   6.052  11.780   3.166  0.0458  0.0699 -0.0307
 3063W        W19537  11.644  16.938   1.496  0.1122  0.1167  0.0191
 3064W        W19538   5.744  17.445  14.662  0.3828  0.1587  0.1562
 3065W        W19539   1.940   5.398   0.632 -0.1192 -0.1714 -0.2786
 3066W        W19540   7.054   3.052  11.872 -0.0187  0.0225  0.0764
 3067W        W19541  17.857  16.688  10.554  0.1313  0.1466  0.2502
 3068W        W19542   6.838   1.758  12.640  0.1886  0.0812 -0.3621
 3069W        W19543   0.310  12.503   1.190  0.2605  0.0594  0.0874
 3070W        W19544   2.224  12.908   1.173 -0.1466  0.1038  0.1233
 3071W        W19545   2.986  16.166   2.805  0.3624  0.0607 -0.2726
 3072W        W19546  10.615  14.296  14.359  0.2190 -0.0580 -0.0404
 3073W        W19547  13.235   9.614  11.992 -0.1555  0.2474 -0.2006
 3074W        W19548   0.620  16.178   3.575  0.3414 -0.0622 -0.1634
 3075W        W19549   2.538  15.288   0.652  0.4171 -0.1715 -0.0395
 3076W        W19550  17.003  16.460  16.099 -0.0990 -0.0334  0.0233
 3077W        W19551  16.189   0.700   4.142  0.0358  0.0249 -0.0467
 3078W        W19552  10.479   4.640   0.035 -0.3937 -0.0948 -0.2456
 3079W        W19553   1.593   1.016  16.556 -0.5347 -0.2213  0.1534
 3080W        W19554   6.870   3.266   0.030 -0.1463 -0.0646  0.0205
 3081W        W19555  13.014  13.824   2.684  0.1038 -0.3566  0.0162
 3082W        W19556   9.300  15.022  13.714  0.4707  0.0808 -0.2565
 3083W        W19557  14.685  10.779   4.313  0.0458 -0.2431 -0.0685
 3084W        W19558   9.333  10.080   4.303  0.3165  0.1458  0.0514
 3085W        W19559  12.729   7.882   0.641  0.2392 -0.0964 -0.0256
 3086W        W19560  13.347   3.385  12.980  0.1618  0.2147 -0.1022
 3087W        W19561   6.175  12.237   5.307 -0.1659 -0.1236  0.2363
 3088W        W19562   5.392   0.724  15.513  0.0329 -0.1093  0.0358
 3089W        W19563  11.992   6.650  13.728 -0.1052  0.2829  0.3438
 3090W        W19564   5.288   9.050   1.978 -0.0045 -0.0107  0.1423
 3091W        W19565  17.394   7.429   4.505  0.0058 -0.2585 -0.2054
 3092W        W19566  15.360  10.023  11.956 -0.1848  0.1019  0.0806
 3093W        W19567   0.064  11.501  13.858  0.0256 -0.2439  0.1978
 3094W        W19568   3.841   8.798   6.075 -0.2365 -0.0127 -0.0256
 3095W        W19569   5.919   3.843   0.199  0.2529  0.0550 -0.1828
 3096W        W19570   8.107   0.380   3.329  0.0300  0.3149 -0.0137
 3097W        W19571  10.319   7.811   4.220  0.1138 -0.1953  0.1425
 3098W        W19572   1.080   7.181  11.526 -0.2233 -0.0499  0.0794
 3099W        W19573   5.350  11.435  16.724  0.0219  0.1391 -0.1061
 3100W        W19574   0.668   0.009  12.151 -0.3180  0.1113 -0.1898
 3101W        W19575   9.817   2.911   1.922  0.0042  0.0538  0.1772
 3102W        W19576   5.774   0.373  16.277  0.0198  0.0838 -0.0471
 3103W        W19577  12.668  17.898   1.266  0.2743  0.1877 -0.0577
 3104W        W19578   4.273   6.580   0.604 -0.0660  0.1888 -0.1246
 3105W        W19579   4.027   7.076   3.213 -0.1639  0.1108  0.1358
 3106W        W19580  17.321   5.805  13.375  0.0671  0.0301 -0.1853
 3107W        W19581  11.450   4.751   0.684  0.3292  0.1716  0.1586
 3108W        W19582   8.109  17.051  11.903  0.1635  0.3005  0.1102
 3109W        W19583  14.302  14.905  12.805  0.0798 -0.1394  0.1517
 3110W        W19584   1.224   7.807   4.033 -0.1450 -0.3895 -0.5581
 3111W        W19585   4.715  12.976   1.409  0.0457 -0.3742  0.1372
 3112W        W19586   8.104  11.642   2.117  0.1119 -0.0090  0.2737
 3113W        W19587   0.922  13.805   2.124  0.1443  0.1476  0.1047
 3114W        W19588  16.665   8.771  15.272  0.0151 -0.0380  0.2331
 3115W        W19589   0.700   4.865   5.291 -0.0991  0.0628  0.3550
 3116W        W19590  11.224  11.237  15.810 -0.1473 -0.0828  0.0456
 3117W        W19591   8.058  14.452   2.212 -0.5211  0.0049 -0.0419
 3118W        W19592  10.763  17.323  12.073  0.0601 -0.0294  0.0000
 3119W        W19593  14.795  11.934   5.508  0.0600 -0.0154  0.2031
 3120W        W19594  15.103  15.249  13.047 -0.1802 -0.0834 -0.1428
 3121W        W19595   6.000   6.432   5.392 -0.2879  0.0522 -0.1775
 3122W        W19596   5.492   2.755  12.758 -0.2603  0.2890 -0.0322
 3123W        W19597  17.749  11.367   0.415  0.4025 -0.0281 -0.3077
 3124W        W19598   9.792  10.879   0.585  0.2073 -0.1180  0.0760
 3125W        W19599   8.881   3.378   1.171  0.0206  0.1121 -0.1915
 3126W        W19600   3.451   1.090  13.886 -0.0049 -0.2698 -0.3546
 3127W        W19601  13.833   8.234   0.771  0.2275  0.1944  0.2418
 3128W        W19602   0.255  15.049   3.301  0.0912 -0.1511 -0.1177
 3129W        W19603   7.922  11.218  15.599 -0.2537  0.1376  0.0488
 3130W        W19604   0.852  14.173  14.026  0.1750  0.1497 -0.0611
 3131W        W19605   8.240  12.412   4.444  0.0185  0.5368 -0.1642
 3132W        W19606  17.727   0.988   5.363 -0.3531 -0.2165 -0.1013
 3133W        W19607  10.334  16.593   4.743  0.0054  0.1100 -0.2206
 3134W        W19608  14.606   5.791   0.596  0.2079 -0.0322  0.0316
 3135W        W19609  12.160  16.836   1.602  0.4754 -0.0354 -0.1023
 3136W        W19610  14.279   9.180   2.782  0.0533 -0.0396  0.1707
 3137W        W19611  13.249   5.901   2.046  0.0705  0.0502  0.1678
 3138W        W19612  15.662   3.815   4.541  0.0352  0.2435 -0.1288
 3139W        W19613  10.960  12.986   2.052 -0.2802 -0.1311 -0.2532
 3140W        W19614   5.854   2.381   4.167 -0.1335 -0.0460 -0.0992
 3141W        W19615  12.063   0.008   2.339 -0.0628  0.3914 -0.1406
 3142W        W19616  11.638   5.082   2.983 -0.1236 -0.1865 -0.1827
 3143W        W19617  17.153   2.430  15.647 -0.0200 -0.1439  0.0738
 3144W        W19618  15.216   1.161   2.138  0.1294 -0.0667 -0.0792
 3145W        W19619  11.848   3.380   5.968 -0.1522 -0.1544 -0.0666
 3146W        W19620  16.385   8.761   0.882  0.2691 -0.0582 -0.0466
 3147W        W19621  10.306   9.341   1.000  0.1696  0.3930 -0.0632
 3148W        W19622  13.522   6.357  12.218 -0.0898  0.2904  0.2771
 3149W        W19623  15.143  12.361  13.421 -0.0755 -0.0457 -0.3911
 3150W        W19624   0.838   9.959  14.827  0.1888  0.3130 -0.2206
 3151W        W19625  12.167   8.416   3.515 -0.2872  0.2064  0.1348
 3152W        W19626  10.582  17.095  10.440  0.0784  0.0240  0.0054
 3153W        W19627  16.568   9.345  13.360 -0.1028 -0.1068  0.0416
 3154W        W19628   2.159  13.481   3.634  0.2804 -0.0889  0.1442
 3155W        W19629   8.202  12.165   4.016  0.1588  0.3204 -0.2591
 3156W        W19630  13.150   0.578   3.779 -0.1127  0.0371 -0.1853
 3157W        W19631   7.651  17.908   4.864  0.3211  0.1908 -0.2685
 3158W        W19632   1.860  10.800  11.280  0.2558  0.1171  0.3894
 3159W        W19633   1.540  16.099  14.101 -0.1466  0.0824 -0.0871
 3160W        W19634  10.613  16.034   2.906 -0.2489  0.1771 -0.0903
 3161W        W19635  15.772   7.873  12.139  0.3516 -0.1680 -0.0755
 3162W        W19636   5.069  12.020  11.221 -0.1210  0.2728 -0.1526
 3163W        W19637   5.126  16.935  13.438  0.0358  0.0710 -0.2165
 3164W        W19638   7.462  15.519   4.889 -0.0652 -0.4169 -0.3103
 3165W        W19639  13.341  17.479  14.256  0.0116  0.0795 -0.0128
 3166W        W19640   1.094  14.121   4.020 -0.1719  0.0388  0.0094
 3167W        W19641  10.726  15.078  14.578  0.3490  0.1116  0.1592
 3168W        W19642  15.964   1.680   4.897 -0.4904  0.0268 -0.0696
 3169W        W19643  12.533  10.547  15.258 -0.1422 -0.1206 -0.2010
 3170W        W19644   9.081  10.847   5.682 -0.1034  0.0212  0.1143
 3171W        W19645   3.859   0.902   5.924 -0.2814  0.1749 -0.0928
 3172W        W19646  12.349  12.992   2.452 -0.0789 -0.1100 -0.0799
 3173W        W19647   1.958   4.291   1.061 -0.0816  0.0795  0.4268
 3174W        W19648  15.974   6.928   2.465 -0.1108 -0.0538 -0.0392
 3175W        W19649   2.688   7.491   3.601 -0.0459 -0.1275  0.1809
 3176W        W19650   8.897  13.544   5.178  0.1906 -0.0585  0.0233
 3177W        W19651   2.733   2.680   5.498 -0.1894  0.1071 -0.1524
 3178W        W19652  14.467  14.161   1.745  0.1844 -0.1645 -0.0571
 3179W        W19653   7.322   8.149   1.310 -0.1938  0.1658 -0.0402
 3180W        W19654  16.878  10.320   0.959  0.0864  0.0683 -0.0581
 3181W        W19655   8.249  11.475  12.032 -0.0189  0.1436 -0.0169
 3182W        W19656   7.209  16.562  12.952 -0.0838 -0.3321 -0.0414
 3183W        W19657   7.089   7.199  12.673 -0.0152 -0.0270 -0.0272
 3184W        W19658   1.246  11.152  12.083 -0.0278  0.1008  0.0672
 3185W        W19659  15.862   1.443  12.110  0.0691  0.0924 -0.0201
 3186W        W19660   7.313   9.009   0.832  0.3358 -0.1255 -0.1787
 3187W        W19661   7.354   5.602  12.041 -0.0628  0.0449  0.0340
 3188W        W19662   6.435  14.705   0.227 -0.0092 -0.1470  0.2830
 3189W        W19663   8.785  16.434  11.296  0.1699  0.1363  0.2153
 3190W        W19664  17.317   3.318  12.719 -0.3252 -0.0601  0.1895
 3191W        W19665   5.774  14.171  13.291  0.2430  0.1243  0.1149
 3192W        W19666  14.604  10.691  12.494  0.0921  0.1736 -0.3778
 3193W        W19667   5.295  16.692  13.048  0.1403  0.1655 -0.0091
 3194W        W19668  17.509  14.610  15.978 -0.0469  0.0929  0.0230
 3195W        W19669  11.645  10.873  13.621 -0.2850  0.0702 -0.1115
 3196W        W19670   9.405   3.651   3.126  0.2430  0.1047 -0.0643
 3197W        W19671  17.803  16.413   4.264  0.2664  0.0332  0.0068
 3198W        W19672   9.833   3.757  12.777 -0.1900  0.2234  0.0904
 3199W        W19673   9.198  17.887  13.739 -0.2324 -0.0485 -0.0613
 3200W        W19674   6.750  12.037  13.629  0.3212  0.2567  0.2747
 3201W        W19675  14.357   9.128   4.927  0.1183  0.1876  0.0821
 3202W        W19676   5.230   3.443  11.658 -0.1797 -0.5076 -0.3611
 3203W        W19677   1.700   5.592  14.454  0.1797  0.0669  0.1341
 3204W        W19678  10.832   9.827  15.223 -0.2243 -0.2362 -0.0053
 3205W        W19679  11.744  17.802   4.552  0.0423 -0.0596  0.1273
 3206W        W19680   8.200   5.955   2.361 -0.2753  0.0130  0.1050
 3207W        W19681   5.836   9.860   2.051 -0.0836  0.0339  0.2917
 3208W        W19682   9.596   8.470  16.150 -0.0734  0.5248 -0.1169
 3209W        W19683   9.468   6.893  14.156  0.0547 -0.2180  0.0498
 3210W        W19684   9.137   5.151  15.243 -0.1097  0.0757 -0.0567
 3211W        W19685   8.167   7.122  16.207 -0.0801 -0.0483 -0.1173
 3212W        W19686   8.343  10.340   4.476 -0.1513 -0.1139 -0.1495
 3213W        W19687   7.116  16.181  15.173 -0.3061 -0.1508  0.0273
 3214W        W19688  11.905   0.638  15.911  0.2452 -0.3113  0.1293
 3215W        W19689   0.982  14.991  12.755 -0.3256  0.2857  0.0713
 3216W        W19690  17.334   0.359   0.807  0.2598 -0.0094  0.0090
 3217W        W19691   6.348   8.233   4.280  0.0627  0.1435  0.2915
 3218W        W19692  16.598  12.857   3.957 -0.2151  0.1416 -0.0951
 3219W        W19693  14.954  14.647   3.753  0.0741  0.1825 -0.0313
 3220W        W19694   0.645  15.661   2.310  0.0997 -0.0019  0.3412
 3221W        W19695   2.198   1.074  14.373  0.1465  0.1420  0.2798
 3222W        W19696   3.337   4.443   0.402 -0.2678 -0.1469 -0.0926
 3223W        W19697  13.577  10.767  13.463  0.0318 -0.0279  0.0341
 3224W        W19698   2.902   8.788   1.158  0.0223 -0.2511  0.1605
 3225W        W19699  17.481  14.413  11.609 -0.0151  0.0093 -0.0421
 3226W        W19700   1.108  10.322   0.865 -0.1932 -0.0789 -0.1354
 3227W        W19701   9.449   5.520  14.301 -0.3760  0.0986  0.0955
 3228W        W19702   3.982  14.387   2.757 -0.2199 -0.3677 -0.1114
 3229W        W19703  13.191   5.366   5.570  0.1763 -0.2312 -0.1504
 3230W        W19704   2.518  12.935  14.381 -0.0740  0.0247 -0.1683
 3231W        W19705  10.363   6.489  10.587  0.0417 -0.0791 -0.2480
 3232W        W19706   9.965   3.731   4.001  0.0085  0.0898 -0.0917
 3233W        W19707  15.769   5.322  15.194  0.2681 -0.0229  0.0245
 3234W        W19708   6.036   8.129   4.981 -0.0641 -0.0927  0.1113
 3235W        W19709  12.093   9.210   4.788 -0.1255  0.1341  0.2591
 3236W        W19710  10.263   3.074   0.005  0.3271 -0.1393 -0.0489
 3237W        W19711   5.428  17.939  16.641  0.0633  0.0862  0.0090
 3238W        W19712   0.614   2.983   5.099 -0.4475 -0.3052 -0.0490
 3239W        W19713  11.897  15.511   2.283  0.2434 -0.1824 -0.1184
 3240W        W19714   7.023  11.898  14.025 -0.0509 -0.3018  0.1203
 3241W        W19715  12.911   9.342   6.030  0.2915  0.2656  0.3169
 3242W        W19716   4.529   2.978  14.649  0.1394 -0.0366  0.0130
 3243W        W19717   9.598   1.625   1.518  0.2680  0.1904  0.0412
 3244W        W19718  16.787   1.926   5.870 -0.2053  0.3542  0.1105
 3245W        W19719   0.836   8.000   1.939  0.0123 -0.0376  0.2018
 3246W        W19720   9.640  17.677   1.372 -0.3128  0.1590  0.2692
 3247W        W19721   6.124   7.328  14.197  0.0549  0.1898  0.0155
 3248W        W19722   5.466   8.253  11.614 -0.3449 -0.0100  0.1261
 3249W        W19723   5.419   0.845  16.136 -0.2149  0.0506 -0.3224
 3250W        W19724   2.481   6.954   3.797  0.0981 -0.0015  0.1061
 3251W        W19725  13.210   1.059  16.199 -0.0474  0.0710  0.0785
 3252W        W19726   0.427   6.623   0.146 -0.1242 -0.3163 -0.0645
 3253W        W19727  17.455   1.360   3.474 -0.2904 -0.3481 -0.1038
 3254W        W19728  14.936   4.054   3.865 -0.2067 -0.1543 -0.2257
 3255W        W19729   9.604  15.590   4.013  0.2729  0.2893 -0.2709
 3256W        W19730   3.789  15.314   0.218  0.0718  0.0002  0.3670
 3257W        W19731  12.018   2.066  14.665 -0.0443  0.1916 -0.0555
 3258W        W19732   4.193  12.966  12.076 -0.1397  0.2500 -0.0445
 3259W        W19733  11.303   7.020   1.007  0.1357  0.2472  0.1585
 3260W        W19734   2.178  12.745  10.683 -0.1641 -0.0974 -0.0070
 3261W        W19735  15.863   6.442   0.952  0.0927 -0.0112  0.0764
 3262W        W19736  15.614  15.493   1.831 -0.0380 -0.2837 -0.0959
 3263W        W19737  16.577   2.729   5.793 -0.0665  0.0353  0.2102
 3264W        W19738  13.102   4.198   4.891  0.1785 -0.0890 -0.0627
 3265W        W19739   7.521   7.781   1.062 -0.1641 -0.0293 -0.0269
 3266W        W19740   0.001   1.213   4.325 -0.2313 -0.0684 -0.1998
 3267W        W19741   0.114  11.667  13.332 -0.0691  0.0124  0.1076
 3268W        W19742  15.281  10.463   5.606  0.1578  0.1265  0.4702
 3269W        W19743   1.901  16.884   2.928 -0.0402  0.0592 -0.1851
 3270W        W19744   8.030  12.490  16.314 -0.0483  0.2692 -0.0747
 3271W        W19745   8.652  17.615   2.024 -0.3979 -0.4516 -0.3084
 3272W        W19746  15.729   6.321  13.307  0.0520  0.0020 -0.3331
 3273W        W19747   4.764  11.506  16.035  0.0932  0.0364  0.5810
 3274W        W19748  13.873   4.225  12.812  0.0449  0.3780 -0.2309
 3275W        W19749   8.977  15.756   0.925 -0.2597  0.0584  0.1886
 3276W        W19750   3.597   2.155  11.674  0.0608  0.2716  0.0637
 3277W        W19751   9.165   3.876   0.584 -0.0154  0.2005  0.0714
 3278W        W19752  14.677  15.033  14.259 -0.1799  0.1546 -0.2818
 3279W        W19753   9.498  11.904  16.315  0.1048  0.1116 -0.1614
 3280W        W19754  16.633   9.119   4.322  0.0195  0.3048 -0.2544
 3281W        W19755  15.616  10.321  10.617 -0.1849 -0.0819  0.3465
 3282W        W19756   9.367  10.870  14.661 -0.0946 -0.0235  0.0496
 3283W        W19757   7.747  10.465   4.452 -0.1218  0.0016  0.1777
 3284W        W19758  11.477   9.131  14.749 -0.1585  0.0893  0.2241
 3285W        W19759  12.786  10.138   0.926  0.1619 -0.1835  0.0356
 3286W        W19760   9.609   6.073  13.111  0.1105  0.1101  0.1597
 3287W        W19761  14.694   6.810   0.412 -0.0745 -0.2018  0.1719
 3288W        W19762  13.195   7.730   0.744 -0.2474  0.2868  0.1577
 3289W        W19763   8.383  16.043   4.213 -0.0781 -0.2927 -0.1196
 3290W        W19764   8.175   4.184  11.956 -0.2916  0.0827 -0.1462
 3291W        W19765   0.190   8.765   1.425  0.1109 -0.3198 -0.1549
 3292W        W19766   2.326   2.926  16.606  0.4116 -0.1203 -0.0683
 3293W        W19767   7.297   1.415  13.343 -0.0665  0.0953 -0.0746
 3294W        W19768   4.729  12.709   5.246 -0.0012  0.0318 -0.0910
 3295W        W19769  15.595  12.938  14.082 -0.1773 -0.0829  0.2212
 3296W        W19770   5.150  11.172  15.935 -0.0219  0.0559 -0.0720
 3297W        W19771   5.628   8.168  12.101 -0.2190  0.0543  0.0930
 3298W        W19772  16.837  12.476  12.733  0.0815  0.2027 -0.0582
 3299W        W19773  10.046   8.342  16.330 -0.1177 -0.1860 -0.0129
 3300W        W19774  13.513  16.762  15.678  0.0623 -0.0143 -0.2558
 3301W        W19775  13.643   5.744  16.648 -0.1050 -0.1241 -0.1344
 3302W        W19776   4.071   0.842   2.403  0.0694 -0.0248 -0.3221
 3303W        W19777  13.228   8.520  15.019  0.0248  0.0597  0.4091
 3304W        W19778  15.846  11.064  16.569 -0.0066  0.0945 -0.2750
 3305W        W19779  11.139  11.887  12.255 -0.0426 -0.1164  0.4390
 3306W        W19780   9.129  12.585   5.376 -0.2609 -0.1780 -0.3330
 3307W        W19781   5.453  17.704   2.436  0.1251  0.0610  0.0210
 3308W        W19782   6.609   6.759  16.286 -0.0990 -0.1709  0.1770
 3309W        W19783   1.998   0.141  16.784  0.0359  0.1034 -0.4841
 3310W        W19784  13.177  13.390   3.934 -0.2521  0.2226  0.1315
 3311W        W19785  11.858   5.462  10.845  0.1399  0.0985 -0.2000
 3312W        W19786   4.833  12.032  10.793  0.0098  0.1587  0.0733
 3313W        W19787  10.571  10.196  12.327  0.0456  0.1152  0.2932
 3314W        W19788   7.082   0.356  13.385  0.0499  0.1097 -0.0033
 3315W        W19789   8.484   3.938   4.595  0.0628 -0.0016 -0.1883
 3316W        W19790   4.446  17.560  13.088 -0.2000  0.1374  0.0826
 3317W        W19791  10.863  17.732  11.463 -0.3561 -0.2032 -0.0172
 3318W        W19792   8.252  17.987   2.948 -0.1065 -0.0698  0.1862
 3319W        W19793   8.540   0.398   3.650 -0.1810 -0.1142 -0.0999
 3320W        W19794  10.773  15.634   1.664  0.0910  0.0970 -0.0611
 3321W        W19795  11.183   8.384  12.002  0.0291 -0.0497  0.0671
 3322W        W19796   7.391   9.189  16.678 -0.0794 -0.0612 -0.1680
 3323W        W19797  15.548   5.852   4.943 -0.1305 -0.0671  0.0394
 3324W        W19798  11.213   8.511  16.371 -0.0237  0.0728  0.0703
 3325W        W19799   3.390   6.419   4.112 -0.2210 -0.1670  0.0582
 3326W        W19800  11.665   0.166  15.954  0.2282  0.4134 -0.0868
 3327W        W19801   0.826  12.426   1.368  0.1406 -0.1992  0.0524
 3328W        W19802  11.575   1.346   4.195  0.0140 -0.3210 -0.0466
 3329W        W19803  12.558   2.705   3.719 -0.1696 -0.2073  0.1357
 3330W        W19804  12.370   6.487  15.020 -0.0585  0.2795  0.2869
 3331W        W19805  16.646   3.863  12.278 -0.0456  0.0877  0.3316
 3332W        W19806  11.894  13.200  12.040  0.1461  0.1413 -0.0436
 3333W        W19807   5.576   4.505   3.330 -0.0090 -0.0908  0.1294
 3334W        W19808  17.346  10.005   4.225  0.1252 -0.0229  0.0195
 3335W        W19809  16.614   3.372   4.550 -0.4446 -0.0154  0.4183
 3336W        W19810   6.031  12.178   2.378 -0.0061  0.0292 -0.0617
 3337W        W19811  15.946   8.599  16.485  0.0113 -0.0922 -0.1138
 3338W        W19812   2.943  14.004  15.260  0.0715 -0.1293 -0.1619
 3339W        W19813   7.755  14.093  11.841  0.1375  0.0072  0.2911
 3340W        W19814   0.398  14.737   0.650  0.0853 -0.1644 -0.1065
 3341W        W19815   6.814   4.862  15.152  0.0796 -0.4915  0.2108
 3342W        W19816   2.103   0.995  15.267 -0.0129 -0.1894  0.2028
 3343W        W19817   7.388  15.818  12.210  0.1123 -0.0440 -0.0945
 3344W        W19818   1.498  10.964   3.460 -0.0719  0.0266 -0.1528
 3345W        W19819  15.079   0.321  14.747 -0.2464 -0.1760 -0.1341
 3346W        W19820  17.083   6.499   5.478  0.1723 -0.3238  0.1591
 3347W        W19821   5.715   8.068   0.933 -0.3241  0.1185 -0.0858
 3348W        W19822  17.795   7.654  11.698  0.0820 -0.1574  0.0744
 3349W        W19823  15.440   0.066  16.025  0.0113 -0.0024 -0.2040
 3350W        W19824   7.077   6.627   1.123 -0.1821 -0.1591  0.1418
 3351W        W19825   5.538  13.460   3.464 -0.0565  0.1398 -0.0553
 3352W        W19826  16.243   9.979   1.102 -0.2846  0.1305 -0.3594
 3353W        W19827  10.116  16.119  12.512  0.1073 -0.1813  0.0927
 3354W        W19828  16.530   9.453  12.430 -0.2028  0.1368  0.2371
 3355W        W19829   6.226   1.495  14.947  0.1225 -0.1745  0.3483
 3356W        W19830   2.438  13.959  13.167  0.0996  0.2095  0.3985
 3357W        W19831  14.178  13.345  13.809 -0.3437 -0.1414  0.2237
 3358W        W19832  15.041   9.359  13.980  0.1867 -0.1086 -0.0674
 3359W        W19833  17.008  17.480   1.692  0.0688 -0.1948 -0.0023
 3360W        W19834   4.525   5.232   0.157  0.1360  0.0726  0.1222
 3361W        W19835  14.793  10.747  14.387  0.0006  0.1964 -0.1036
 3362W        W19836  12.442  11.599   4.652  0.1478 -0.2667  0.4066
 3363W        W19837   6.939   5.069   6.288 -0.1992  0.0345 -0.1267
 3364W        W19838   6.901  10.685   2.204 -0.3588  0.2966 -0.3910
 3365W        W19839  15.485   6.383   5.021 -0.1549 -0.0180  0.2184
 3366W        W19840  12.636   7.027  13.337 -0.1255  0.0337  0.1585
 3367W        W19841   4.695   0.236   0.225 -0.1881 -0.1515 -0.0316
 3368W        W19842   6.319  14.587   0.683  0.1224  0.1951 -0.1624
 3369W        W19843  13.756  12.561  16.223 -0.2950 -0.1553 -0.3703
 3370W        W19844  12.124  10.419  16.616  0.4888  0.2742  0.1445
 3371W        W19845  16.757  15.607   2.583  0.3555  0.1691  0.0595
 3372W        W19846   9.285   7.517  11.947  0.1459  0.1023 -0.1540
 3373W        W19847  12.207  11.652  14.583  0.2807 -0.1807  0.2364
 3374W        W19848   9.234  11.311   5.215 -0.0061  0.0283  0.0435
 3375W        W19849  15.815  17.957   4.652  0.0790 -0.0966  0.1676
 3376W        W19850   5.779  16.584  11.969 -0.0368  0.0986 -0.0252
 3377W        W19851  17.907   6.575   5.341  0.0587  0.1876  0.0559
 3378W        W19852   4.686   1.105   5.479 -0.0381  0.0078 -0.4321
 3379W        W19853   5.777   2.288  15.350 -0.1370 -0.1954  0.1126
 3380W        W19854  16.321   7.562   3.069 -0.1310  0.1433 -0.1141
 3381W        W19855   9.442   6.320   0.981  0.0964  0.1093  0.0726
 3382W        W19856   9.796   1.080  14.471 -0.1657  0.0595 -0.2718
 3383W        W19857  17.300   2.302  15.087  0.1777 -0.2067 -0.0038
 3384W        W19858   8.576   9.977   2.496  0.2412 -0.1591  0.2183
 3385W        W19859  17.777  17.454  14.856  0.3653  0.0748 -0.1765
 3386W        W19860  14.363   0.756   2.193  0.0308 -0.1966 -0.2741
 3387W        W19861   2.463  10.157  16.619 -0.0687  0.0404  0.0703
 3388W        W19862   7.893  17.254  12.355  0.1467  0.0992  0.1182
 3389W        W19863  10.804   4.322   2.670 -0.1778 -0.0022  0.4369
 3390W        W19864  14.180  13.727   3.082  0.0211 -0.3945  0.0672
 3391W        W19865  10.143  14.001   1.014 -0.1015 -0.0996 -0.0101
 3392W        W19866  16.463   9.826   5.508 -0.1151 -0.0285 -0.0734
 3393W        W19867   6.268   8.598   5.110 -0.0655  0.1103 -0.1566
 3394W        W19868   7.568   2.770   0.664 -0.1449 -0.0297  0.0349
 3395W        W19869   7.031  12.008  16.359  0.0830 -0.3063 -0.0656
 3396W        W19870   0.734   2.930  11.753 -0.2152  0.0423 -0.0803
 3397W        W19871   7.156   3.727   3.295 -0.1848 -0.1279  0.2421
 3398W        W19872   4.212  16.756   2.633  0.0819 -0.0448  0.1556
 3399W        W19873  14.360  14.811  12.292 -0.0605  0.0390  0.1928
 3400W        W19874  11.023  16.388  12.135 -0.0642  0.0754  0.0322
 3401W        W19875  11.181  14.152  12.215  0.1709  0.1242  0.0799
 3402W        W19876  16.009  14.378   0.746 -0.2553  0.1190 -0.1568
 3403W        W19877  14.517  16.818   3.063  0.2416 -0.1875  0.0774
 3404W        W19878   6.876  13.262   3.656 -0.0294  0.1671 -0.3490
 3405W        W19879   5.503   4.161   1.264  0.1491  0.1880 -0.1749
 3406W        W19880   1.543   7.200   4.040 -0.1615 -0.1149  0.4157
 3407W        W19881  14.166   8.198   1.225  0.0397 -0.0586 -0.1291
 3408W        W19882   2.407   1.514   6.201  0.0139  0.2181 -0.2547
 3409W        W19883  11.397   7.000  12.464 -0.0510 -0.1336  0.1125
 3410W        W19884  14.552  17.816   4.171  0.1248  0.1274 -0.2965
 3411W        W19885   6.374   6.596  15.337 -0.1211  0.1989 -0.1353
 3412W        W19886  13.733  16.949  12.205  0.0833 -0.1209 -0.3954
 3413W        W19887   4.643  17.254   4.159  0.1710  0.1378  0.0097
 3414W        W19888  14.058  11.262  13.465 -0.0213  0.2486  0.2604
 3415W        W19889  11.409   9.391   4.181 -0.0075  0.1736 -0.0338
 3416W        W19890   2.242   8.013   5.491 -0.0192  0.0535 -0.0664
 3417W        W19891   9.775   7.738  12.486 -0.1370  0.0949 -0.0699
 3418W        W19892   9.957   0.418   3.500  0.3422 -0.0695 -0.1860
 3419W        W19893   0.892  14.875   0.478  0.1859 -0.1125  0.0801
 3420W        W19894   0.067  15.240   1.265  0.0309  0.2782 -0.2056
 3421W        W19895  15.717   3.582   2.869  0.0859 -0.2426  0.3562
 3422W        W19896   2.543  13.703   3.379 -0.0570  0.0022 -0.0997
 3423W        W19897   6.983   8.912   5.860 -0.0199 -0.0975 -0.0119
 3424W        W19898   8.385   7.760  14.095 -0.1750  0.0884  0.0985
 3425W        W19899   5.442  11.432   1.088  0.0783  0.3915  0.0992
 3426W        W19900  10.016  14.876   2.873  0.1250 -0.0594  0.2592
 3427W        W19901  10.983   6.483  14.043  0.0895 -0.0381  0.1429
 3428W        W19902   5.731  16.324  11.452 -0.0149 -0.2566 -0.0780
 3429W        W19903   1.726   0.375  14.623 -0.0083  0.1376  0.2297
 3430W        W19904  12.861  14.376   5.569 -0.1098 -0.0401 -0.2308
 3431W        W19905   2.730  14.364   2.961 -0.1464  0.4783 -0.0496
 3432W        W19906   0.473  15.368   4.556 -0.3590 -0.1867 -0.1076
 3433W        W19907   5.052   4.465  15.172 -0.0852 -0.1006  0.0717
 3434W        W19908   3.746   0.786   1.214 -0.1205 -0.0488 -0.0334
 3435W        W19909   9.698   8.621  16.589 -0.0174 -0.0533  0.0851
 3436W        W19910  17.030  17.358  15.735  0.2919  0.1738 -0.0067
 3437W        W19911   1.783   8.608   5.067  0.0367 -0.1389  0.1473
 3438W        W19912   1.645  17.712   5.274 -0.0396  0.2553  0.0470
 3439W        W19913   7.702  14.103  16.199 -0.1099  0.2804 -0.1321
 3440W        W19914   6.436   4.432   4.625 -0.0680  0.0001  0.0198
 3441W        W19915  17.749   4.068  14.026  0.0899  0.1195  0.0240
 3442W        W19916   1.404   0.336  13.597 -0.0347 -0.0377 -0.2726
 3443W        W19917   1.847   2.756   2.783 -0.1385  0.3460  0.0925
 3444W        W19918   2.489  10.147  13.837  0.0849  0.0102 -0.0934
 3445W        W19919   9.988   7.255  14.406 -0.2655 -0.2056  0.0094
 3446W        W19920   3.039   6.937  12.699  0.0736  0.0190  0.1105
 3447W        W19921  15.292   2.344   3.344 -0.0206 -0.1147  0.0657
 3448W        W19922  15.096   0.325  14.118  0.3154  0.0126 -0.1631
 3449W        W19923  10.166  14.821   0.404  0.0430  0.0933 -0.1883
 3450W        W19924  14.435   7.688   0.340  0.0403  0.1650 -0.0011
 3451W        W19925   3.610   9.453   3.398 -0.1681  0.1740 -0.1076
 3452W        W19926   8.872   3.384  14.916  0.0461 -0.3229 -0.1044
 3453W        W19927   3.530  13.718  15.602  0.0495  0.1279 -0.0362
 3454W        W19928   0.346   8.739  11.979  0.2701  0.0485  0.1593
 3455W        W19929  17.768   2.203   4.185  0.0609 -0.1879 -0.1381
 3456W        W19930   3.261   4.747  11.888  0.0653  0.1814  0.1494
 3457W        W19931   4.859  17.800   3.412 -0.2284  0.0216 -0.2178
 3458W        W19932  14.708   9.650   4.929 -0.0787 -0.2536 -0.1882
 3459W        W19933   1.993  11.985  15.201 -0.0583 -0.1301  0.0213
 3460W        W19934  17.965   8.210   6.078 -0.0197 -0.1863  0.0475
 3461W        W19935   5.256   5.232  13.639 -0.0611  0.0207  0.1391
 3462W        W19936   4.543   1.744  13.464 -0.3202 -0.2559 -0.2177
 3463W        W19937   1.467   1.111   1.658  0.1641 -0.0218  0.1748
 3464W        W19938   6.503  11.708   0.403 -0.0284  0.1841 -0.3956
 3465W        W19939  17.478   0.798   0.610 -0.0013 -0.1611 -0.2729
 3466W        W19940   0.924   7.306   4.840  0.1779  0.3452  0.0109
 3467W        W19941   1.550  16.418   1.083  0.3491  0.3494 -0.2656
 3468W        W19942  10.267   3.103   0.527 -0.2677 -0.2626  0.0156
 3469W        W19943   7.023  16.661   0.254 -0.0200  0.2072  0.1079
 3470W        W19944  13.246   8.136  11.780 -0.1732  0.4609  0.3418
 3471W        W19945  14.206   0.082  14.299 -0.0839 -0.2223  0.0882
 3472W        W19946  13.028  17.191  15.105 -0.5084 -0.1336 -0.1061
 3473W        W19947   6.347   4.928   2.462  0.0963  0.3106  0.3924
 3474W        W19948   8.540  17.494   1.049  0.2883  0.2196  0.3016
 3475W        W19949  17.594   2.680   0.271 -0.1444 -0.0427  0.1995
 3476W        W19950   0.204   5.555   2.215 -0.4027 -0.0236 -0.1881
 3477W        W19951  13.346  12.876  13.526  0.1428 -0.0299  0.3204
 3478W        W19952   4.926  11.954  11.719 -0.0178  0.0575  0.0177
 3479W        W19953   5.935  16.508   4.874  0.0442 -0.1584  0.0618
 3480W        W19954  15.357  11.624  11.743 -0.3084  0.0596  0.2664
 3481W        W19955   0.107   8.486  16.584  0.2504 -0.0642 -0.1937
 3482W        W19956  12.109  11.829  14.111  0.0948 -0.1188  0.0410
 3483W        W19957  17.179  11.904   3.084  0.2261  0.0804  0.1995
 3484W        W19958   0.870  17.227  14.494 -0.2090 -0.2137 -0.1243
 3485W        W19959  13.164  17.566  13.780  0.2559  0.0244 -0.0847
 3486W        W19960   5.581  14.570   1.737  0.3702 -0.1651  0.1531
 3487W        W19961   2.946  11.498   4.152  0.3123  0.0588 -0.4523
 3488W        W19962   5.915   2.709  15.592 -0.2963 -0.1178 -0.0401
 3489W        W19963   3.471  16.726  16.780 -0.0214 -0.2280 -0.0506
 3490W        W19964  13.528  12.189  14.254 -0.1952 -0.2661  0.1754
 3491W        W19965   6.821   4.185  14.052  0.2142  0.0065  0.0490
 3492W        W19966   4.297  13.767   1.124  0.0030 -0.0921  0.1412
 3493W        W19967  13.440   7.919   2.602 -0.2434 -0.0326 -0.0737
 3494W        W19968  15.809   6.561   2.819  0.0906  0.0472 -0.1555
 3495W        W19969  10.748  17.798   4.817 -0.0763  0.0889  0.0520
 3496W        W19970   9.746  14.769  16.040  0.1982  0.0964  0.1410
 3497W        W19971  10.370   3.025  14.405  0.3249  0.1275  0.0195
 3498W        W19972  11.791   4.681   1.902  0.0514 -0.0474 -0.1575
 3499W        W19973  11.886   4.559  15.453 -0.1277  0.3686  0.1162
 3500W        W19974   2.811  14.871  12.685  0.3634  0.3456  0.0699
 3501W        W19975   2.148  14.400   0.694  0.2113 -0.0119 -0.2120
 3502W        W19976  12.126   6.108  15.425 -0.0373  0.0128  0.0003
 3503W        W19977   9.359   0.769   5.193  0.1922  0.1142 -0.2849
 3504W        W19978   3.939  10.794   1.120  0.3101  0.1956  0.1186
 3505W        W19979  11.000   5.069  13.948 -0.0088  0.1650  0.1700
 3506W        W19980  15.012   3.638  15.546  0.1444 -0.4374 -0.1261
 3507W        W19981  16.804  11.616   3.023  0.0405  0.0832 -0.0897
 3508W        W19982   0.080  16.566  13.548 -0.0458  0.1496  0.0437
 3509W        W19983   3.658  14.868   0.108  0.4820  0.3753  0.0033
 3510W        W19984  13.175   9.854  10.452 -0.2067 -0.1224 -0.0810
 3511W        W19985  10.322   7.728   6.197  0.0455  0.0734  0.0846
 3512W        W19986  14.631   8.238   0.091  0.0550 -0.2273  0.2803
 3513W        W19987   3.432  17.274  13.115  0.5063  0.0713  0.1678
 3514W        W19988  11.962  14.135   0.585 -0.1497  0.1338 -0.3073
 3515W        W19989   7.412   4.145   5.347 -0.1423 -0.0697  0.0746
 3516W        W19990   9.298   8.130   5.498  0.0930  0.1026 -0.2612
 3517W        W19991   9.472   5.626  13.786  0.3921  0.2332 -0.0237
 3518W        W19992   0.376  10.605  15.446  0.0899  0.0664  0.0784
 3519W        W19993   3.238   8.896   0.094  0.2814 -0.1117 -0.1406
 3520W        W19994   0.408  15.204  12.509  0.1979 -0.0075 -0.1409
 3521W        W19995  11.377   8.301  15.894 -0.4463  0.1585 -0.0329
 3522W        W19996  15.614   1.934  15.585 -0.0761  0.1170  0.2925
 3523W        W19997   7.246   0.274   2.212 -0.0065 -0.1866 -0.1078
 3524W        W19998  12.204   1.980   3.966  0.0698  0.1537  0.4874
 3525W        W19999   1.674   4.834   5.170 -0.1106 -0.2839  0.0182
 3526W        W20000  12.482  17.733  16.348  0.1428  0.2408 -0.1394
 3527W        W20001   8.484   6.212  14.576  0.0356  0.1507 -0.1352
 3528W        W20002  17.922  15.883  12.653  0.1986  0.1659  0.0892
 3529W        W20003  14.685  12.193  12.016 -0.0690  0.0073  0.0266
 3530W        W20004   5.581   6.495   3.782  0.3628 -0.1669 -0.0768
 3531W        W20005   4.911   8.144   3.972  0.0238  0.3242 -0.0858
 3532W        W20006   5.701   4.490   4.151 -0.1357  0.2714  0.1476
 3533W        W20007   1.856   1.749   2.241 -0.1390  0.1326 -0.0258
 3534W        W20008   9.289   4.581  14.109 -0.0637  0.1507 -0.0838
 3535W        W20009   7.604   7.109   4.332 -0.4167 -0.0669 -0.3012
 3536W        W20010   9.179  13.502  12.929  0.4507 -0.2677 -0.2206
 3537W        W20011  15.161   4.017  15.823  0.2284 -0.0974  0.0393
 3538W        W20012   4.420   1.353   6.278 -0.3576  0.1281 -0.1206
 3539W        W20013   4.474  14.587   3.811 -0.0832 -0.1865  0.0502
 3540W        W20014   3.364  15.636   1.995  0.1000 -0.1271 -0.0156
 3541W        W20015   2.496   8.479   5.512  0.2160 -0.0966 -0.0402
 3542W        W20016  10.868  14.682   2.084  0.0006  0.0024 -0.1581
 3543W        W20017  16.006   6.408   3.675 -0.1285 -0.1135 -0.1260
 3544W        W20018  14.430  15.114   1.773  0.2956  0.0530 -0.0794
 3545W        W20019   6.378   8.573  13.278  0.0249 -0.0916 -0.0888
 3546W        W20020   5.555  15.273  11.456 -0.1161  0.1117  0.0646
 3547W        W20021   8.842  14.017  12.118 -0.2098 -0.4084 -0.2766
 3548W        W20022  17.305  15.341  13.094 -0.2336 -0.1708 -0.4303
 3549W        W20023   6.415   1.737  15.542  0.0848  0.1473  0.0336
 3550W        W20024   1.590   0.998  12.470 -0.0961  0.1174 -0.2403
 3551W        W20025   5.968   8.723   5.499 -0.1094  0.0435 -0.1902
 3552W        W20026   5.913   7.683   5.177  0.0340 -0.1304  0.4433
 3553W        W20027  14.926  11.299   0.640  0.1154  0.1409 -0.0625
 3554W        W20028   6.792  11.593  16.122 -0.0259  0.3065 -0.1569
 3555W        W20029   8.779   5.148  13.560  0.1512  0.3042  0.1747
 3556W        W20030   6.697   8.035  12.103 -0.1597  0.2795  0.2096
 3557W        W20031   5.124   2.569  13.030 -0.0881 -0.0774  0.3867
 3558W        W20032  14.704   6.449  13.418  0.0992 -0.1532  0.1173
 3559W        W20033   3.530   9.669  16.247  0.0525  0.1537  0.1193
 3560W        W20034   5.146   3.506  13.053  0.1065  0.0573  0.4060
 3561W        W20035  15.974   6.274  13.787  0.1682  0.1933 -0.1192
 3562W        W20036   0.855  15.803   0.414  0.0627 -0.1184  0.0420
 3563W        W20037  16.988  10.625   2.973 -0.0234  0.0608  0.2409
 3564W        W20038   2.464   3.832   2.661 -0.1534  0.0949  0.3448
 3565W        W20039  13.163  17.991   6.051 -0.2365 -0.0416  0.0587
 3566W        W20040   7.153  16.751  16.064  0.0153  0.2495  0.1206
 3567W        W20041  15.149   3.336   1.277  0.0089  0.2661  0.1312
 3568W        W20042  17.164   2.730  16.777  0.1146  0.0059  0.6063
 3569W        W20043   9.302   8.780  13.564 -0.0619 -0.0186 -0.2881
 3570W        W20044   9.357  16.009  16.432  0.0276 -0.0472 -0.1753
 3571W        W20045  16.838  12.046   5.514  0.0706 -0.0253  0.0342
 3572W        W20046   3.134  15.772   6.198  0.0142 -0.2292 -0.0168
 3573W        W20047  17.551   5.851  15.082 -0.0169 -0.2525  0.2155
 3574W        W20048  10.125   7.839   5.514 -0.0408 -0.1041 -0.0866
 3575W        W20049  15.132  11.750   5.120 -0.0049  0.0122  0.3114
 3576W        W20050  12.048  15.177  11.766 -0.0114 -0.1294  0.2195
 3577W        W20051  10.484   3.576   0.343  0.0721  0.2557 -0.2503
 3578W        W20052   2.983  12.522  12.739 -0.1286  0.1670  0.2709
 3579W        W20053   7.391  16.208   1.124  0.2672 -0.3693 -0.1141
 3580W        W20054   7.493  17.767  13.270  0.0672 -0.1822  0.1287
 3581W        W20055  14.057   4.230   6.112 -0.0776 -0.3124 -0.0080
 3582W        W20056   1.670  14.880  15.570 -0.0088  0.2388 -0.2519
 3583W        W20057  16.294  16.984   5.275 -0.0976  0.1434 -0.0871
 3584W        W20058   5.400  10.178   4.831 -0.2002  0.0366 -0.0970
 3585W        W20059  13.487   6.273   4.971  0.0569 -0.0100 -0.1273
 3586W        W20060   0.505   1.294  11.755 -0.0201  0.1655 -0.2364
 3587W        W20061   3.488   2.179   6.091 -0.0298  0.0535 -0.2308
 3588W        W20062  13.210   5.981  12.521 -0.0659 -0.2536 -0.1323
 3589W        W20063   4.575   9.184   4.212 -0.0880  0.2024 -0.1392
 3590W        W20064   7.121  17.113  16.428 -0.0062 -0.1877 -0.1083
 3591W        W20065  11.388  17.389  16.675 -0.0678 -0.0083 -0.1297
 3592W        W20066  12.059  13.385  13.825  0.1181 -0.0520  0.0408
 3593W        W20067  16.108  16.111   4.657 -0.3523  0.0815 -0.4730
 3594W        W20068   0.369  16.206   0.219  0.1499  0.0309  0.1678
 3595W        W20069  16.818   8.797   1.639  0.1490 -0.3501 -0.0143
 3596W        W20070  17.447   3.359  15.124 -0.1452  0.4716 -0.0786
 3597W        W20071   9.195  13.955   2.791  0.1180  0.1179 -0.0233
 3598W        W20072   6.433  15.070  14.309  0.0771 -0.3020  0.2289
 3599W        W20073   0.006   6.495   3.955 -0.2242  0.1383 -0.0094
 3600W        W20074  12.073   1.207   0.707 -0.4168  0.1207  0.0127
 3601W        W20075   0.505  17.959  15.230  0.0162  0.2487 -0.0460
 3602W        W20076  10.116  14.551  15.293 -0.0326  0.1179 -0.3291
 3603W        W20077  12.773  12.680   2.339 -0.1044 -0.3726 -0.1437
 3604W        W20078  15.710  12.418   4.512  0.4462 -0.2040 -0.1899
 3605W        W20079  11.833  13.725   0.342 -0.2497  0.0665  0.0678
 3606W        W20080   5.032  10.694  12.483  0.3763 -0.0992 -0.1290
 3607W        W20081   5.524   8.543  15.477 -0.1240  0.0475 -0.2762
 3608W        W20082   4.805   6.758  15.306  0.1111  0.2375 -0.0671
 3609W        W20083  10.088   4.189  13.050  0.1280  0.1030  0.1446
 3610W        W20084   0.939  11.699   2.965 -0.0993 -0.1645  0.0847
 3611W        W20085   6.359   9.624  11.405 -0.1382  0.0345  0.0375
 3612W        W20086  11.233  17.917  14.962  0.2671 -0.0294  0.1599
 3613W        W20087   3.853   1.130   2.821  0.2373  0.0462  0.1934
 3614W        W20088  12.229  10.883   1.086  0.1295  0.2105  0.2657
 3615W        W20089  14.583   5.745   1.110 -0.0647 -0.2566 -0.5014
 3616W        W20090   5.640   9.496  13.561  0.2786 -0.1676 -0.1147
 3617W        W20091  13.649   1.613   2.985 -0.0580 -0.0423 -0.1133
 3618W        W20092  15.693   4.014  12.311  0.0489  0.3104  0.1022
 3619W        W20093   8.933  13.952   0.888 -0.0182 -0.1544 -0.1692
 3620W        W20094  14.744   2.820  15.379 -0.1855 -0.1396  0.1057
 3621W        W20095   5.849   2.888  13.063 -0.0795 -0.3643 -0.1358
 3622W        W20096  12.771   0.955   0.550 -0.1065  0.0742 -0.0749
 3623W        W20097  15.989   8.692   2.838 -0.2467 -0.1143 -0.1568
 3624W        W20098  11.504  10.292   4.001  0.0092  0.0558  0.2235
 3625W        W20099   0.793  16.060  12.610 -0.3607  0.2090 -0.0393
 3626W        W20100  12.757  15.576  12.863 -0.1377 -0.2434 -0.1914
 3627W        W20101   9.987   6.151   4.346  0.1453 -0.0523 -0.2097
 3628W        W20102   2.211  12.499  11.285 -0.3395  0.0977  0.0710
 3629W        W20103   8.567  14.366   2.262  0.2020 -0.0215  0.1898
 3630W        W20104  14.967  14.431  14.483 -0.3676 -0.1193  0.2111
 3631W        W20105   5.801  14.391  15.408 -0.1921 -0.1822  0.1220
 3632W        W20106   9.281   7.493  16.244 -0.0011  0.0661 -0.2468
 3633W        W20107   6.274  12.700   5.074 -0.2722 -0.0104 -0.2232
 3634W        W20108   4.598   4.870   3.204  0.1872  0.2505  0.0970
 3635W        W20109  12.683  16.650  15.673  0.4263  0.1034 -0.1717
 3636W        W20110  15.177  15.927   1.090  0.2158  0.0527 -0.0937
 3637W        W20111   1.898   3.998  16.642 -0.0628  0.3218  0.0620
 3638W        W20112   1.327  17.741  15.669 -0.0445  0.2911 -0.0755
 3639W        W20113   3.516   5.766   1.297  0.2637  0.2045  0.0837
 3640W        W20114  10.944  15.059   1.709  0.0656 -0.1970  0.1050
 3641W        W20115   8.146   3.780   5.802 -0.2348 -0.0761  0.0804
 3642W        W20116   8.579   4.214   2.228  0.1370  0.2694  0.0798
 3643W        W20117   7.377   9.803   0.448  0.2040 -0.3104  0.2975
 3644W        W20118  12.854   8.717  11.906 -0.0659 -0.0489 -0.0707
 3645W        W20119   4.741   5.521   2.061  0.0867 -0.4060 -0.2840
 3646W        W20120   0.083   4.120  12.543 -0.0696 -0.2116  0.0165
 3647W        W20121   4.364   6.370  12.169  0.2221  0.1372 -0.1574
 3648W        W20122  15.416   8.104   0.373  0.1260  0.1322 -0.1238
 3649W        W20123  14.566  12.951   4.884 -0.0085 -0.0968 -0.0109
 3650W        W20124  15.915  17.573  11.443  0.0823 -0.0332  0.0642
 3651W        W20125  13.669  14.372   3.115  0.2597 -0.2047  0.3568
 3652W        W20126   0.596  10.754   2.218 -0.1904  0.0168 -0.1789
 3653W        W20127   5.211   9.427  16.002  0.0006  0.3336  0.0142
 3654W        W20128   0.196  13.046  15.719 -0.0390 -0.1249 -0.2092
 3655W        W20129   4.180   9.581   2.890  0.4248  0.2234 -0.2271
 3656W        W20130  17.782   3.925  15.614  0.0270  0.0321  0.2742
 3657W        W20131   7.568   9.891  15.951  0.1757 -0.0211 -0.0918
 3658W        W20132  14.766  15.037   0.883 -0.1449  0.1521  0.0995
 3659W        W20133   8.552   5.290   1.213 -0.3891 -0.0544  0.1477
 3660W        W20134   0.164   3.286  13.591  0.0702 -0.2977  0.0481
 3661W        W20135  11.135   4.746  13.031  0.2352  0.4379  0.3944
 3662W        W20136  14.108   5.706   6.178 -0.1103 -0.2596  0.2834
 3663W        W20137   5.450   9.531   4.319  0.1052  0.1075  0.2480
 3664W        W20138   1.550  14.456  14.596  0.1836  0.1282  0.0040
 3665W        W20139  12.266   8.584   2.528  0.2446  0.2886 -0.1883
 3666W        W20140  14.337   9.380   2.308 -0.0101 -0.3587  0.2273
 3667W        W20141  14.764   4.709  16.535  0.0231 -0.2900 -0.0455
 3668W        W20142  14.835   0.061  11.837 -0.3472 -0.0758  0.1226
 3669W        W20143   0.282  14.837   2.206  0.3008  0.0241  0.0362
 3670W        W20144  11.600   3.561  13.639  0.1016 -0.0212  0.1516
 3671W        W20145   7.207   3.757   0.710  0.0610 -0.1275  0.0485
 3672W        W20146   8.531   4.039   1.460 -0.1402 -0.2493  0.1874
 3673W        W20147   1.857   6.497   4.251  0.0337 -0.4813  0.0008
 3674W        W20148  11.837   1.352   1.155 -0.1324  0.0657  0.0199
 3675W        W20149   2.017   6.835   3.514  0.0656  0.1593  0.1254
 3676W        W20150   2.769  13.315   3.104  0.3440 -0.2623  0.1961
 3677W        W20151   6.234   5.749   4.672 -0.1585 -0.0637  0.1538
 3678W        W20152   3.915   7.503  16.092 -0.3815  0.0535 -0.0730
 3679W        W20153   7.860   3.913  12.625  0.0323  0.1413  0.0748
 3680W        W20154  16.998   8.421  15.076 -0.0984  0.0691 -0.3651
 3681W        W20155   2.509   5.964   4.960  0.0095 -0.0878 -0.0678
 3682W        W20156   5.061   6.148   3.540 -0.0968 -0.0465  0.0105
 3683W        W20157   9.828  13.299   0.078 -0.0599  0.0493 -0.1157
 3684W        W20158  12.594  15.098  13.060  0.0764 -0.1745  0.4735
 3685W        W20159  12.087   9.916   4.369  0.0562  0.0346 -0.1219
 3686W        W20160  17.588   8.106   1.601  0.1656 -0.3664  0.4106
 3687W        W20161  11.574  12.840  12.113 -0.0118 -0.1828  0.1838
 3688W        W20162   8.487   6.465  12.233  0.0320  0.1530 -0.0569
 3689W        W20163   3.175  10.043  15.356 -0.0237  0.0803  0.2479
 3690W        W20164   6.225  14.398  16.569  0.1849  0.0595 -0.3468
 3691W        W20165   8.951   1.352   2.010 -0.3828  0.1869 -0.2590
 3692W        W20166  10.786   8.520   2.922 -0.1777  0.0219  0.5145
 3693W        W20167   5.045   0.224   5.389  0.0766 -0.1056 -0.2422
 3694W        W20168  15.169   5.806  14.720  0.4424 -0.1772  0.2798
 3695W        W20169   4.123   9.199   1.059 -0.0230  0.1171  0.0616
 3696W        W20170  14.387   2.434  15.449  0.1096 -0.0889  0.1167
 3697W        W20171   2.085  15.377  14.256  0.2564  0.0608  0.2856
 3698W        W20172   6.091  17.405  11.277 -0.2009 -0.2167  0.1738
 3699W        W20173   5.910   0.808  11.895  0.1032 -0.0089  0.1534
 3700W        W20174   5.687   6.771   5.571  0.0174 -0.0184  0.1280
 3701W        W20175  17.828   9.468  12.965  0.1034 -0.1816 -0.2686
 3702W        W20176  11.832  15.596   1.688 -0.0784 -0.1501 -0.0333
 3703W        W20177  12.252   2.141   3.049  0.2256 -0.2128 -0.0643
 3704W        W20178   9.015   2.427   1.603  0.1835  0.0320 -0.1449
 3705W        W20179  17.961   0.751   0.728  0.0685 -0.1142 -0.1556
 3706W        W20180  14.121  13.412   5.019 -0.0120  0.1695  0.3879
 3707W        W20181   6.237   5.482  15.335 -0.1657 -0.3345 -0.1969
 3708W        W20182  14.903  11.570   3.620 -0.0002 -0.0757  0.1707
 3709W        W20183  10.630   5.877  12.291 -0.3696 -0.0972 -0.1695
 3710W        W20184  10.401   8.689   5.737 -0.1009 -0.0826 -0.1057
 3711W        W20185  16.382  12.161  10.239 -0.0235 -0.0198  0.1620
 3712W        W20186   7.487   8.900   3.292 -0.0296 -0.1395  0.2162
 3713W        W20187   4.636  16.584  14.750 -0.1464  0.1420 -0.0143
 3714W        W20188  15.622   6.251   5.532  0.0896  0.1587  0.1515
 3715W        W20189   3.319  14.208  15.592 -0.1645 -0.1103 -0.0971
 3716W        W20190   0.622   9.377  14.261  0.1556 -0.2172  0.0107
 3717W        W20191  12.471   0.658  14.319 -0.0234  0.2390 -0.0006
 3718W        W20192  12.446   1.965   1.506 -0.0342  0.3366 -0.2341
 3719W        W20193  10.710  15.082  14.049 -0.2742 -0.0303  0.0004
 3720W        W20194  16.419  15.054   0.082 -0.2063 -0.3862  0.1027
 3721W        W20195  10.997   5.593   4.746  0.0642 -0.1602 -0.0821
 3722W        W20196  11.679  15.874   0.313 -0.3301 -0.0472 -0.0017
 3723W        W20197   7.112   0.148   0.199  0.1585 -0.1865 -0.2484
 3724W        W20198  13.485   3.725   4.027 -0.0048  0.1660 -0.1740
 3725W        W20199   7.660   8.885  13.757 -0.1197 -0.1684  0.1851
 3726W        W20200  14.716   4.392   3.605  0.1885 -0.3149 -0.0020
 3727W        W20201  17.554  16.679  14.995 -0.1355 -0.1045  0.1097
 3728W        W20202  15.553   6.024   2.854  0.0270  0.0396 -0.0722
 3729W        W20203  13.722   5.931   0.727 -0.1053 -0.0651  0.2309
 3730W        W20204   8.012  13.153  14.458 -0.0929  0.0232  0.1759
 3731W        W20205  16.370   8.099   3.040  0.1747  0.1716 -0.1008
 3732W        W20206  16.787   9.189   2.583 -0.0087  0.0389  0.1974
 3733W        W20207   0.198   4.092   4.025 -0.5056  0.0227  0.1886
 3734W        W20208   1.558   9.683  11.423  0.2035  0.0560  0.2151
 3735W        W20209  10.265  17.943   5.115 -0.2819 -0.0573  0.1422
 3736W        W20210   0.357  12.319   5.324  0.0563  0.1153 -0.3094
 3737W        W20211   1.225  10.290   3.956  0.0491 -0.1311  0.2016
 3738W        W20212  15.671   0.581  16.174  0.0933  0.0715  0.0082
 3739W        W20213   2.499  14.086  14.146 -0.3018  0.1723  0.1694
 3740W        W20214   1.839   3.950   4.254  0.2948  0.1349 -0.4501
 3741W        W20215  11.711  11.832  12.649  0.2260 -0.2184 -0.2091
 3742W        W20216   1.943   4.446  13.877  0.3977 -0.1880  0.2175
 3743W        W20217  14.242   1.753   1.163  0.2204 -0.1066 -0.0796
 3744W        W20218  13.871  10.090  15.084  0.0682 -0.0595  0.2472
 3745W        W20219   4.096  15.589   3.113  0.0541 -0.0115 -0.1406
 3746W        W20220  17.420  15.876  13.143 -0.0562  0.0389 -0.2732
 3747W        W20221  16.035  17.814  13.076  0.0116 -0.0607 -0.0576
 3748W        W20222   1.075  14.035   0.302  0.0010  0.1694  0.0031
 3749W        W20223   7.573  10.680  12.036 -0.1847  0.2520 -0.0136
 3750W        W20224  11.938   0.155   5.240  0.0210 -0.0204 -0.3768
 3751W        W20225  13.782  12.092   0.765 -0.0570 -0.0440  0.3802
 3752W        W20226   5.677  17.397  13.762  0.2924  0.2547 -0.1882
 3753W        W20227   6.322   9.676  13.582  0.1355 -0.2935 -0.0364
 3754W        W20228  14.787   9.108   3.225  0.0797 -0.2038 -0.2584
 3755W        W20229   7.692   5.785  15.198  0.2022 -0.4828 -0.2542
 3756W        W20230  16.962   1.852   3.914 -0.3032  0.1490 -0.0355
 3757W        W20231   9.752  14.144  13.724 -0.1714 -0.1261 -0.2454
 3758W        W20232  16.218  17.467  14.826  0.2258 -0.0823 -0.0365
 3759W        W20233   0.388   3.985  12.106  0.0820  0.2103 -0.0204
 3760W        W20234   0.863   2.540  14.575  0.2685 -0.1423  0.2015
 3761W        W20235  10.357   6.074   2.445  0.0053 -0.0704  0.1716
 3762W        W20236   4.601  15.288   5.058 -0.1372 -0.2778 -0.0815
 3763W        W20237   4.151   8.829   3.031 -0.1173 -0.2046 -0.2326
 3764W        W20238   1.286  13.654   3.919 -0.1070 -0.0486  0.1500
 3765W        W20239   7.479   0.477  13.815  0.0528  0.0892 -0.0231
 3766W        W20240   8.462   1.336   0.787 -0.0404 -0.0086 -0.1760
 3767W        W20241   3.237  17.766   0.704 -0.3195 -0.0728  0.0063
 3768W        W20242   4.827   2.042   0.151 -0.0423  0.2187 -0.2167
 3769W        W20243  15.185   9.484  13.008  0.1320  0.0861 -0.0740
 3770W        W20244   4.243   5.970  15.520  0.0368 -0.4224 -0.0314
 3771W        W20245  12.131   9.913   3.831  0.2925 -0.0332 -0.0680
 3772W        W20246  10.983  17.418   5.125  0.0165 -0.1633 -0.0816
 3773W        W20247   3.604  12.975   1.391  0.3557  0.0003 -0.2672
 3774W        W20248   9.564   5.437   4.691  0.1555 -0.3307 -0.1251
 3775W        W20249  15.390   7.582   0.641  0.1506 -0.0705 -0.1603
 3776W        W20250  10.381   8.096  16.718 -0.0130 -0.0632 -0.3268
 3777W        W20251  15.863   4.046  14.530  0.0083 -0.0377  0.2584
 3778W        W20252   7.732   6.832  14.179  0.0011 -0.1453 -0.0142
 3779W        W20253   6.445  10.161  16.522 -0.0698 -0.1245  0.0688
 3780W        W20254   4.097  12.733  16.462  0.1682  0.1666 -0.3507
 3781W        W20255  13.466   8.789   1.649 -0.1285  0.2146  0.2807
 3782W        W20256   1.347  13.069  12.278 -0.1595 -0.0053 -0.0374
 3783W        W20257   8.701   8.374  12.976 -0.1058  0.1044 -0.1183
 3784W        W20258   1.072   1.506   5.209  0.2364 -0.0175 -0.2174
 3785W        W20259   0.919  11.431  11.846 -0.0557 -0.1913  0.1009
 3786W        W20260   3.801  14.801  13.357 -0.5476  0.1278 -0.1476
 3787W        W20261   4.721  16.686   2.858  0.1625 -0.0664 -0.0454
 3788W        W20262  10.646  12.809   1.611  0.0570  0.0176  0.0064
 3789W        W20263  12.825   6.104   2.192  0.0098 -0.1255 -0.2177
 3790W        W20264  15.020   0.143  12.860  0.0040 -0.0958 -0.2974
 3791W        W20265  13.497   9.359  15.333  0.2790 -0.0366 -0.1350
 3792W        W20266  17.828   2.958  15.223 -0.0543  0.2536 -0.1194
 3793W        W20267  11.623   0.601  16.354 -0.1741  0.1001  0.2955
 3794W        W20268   9.485  11.019  11.503 -0.1453 -0.0286  0.0134
 3795W        W20269   1.699  12.833   4.342  0.1127 -0.2246 -0.3126
 3796W        W20270  13.953   8.109   0.262 -0.5087 -0.0601 -0.0231
 3797W        W20271   8.601   6.531   3.535 -0.0253  0.4008  0.0302
 3798W        W20272   7.653   4.842   3.438 -0.0077 -0.4142  0.3587
 3799W        W20273   4.852  11.129   4.914 -0.2963  0.0151  0.0153
 3800W        W20274  13.850   7.335  13.135  0.1660  0.3557 -0.0327
 3801W        W20275   6.384   7.020   2.094 -0.1982 -0.1752  0.0627
 3802W        W20276   7.641   6.278   1.653  0.3649 -0.3271  0.0462
 3803W        W20277   6.623   7.897   6.170  0.2277 -0.1207  0.4027
 3804W        W20278  15.357  15.141   2.161 -0.0545  0.1167  0.2579
 3805W        W20279   6.978   8.464   2.092 -0.0125 -0.0251  0.3300
 3806W        W20280  17.989   6.937   5.675 -0.0745 -0.2628 -0.0758
 3807W        W20281  15.974  15.788  12.691 -0.2063  0.0549 -0.2882
 3808W        W20282  15.527  10.937   5.393 -0.1457  0.0082 -0.2447
 3809W        W20283   7.272   6.226   4.562  0.1585  0.0936 -0.0686
 3810W        W20284   0.139  15.468  12.154  0.0596  0.0742 -0.0740
 3811W        W20285   1.060   3.550  13.324  0.5947 -0.0297  0.0700
 3812W        W20286  15.545   5.776  15.106  0.3065 -0.1224 -0.3886
 3813W        W20287   2.408  11.878  13.951  0.0138  0.1476 -0.0608
 3814W        W20288  14.841   0.793   5.755 -0.0913  0.0636  0.0592
 3815W        W20289   0.835   8.450  15.475 -0.0790 -0.2887 -0.2537
 3816W        W20290  16.047  16.659  11.937  0.1489  0.1772  0.1956
 3817W        W20291  11.662  15.504   5.784 -0.2524  0.1214 -0.0339
 3818W        W20292  10.366   6.059  15.240 -0.0631 -0.0924  0.1481
 3819W        W20293   5.287   8.269   5.654 -0.2781 -0.3151 -0.0341
 3820W        W20294  10.380   2.002   5.541 -0.1334  0.0496 -0.2149
 3821W        W20295   7.557   4.584  13.619 -0.1409  0.2806  0.1683
 3822W        W20296  14.132  11.616   1.483  0.1154  0.2507  0.3692
 3823W        W20297   2.468  13.274  13.023  0.0317 -0.2828 -0.0463
 3824W        W20298  17.088   7.564  12.334  0.1144 -0.0473 -0.3023
 3825W        W20299   2.756   1.695   2.375  0.1271  0.0185 -0.3290
 3826W        W20300   0.283   3.005  11.663 -0.4184 -0.4416  0.2769
 3827W        W20301   7.886   3.330   2.816  0.1765  0.5386  0.2727
 3828W        W20302   3.796   4.054   2.561  0.0382  0.1492 -0.0008
 3829W        W20303   8.678   1.161  15.769 -0.1352 -0.2651 -0.1800
 3830W        W20304   3.223   9.216   0.921 -0.2473  0.0008 -0.4129
 3831W        W20305   8.421  17.331   4.340 -0.0504 -0.3317 -0.0311
 3832W        W20306   9.871  16.594   3.157 -0.0027 -0.0250 -0.0405
 3833W        W20307   5.728   9.956  14.101  0.1144 -0.0616  0.0312
 3834W        W20308   3.368   3.676  15.993 -0.0557  0.3887 -0.0414
 3835W        W20309  17.219  17.982  11.691 -0.1131 -0.1720 -0.2092
 3836W        W20310  13.666  11.317  12.587 -0.1689 -0.2285 -0.0471
 3837W        W20311   8.259  12.771  12.504  0.1830 -0.1965  0.0917
 3838W        W20312   3.576   6.957   0.883  0.2196  0.0219 -0.0522
 3839W        W20313   9.652  10.222   3.017 -0.0969  0.0606  0.1758
 3840W        W20314   2.379   7.837  14.578 -0.1993  0.1166 -0.1409
 3841W        W20315   2.253   3.435  15.337  0.1338 -0.1760 -0.0747
 3842W        W20316  15.897  13.659   2.453  0.0198  0.0223  0.0505
 3843W        W20317  14.000  13.453  15.592 -0.1273 -0.1983  0.0693
 3844W        W20318   4.942  10.536   5.611  0.2767  0.1420 -0.0255
 3845W        W20319  17.439   1.627   3.855 -0.1696 -0.0402  0.0141
 3846W        W20320   4.150  17.271   3.921  0.1618  0.2216 -0.0374
 3847W        W20321  13.067   0.056  14.618  0.1523 -0.3048  0.0994
 3848W        W20322  11.050   8.109  14.856  0.3298  0.1033  0.2558
 3849W        W20323   6.868  16.409  13.943 -0.3689  0.2490 -0.0793
 3850W        W20324   2.007  14.706  13.436  0.2569 -0.4493 -0.0554
 3851W        W20325  11.657   2.867  15.273 -0.2017  0.1603  0.2577
 3852W        W20326   5.885  13.611   5.180  0.0832  0.0336  0.1460
 3853W        W20327  17.411  12.814  15.205  0.1017  0.4081 -0.2080
 3854W        W20328  16.489   1.295  13.849 -0.2302  0.1637  0.0924
 3855W        W20329   8.694  14.867   0.115  0.0115  0.2267  0.3875
 3856W        W20330   4.257  16.052   3.414 -0.1487 -0.0152  0.0618
 3857W        W20331  11.054  16.897  11.909  0.1086 -0.0281  0.1649
 3858W        W20332   4.380   9.294   1.500 -0.1012 -0.2605  0.2213
 3859W        W20333   8.693  16.710   1.282 -0.2023  0.0286  0.2160
 3860W        W20334  13.132   3.234   3.386  0.1863  0.1651 -0.0415
 3861W        W20335  17.342   6.207   1.405 -0.2702 -0.1524  0.2001
 3862W        W20336  13.876  15.759   4.214 -0.0887 -0.1247  0.0538
 3863W        W20337   8.704   7.252  14.241  0.1802  0.1027 -0.1419
 3864W        W20338   0.080   9.041  12.930 -0.2318 -0.0003  0.1253
 3865W        W20339  15.219  15.432   1.343 -0.2352 -0.0514 -0.1231
 3866W        W20340  11.369  11.371   0.024  0.1107  0.1951  0.1711
 3867W        W20341  12.869  10.520  12.295 -0.0935 -0.1028 -0.0982
 3868W        W20342  14.152   3.215  11.987 -0.0808 -0.2438 -0.1491
 3869W        W20343   0.970   3.798   4.030 -0.3640  0.1087  0.2187
 3870W        W20344   3.953  11.461  11.470 -0.0079  0.1358 -0.2211
 3871W        W20345  11.214   9.804   5.503  0.0849  0.0694  0.2341
 3872W        W20346  12.223   0.745   2.237 -0.1527 -0.2734 -0.2625
 3873W        W20347  10.020   4.628   3.752 -0.0614 -0.2914  0.2076
 3874W        W20348   2.280  15.465   4.019 -0.1547 -0.0926 -0.0654
 3875W        W20349  10.436   3.915  12.834  0.0536 -0.3605  0.0542
 3876W        W20350   2.112   0.838  11.576 -0.3506 -0.1234 -0.1953
 3877W        W20351   7.816   9.838   1.885 -0.1909 -0.1132 -0.0350
 3878W        W20352   4.891  15.146   3.272 -0.5135  0.0950  0.1208
 3879W        W20353  14.935   1.319  14.443  0.1300  0.1877  0.1567
 3880W        W20354   6.122  16.231  14.679  0.2333 -0.2949 -0.2225
 3881W        W20355  15.411   0.194   2.390  0.3188  0.1018  0.0476
 3882W        W20356  11.949   7.157   3.346  0.1568  0.0519 -0.2825
 3883W        W20357   9.686  11.857   5.651  0.1397  0.2365 -0.1184
 3884W        W20358   9.232   1.693   3.203  0.1289 -0.2273  0.1150
 3885W        W20359  11.045   2.194   3.837 -0.1353  0.0705  0.3707
 3886W        W20360  16.234  10.468   5.930 -0.3771 -0.0389  0.0512
 3887W        W20361  15.369  17.010   3.083 -0.2982  0.3998 -0.0973
 3888W        W20362   2.258   3.897  11.615 -0.1801  0.0351 -0.0522
 3889W        W20363  10.561   4.806   0.507  0.0092  0.2536  0.1361
 3890W        W20364  17.175  13.325   2.366 -0.1819  0.2816 -0.1831
 3891W        W20365   9.162  16.840   5.885  0.3277 -0.0710  0.0925
 3892W        W20366  16.823   8.006   3.840 -0.3482  0.0074  0.0544
 3893W        W20367   7.925   5.321  16.109  0.1943  0.1139 -0.0090
 3894W        W20368   6.365  16.698  14.441 -0.0419 -0.0182 -0.1698
 3895W        W20369   0.421   6.390   3.110  0.2877 -0.0642  0.0755
 3896W        W20370  12.079  12.468   0.380  0.0712  0.4365  0.1656
 3897W        W20371   1.458  12.167  11.005 -0.3955  0.2535  0.3351
 3898W        W20372   0.604   8.420  14.201  0.5539 -0.3040  0.1421
 3899W        W20373  13.889  13.269  14.191 -0.3052  0.0744  0.1854
 3900W        W20374  15.118   4.719  14.593  0.0326 -0.1018  0.2649
 3901W        W20375  14.142  12.914   0.860 -0.0470  0.0865  0.0122
 3902W        W20376  14.317  13.875  15.080 -0.0487  0.0736 -0.5394
 3903W        W20377   4.155  10.683   0.193  0.1498  0.2804 -0.3884
 3904W        W20378  10.241   2.142  16.383 -0.3058  0.1957 -0.0713
 3905W        W20379  15.539   6.705   2.432  0.0121  0.4122 -0.3154
 3906W        W20380   8.433   9.187  16.346  0.0157  0.2587 -0.0931
 3907W        W20381  16.007   3.990  11.410 -0.0334  0.1306 -0.1340
 3908W        W20382   9.893   9.209   6.321 -0.1031 -0.0188 -0.0430
 3909W        W20383  11.512   6.858  15.450  0.3110  0.2438  0.3221
 3910W        W20384   2.035  12.944   4.665  0.1554  0.3960  0.1369
 3911W        W20385   8.653   7.922   2.506  0.0434  0.0676  0.2667
 3912W        W20386  16.845  17.923  13.943  0.6130  0.1028 -0.0939
 3913W        W20387  10.425  12.585  11.964  0.0626  0.0538 -0.0993
 3914W        W20388   8.129   4.527   2.213  0.1765  0.3790 -0.1496
 3915W        W20389  10.130   2.397   1.918 -0.0599 -0.0524 -0.1493
 3916W        W20390   2.620  11.774   3.870 -0.0697  0.0573  0.1226
 3917W        W20391   3.904   1.440   1.516 -0.0497 -0.3314 -0.1747
 3918W        W20392   9.820   7.823   4.361  0.0483  0.1024  0.1504
 3919W        W20393  10.731   0.166   0.638  0.0622 -0.2001  0.0453
 3920W        W20394  15.160   0.548  12.575  0.0069  0.1042  0.1936
 3921W        W20395  13.836   8.753  12.195 -0.0797 -0.0800  0.1047
 3922W        W20396   0.343  12.001  12.459 -0.4519 -0.1929 -0.3202
 3923W        W20397   2.771   0.241  16.451  0.0275 -0.1395 -0.2132
 3924W        W20398  12.684  15.469   2.531  0.1582 -0.0498  0.2380
 3925W        W20399   1.463  10.968  12.908 -0.0321  0.4526  0.0908
 3926W        W20400  11.843  17.424   6.194  0.2993  0.1882 -0.0843
 3927W        W20401   7.275  13.605  12.877  0.0072 -0.0310 -0.2860
 3928W        W20402   7.851  16.343  13.409 -0.1044  0.0522  0.3253
 3929W        W20403   8.582   9.916  13.960 -0.3288 -0.0377 -0.2756
 3930W        W20404  11.464  17.753  12.395  0.0577 -0.3087 -0.1873
 3931W        W20405   7.882  16.378   0.984 -0.1496 -0.0921 -0.0364
 3932W        W20406  10.297   1.977  13.905 -0.1038  0.0476  0.0370
 3933W        W20407   9.282   9.639  12.748  0.0711  0.0189 -0.1059
 3934W        W20408  16.815   7.411   3.258 -0.0394  0.1866 -0.4703
 3935W        W20409  16.740  11.357  11.056  0.1418  0.2174  0.1982
 3936W        W20410  16.940   2.544   4.098  0.1598  0.1842  0.2512
 3937W        W20411   9.323   6.177  14.829  0.2261 -0.3936 -0.1994
 3938W        W20412   4.192   5.312   2.832  0.1266  0.1651 -0.0933
 3939W        W20413  12.970   7.359  16.031  0.0540 -0.1159  0.0337
 3940W        W20414  13.723  16.380  15.370 -0.1566 -0.2219 -0.2609
 3941W        W20415   1.721   6.830  16.511 -0.0736  0.1837  0.4322
 3942W        W20416   3.275   6.475   0.755 -0.0784 -0.0036  0.1776
 3943W        W20417  11.122   3.546   2.215 -0.1086 -0.1273 -0.0648
 3944W        W20418   9.255   0.533   4.074 -0.0806  0.2746  0.0819
 3945W        W20419  14.039  13.670   1.206 -0.0354  0.0872  0.2865
 3946W        W20420  17.441  14.109  12.485  0.0871 -0.1248 -0.2775
 3947W        W20421  16.440   8.331   3.817 -0.0331 -0.2212  0.1289
 3948W        W20422  11.165   4.900   5.735 -0.1015  0.2631  0.0371
 3949W        W20423  15.417  16.038   1.954  0.1961  0.1950 -0.0245
 3950W        W20424   7.282   7.158   1.234  0.0702  0.2611  0.2884
 3951W        W20425  11.849   0.096  15.216  0.0337 -0.0867  0.0898
 3952W        W20426  11.520  13.688   5.815  0.0519  0.3143 -0.1055
 3953W        W20427   8.968   6.947  15.255  0.0921  0.1864 -0.0179
 3954W        W20428  10.631   9.636   4.903 -0.0697 -0.3483 -0.1736
 3955W        W20429   0.636   7.165   1.516  0.0388 -0.1084 -0.1606
 3956W        W20430   3.542   2.621  11.546 -0.2745  0.4306  0.2393
 3957W        W20431  16.306  15.710   2.354 -0.2306  0.1628 -0.0148
 3958W        W20432  12.599   3.575   4.119 -0.2889  0.2727  0.0450
 3959W        W20433   8.527  16.122  12.128  0.3045  0.2743  0.2684
 3960W        W20434  15.187   2.546  11.432  0.0118 -0.2840  0.1304
 3961W        W20435   3.007  11.668   0.939  0.0067  0.1229 -0.0311
 3962W        W20436   2.908   9.430   5.402 -0.0832  0.0693 -0.4109
 3963W        W20437   9.956  17.361  15.046  0.0722  0.2068 -0.0331
 3964W        W20438   8.586  13.495  16.423 -0.0417  0.1664  0.1777
 3965W        W20439   0.154   6.340  11.490  0.1776  0.3089  0.0276
 3966W        W20440   1.563   9.751   2.237 -0.0194  0.2526  0.1766
 3967W        W20441   6.405   3.685   1.177 -0.1195  0.0447 -0.1331
 3968W        W20442  12.451   3.286   0.252  0.1434 -0.0157  0.0310
 3969W        W20443   4.432   9.344  11.968  0.1382  0.0554  0.1734
 3970W        W20444   6.496   3.641  16.638  0.0270  0.1720  0.2911
 3971W        W20445  13.495   3.243   2.258  0.2066 -0.0703  0.3587
 3972W        W20446  11.132   2.034  14.100  0.0344 -0.2207 -0.0397
 3973W        W20447   0.422  16.196  13.274 -0.3556 -0.1916 -0.1815
 3974W        W20448  11.343   4.820   1.140 -0.2077 -0.0328  0.1937
 3975W        W20449  17.781   1.755   1.184  0.0229 -0.3560  0.0399
 3976W        W20450   8.567   8.420   4.359  0.0177  0.0423 -0.1624
 3977W        W20451   1.607   9.039   0.674 -0.2540  0.2301 -0.2580
 3978W        W20452   2.436  17.332  14.383 -0.0016 -0.3588  0.1221
 3979W        W20453   8.402  12.140   5.358  0.1006 -0.0631 -0.1636
 3980W        W20454  11.544  15.643  13.299  0.0099  0.1328  0.4673
 3981W        W20455  15.929  11.954  13.166 -0.0658  0.0629 -0.2324
 3982W        W20456   9.203   0.369   3.089  0.2862  0.0028 -0.0347
 3983W        W20457  10.383   7.093  14.867 -0.3715 -0.1812  0.1343
 3984W        W20458   2.769  11.028   1.659 -0.0071  0.1588 -0.0945
 3985W        W20459   0.948   3.470  12.445 -0.0192  0.1641  0.0237
 3986W        W20460   3.438  11.269   2.614  0.0994 -0.0821  0.1648
 3987W        W20461  14.596  17.207  12.490  0.0627 -0.0455 -0.0278
 3988W        W20462  15.036  10.471  14.079  0.0003  0.2151  0.1867
 3989W        W20463  13.927   8.127   1.970  0.0366 -0.0246 -0.0799
 3990W        W20464   4.563  10.254   2.282 -0.1218 -0.2179 -0.3309
 3991W        W20465  10.840   6.556  11.896  0.3347  0.0111 -0.1685
 3992W        W20466   1.924  16.851   5.277  0.2192  0.6091  0.0699
 3993W        W20467   6.170  10.634   4.600 -0.2884  0.0284  0.2626
 3994W        W20468   3.034   5.126  16.256  0.2194  0.2969  0.3552
 3995W        W20469   5.373   4.087  15.014  0.0573 -0.1186  0.2251
 3996W        W20470   5.588   4.309   2.830 -0.0852  0.0250  0.2114
 3997W        W20471  17.401   7.138  14.931 -0.0793 -0.1411 -0.0009
 3998W        W20472  17.566  11.012   0.720  0.0860  0.2685 -0.0383
 3999W        W20473  11.342  14.248   2.713 -0.3638  0.0580  0.3908
 4000W        W20474  12.191  13.599   1.578  0.1515 -0.1096 -0.2541
 4001W        W20475   9.135  11.414  11.457 -0.4084 -0.1091  0.3566
 4002W        W20476   4.715  13.586  14.690 -0.0998 -0.1017 -0.0208
 4003W        W20477   4.117   8.555   2.186 -0.0474  0.1599 -0.2095
 4004W        W20478  17.950  10.529   2.220  0.0322 -0.2873 -0.3554
 4005W        W20479   6.355   4.668   3.567 -0.0507 -0.4561  0.0150
 4006W        W20480   1.755   4.847   0.692  0.2236 -0.0685  0.2367
 4007W        W20481  17.304  15.449  14.764 -0.0125  0.2101  0.3006
 4008W        W20482   9.868  17.337   2.637  0.1163 -0.2751  0.2838
 4009W        W20483   8.658   7.117  16.252  0.0353  0.0015 -0.1252
 4010W        W20484   7.191   9.463   1.070  0.1241  0.1099  0.0829
 4011W        W20485  12.807  15.318   3.470  0.0454 -0.1275 -0.0758
 4012W        W20486  17.349   9.548  14.350  0.2013 -0.1661  0.0802
 4013W        W20487   5.025  10.570  10.383  0.1304 -0.1973  0.0995
 4014W        W20488  13.795  10.559   0.891 -0.0773  0.1397  0.1134
 4015W        W20489   7.147  10.282   2.240 -0.0831  0.1079 -0.3277
 4016W        W20490   5.518   4.207   0.210 -0.0322 -0.2942 -0.2970
 4017W        W20491  17.940  15.892  16.295 -0.2702 -0.1612 -0.0265
 4018W        W20492  15.450   5.666   3.278  0.0050 -0.0477 -0.2150
 4019W        W20493  12.995   9.399  15.474  0.1945  0.2220  0.0086
 4020W        W20494  12.843   8.971   0.163  0.1296 -0.0028  0.1173
 4021W        W20495  12.123  11.716   0.350 -0.2446  0.1466 -0.0012
 4022W        W20496  17.343   6.743   2.345 -0.2091 -0.0872 -0.0299
 4023W        W20497   1.683   1.060   0.307 -0.3081  0.2238  0.0778
 4024W        W20498   8.382  13.030  12.046  0.1636  0.3011 -0.1062
 4025W        W20499  11.961   4.829   6.143 -0.1517  0.0201  0.1571
 4026W        W20500   2.206  11.851   0.242 -0.1823 -0.2968 -0.0648
 4027W        W20501   0.631  10.816  14.000 -0.1478 -0.1215  0.1185
 4028W        W20502  10.740   3.981   1.012  0.1848 -0.0780  0.3109
 4029W        W20503   3.104  16.293   5.244  0.0653 -0.2223  0.0945
 4030W        W20504  15.947  12.355  16.755  0.3772  0.2455  0.3222
 4031W        W20505   1.080   5.238  15.502 -0.2857 -0.0133  0.1248
 4032W        W20506   6.739   8.196  16.214  0.2889 -0.1380 -0.3701
 4033W        W20507   3.117   4.563   2.116 -0.1753 -0.0631  0.1015
 4034W        W20508   7.291   1.220   4.453  0.0034 -0.1236  0.1159
 4035W        W20509   5.358  15.057  13.847  0.1577  0.1381  0.0544
 4036W        W20510   3.066  14.969   2.316  0.1870  0.2112  0.2503
 4037W        W20511  17.682  14.368  14.584 -0.4385 -0.0691  0.1509
 4038W        W20512  10.194   4.296   0.929  0.2357  0.1893 -0.1443
 4039W        W20513   8.078   3.672  14.442 -0.1986 -0.0463  0.0756
 4040W        W20514   6.847  10.501  12.078  0.0066 -0.1692 -0.2359
 4041W        W20515   2.292   8.061   3.285  0.0397 -0.3677 -0.1034
 4042W        W20516   7.249   7.984  12.253  0.2218 -0.0875 -0.0982
 4043W        W20517   5.076   8.983   0.705 -0.2557  0.1512 -0.1800
 4044W        W20518   6.689   8.523   1.670 -0.1344  0.1473 -0.1785
 4045W        W20519   8.083  10.620   5.752 -0.3396 -0.0530  0.1563
 4046W        W20520  17.671   7.153   4.866  0.2788 -0.0513 -0.0521
 4047W        W20521  10.165  13.900   4.906 -0.1070 -0.3232  0.0916
 4048W        W20522   6.127   3.013  14.858 -0.1349  0.0182 -0.0432
 4049W        W20523   8.292  12.835  14.182 -0.0573  0.0656  0.0841
 4050W        W20524  11.736  14.589   3.467  0.0156 -0.0618 -0.0329
 4051W        W20525  13.695   0.217   1.089 -0.0457 -0.3607  0.3528
 4052W        W20526  12.108  12.817  11.859  0.1232  0.1269 -0.1076
 4053W        W20527   8.112   9.074   4.132  0.1093 -0.1806 -0.1255
 4054W        W20528  17.916   0.473   3.365 -0.2206  0.0917 -0.0424
 4055W        W20529  16.750   6.115  16.057 -0.1959 -0.0836  0.0672
 4056W        W20530   3.368   7.387   6.008 -0.2168  0.1017  0.1912
 4057W        W20531   7.221  14.330  15.882  0.0844 -0.2447 -0.0115
 4058W        W20532   2.156  12.769   0.626  0.0890 -0.2614 -0.1230
 4059W        W20533   7.171   4.256   0.470 -0.1425 -0.0422 -0.1930
 4060W        W20534   2.414   4.977  15.162  0.2389  0.1435  0.1645
 4061W        W20535  17.030  17.539   5.458 -0.2612 -0.0446 -0.1862
 4062W        W20536  14.241  11.930   5.379 -0.1610  0.0901 -0.3482
 4063W        W20537   0.086  11.102   3.649 -0.2972  0.0895  0.1186
 4064W        W20538  13.297   8.788  16.672  0.1860 -0.1878  0.0988
 4065W        W20539   0.276   0.833   5.460 -0.1000  0.1109  0.0445
 4066W        W20540   7.363   2.886  15.089 -0.0206  0.0321  0.2534
 4067W        W20541   8.726  13.417   1.061  0.1719 -0.2009 -0.1143
 4068W        W20542  15.606  10.771   3.143 -0.1672 -0.0203 -0.1052
 4069W        W20543   8.838  15.169   5.189 -0.0461 -0.2171  0.0939
 4070W        W20544   5.873   0.388   5.464 -0.2212 -0.1390  0.2028
 4071W        W20545   3.544  12.185  12.423  0.0154 -0.2367 -0.0994
 4072W        W20546   1.044  12.292  14.239  0.0272  0.1659 -0.0854
 4073W        W20547   4.264  11.818  15.004 -0.0102  0.2433  0.0050
 4074W        W20548   8.024  13.745   0.239 -0.2970 -0.0075  0.5008
 4075W        W20549   9.991  12.927   4.613 -0.1070 -0.1234  0.1128
 4076W        W20550   8.844   7.563  13.886  0.0115 -0.2210 -0.0481
 4077W        W20551  11.362  14.494   1.368 -0.4295  0.0244 -0.0395
 4078W        W20552  17.376  15.430   0.261  0.0566  0.2389  0.5504
 4079W        W20553   6.622   6.141   4.678 -0.1071  0.2396  0.2567
 4080W        W20554  17.585  12.035  14.052  0.1522 -0.0303 -0.0647
 4081W        W20555  15.274   2.349   0.066  0.3274 -0.2877  0.2549
 4082W        W20556  14.749  16.098  14.047  0.1159 -0.1912 -0.1480
 4083W        W20557  14.157   9.518  11.768 -0.1363 -0.2367  0.0762
 4084W        W20558  15.500  14.974   3.067  0.3748  0.0276 -0.1696
 4085W        W20559   9.791  17.429   5.970 -0.1637  0.1740  0.1007
 4086W        W20560  13.080   9.026   0.738 -0.2774 -0.3036 -0.0040
 4087W        W20561  11.398  11.803  13.979 -0.1785 -0.1842  0.0766
 4088W        W20562   1.514  16.094  15.880  0.0900 -0.0738 -0.1757
 4089W        W20563   8.784  11.724  14.155  0.0006  0.1131 -0.1552
 4090W        W20564   9.412   2.433  12.129 -0.1662 -0.0216  0.0607
 4091W        W20565  14.720  14.744  15.875  0.0158  0.0808  0.0245
 4092W        W20566  11.282  12.421  12.089  0.2617 -0.0249 -0.0177
 4093W        W20567  17.523  17.160   4.915 -0.1417  0.1779  0.1933
 4094W        W20568   9.576  17.088   0.474 -0.0590 -0.2340  0.1917
 4095W        W20569   1.096  12.036   4.914  0.2173  0.3360 -0.0271
 4096W        W20570   3.196  16.997  12.180  0.1050 -0.0398 -0.0153
 4097W        W20571   4.185  13.387   1.620 -0.0091 -0.1102 -0.1801
 4098W        W20572   7.759  16.691   4.239  0.0887  0.1504 -0.0565
 4099W        W20573   1.570   5.027  11.629  0.0242 -0.0788 -0.0035
 4100W        W20574  12.608   0.186   4.694 -0.0271  0.0552 -0.0269
 4101W        W20575  12.882  10.576  14.950 -0.0682 -0.1375  0.3576
 4102W        W20576   2.454  14.055  16.200 -0.2741 -0.1118 -0.0518
 4103W        W20577  15.457   9.779  15.730  0.2728 -0.1023  0.4063
 4104W        W20578  10.084   4.303   5.783 -0.1529 -0.0087  0.1651
 4105W        W20579   7.306  11.975   4.055 -0.0984 -0.1701  0.1212
 4106W        W20580  17.192  10.059   2.812  0.1057 -0.2359 -0.1841
 4107W        W20581  13.122   0.469  16.380  0.0961 -0.0351 -0.2518
 4108W        W20582   6.256  11.632  10.910 -0.2570  0.1366  0.0408
 4109W        W20583  11.854   7.868  14.682 -0.0920 -0.2923 -0.0236
 4110W        W20584   6.288   6.181  16.310 -0.2057 -0.3029  0.0333
 4111W        W20585  11.499  16.901  11.693 -0.0473 -0.0841  0.0052
 4112W        W20586   5.881  10.484   0.349  0.0631 -0.2907  0.2258
 4113W        W20587  13.282   0.748   4.559 -0.4378  0.0021 -0.3356
 4114W        W20588   5.109  13.050   2.355  0.1127  0.1628 -0.0372
 4115W        W20589   8.647  13.094   4.287  0.1002  0.1433 -0.2714
 4116W        W20590   7.455  14.643  15.032  0.2837  0.2333  0.1794
 4117W        W20591   6.431  17.954   3.631 -0.3319 -0.0735 -0.1048
 4118W        W20592  14.395   2.440   6.169 -0.1414 -0.0509  0.2148
 4119W        W20593  13.573  12.060  15.396 -0.1872  0.0408  0.3784
 4120W        W20594  15.596  12.963  15.013  0.0423 -0.0051 -0.1241
 4121W        W20595  14.799  17.333   1.064  0.3214  0.0588 -0.0855
 4122W        W20596  13.954   2.562  15.603 -0.0203  0.1602  0.1741
 4123W        W20597   4.664   9.772   1.557  0.0874  0.0278 -0.0672
 4124W        W20598  17.161   9.046  14.405  0.1963 -0.0315  0.0247
 4125W        W20599   6.352   7.508   5.852  0.0168  0.1100 -0.0645
 4126W        W20600   9.781  15.549   5.095  0.0526  0.2596 -0.0039
 4127W        W20601   8.297  15.168  16.639 -0.1660 -0.2383 -0.1125
 4128W        W20602  15.803   9.867  14.426 -0.0456 -0.2030  0.0379
 4129W        W20603   5.166  13.910  14.578 -0.0379 -0.1847 -0.0003
 4130W        W20604  15.419  17.707   2.489 -0.0691 -0.0209 -0.0840
 4131W        W20605   4.921  11.677   1.172  0.0265 -0.0140 -0.1400
 4132W        W20606   7.953   1.059  14.809 -0.3001 -0.0828  0.0568
 4133W        W20607  11.114   5.674   1.024 -0.0490  0.2643  0.0359
 4134W        W20608   4.578   4.495  13.393  0.1027  0.0588  0.0388
 4135W        W20609   0.330  16.225  15.212 -0.1016 -0.0999 -0.2092
 4136W        W20610  11.725  17.730   0.807 -0.0654  0.2508  0.2390
 4137W        W20611  11.701  15.971   1.336 -0.1115 -0.3601  0.1223
 4138W        W20612   0.449  13.449  13.538 -0.1855 -0.1099  0.0616
 4139W        W20613   3.083  13.469  15.726 -0.0785  0.1943  0.4330
 4140W        W20614   0.582   1.089  12.984 -0.2355 -0.1795 -0.1673
 4141W        W20615  17.319   1.270  12.115 -0.2512  0.0537 -0.0228
 4142W        W20616   6.305  10.355   2.901 -0.2676  0.0702 -0.0026
 4143W        W20617  13.490  13.816   1.850  0.2005 -0.0557 -0.0040
 4144W        W20618  10.164  16.577   1.946 -0.0287 -0.0610  0.0461
 4145W        W20619  15.749   2.139   3.994 -0.1342 -0.1372  0.1893
 4146W        W20620   0.204   8.706   1.927  0.2322  0.0421  0.0113
 4147W        W20621   3.554  15.803   0.956  0.0521  0.0903 -0.2576
 4148W        W20622  12.377   2.756   5.787 -0.1329  0.0473 -0.2855
 4149W        W20623   5.631   5.459  11.850  0.1792 -0.1969 -0.0915
 4150W        W20624  17.716   7.742  15.301  0.3863  0.4028  0.0495
 4151W        W20625  10.567   2.721  12.364  0.1411 -0.0064 -0.0933
 4152W        W20626   4.733  16.649  11.872 -0.0659  0.1522 -0.0719
 4153W        W20627   3.681   3.592   2.221 -0.2650  0.0935 -0.1021
 4154W        W20628   2.139   2.093   5.078 -0.2727 -0.1155 -0.0649
 4155W        W20629   7.640   4.000   0.735 -0.1825  0.2109 -0.1695
 4156W        W20630  11.283   6.001   5.050  0.0093 -0.0799  0.0776
 4157W        W20631   4.125   2.361   0.918 -0.0412 -0.3268  0.3144
 4158W        W20632   2.446   2.971   2.263  0.0466  0.3021  0.2167
 4159W        W20633  10.024  10.240  15.727  0.1441  0.2236  0.1924
 4160W        W20634  13.830  11.290   1.264  0.1977  0.0956 -0.0445
 4161W        W20635  14.190   9.958   0.688  0.2813  0.3204  0.2847
 4162W        W20636   9.282   9.523  12.111 -0.0379  0.0185  0.2725
 4163W        W20637  14.367   1.738   4.194 -0.1370 -0.4711  0.0814
 4164W        W20638   6.105   2.306   3.713 -0.1002 -0.2370 -0.3124
 4165W        W20639   9.582   0.571  11.290  0.1057  0.0430  0.4086
 4166W        W20640   0.564   6.862   2.723  0.2791  0.0933  0.1184
 4167W        W20641   9.978   3.726   3.141  0.2061  0.1428  0.2052
 4168W        W20642   6.066   1.446   2.076  0.2540  0.1803  0.2124
 4169W        W20643  16.748  12.111   0.369 -0.0657 -0.0147 -0.0818
 4170W        W20644   4.425  11.426  12.703 -0.1519 -0.0296  0.0894
 4171W        W20645  16.429   2.622   1.162 -0.2216  0.0313  0.2508
 4172W        W20646  14.388  10.158  16.329  0.0362  0.0924 -0.0253
 4173W        W20647   3.901  17.436  15.506  0.0179  0.0461 -0.1039
 4174W        W20648  14.989  16.830   2.145 -0.3512 -0.0184 -0.1274
 4175W        W20649  16.585   3.748  16.594 -0.0751  0.1116  0.0268
 4176W        W20650   4.244  10.211  16.561  0.2280  0.0907  0.1048
 4177W        W20651   4.211   3.487  14.348 -0.2067 -0.0584 -0.1893
 4178W        W20652  17.271   4.891  11.426  0.0861 -0.1095 -0.0294
 4179W        W20653   7.487   1.668  10.871  0.2076  0.1616 -0.0113
 4180W        W20654  11.816   6.867   4.655  0.0831 -0.1602  0.2700
 4181W        W20655   8.650   0.767  10.961 -0.1759 -0.1471  0.1258
 4182W        W20656   0.526   7.392   3.068 -0.1754 -0.4420  0.0859
 4183W        W20657  12.594  11.913  14.387 -0.2698  0.1345  0.0657
 4184W        W20658  12.721   2.672   2.422  0.1797  0.1085  0.1517
 4185W        W20659  13.764   6.307   5.437 -0.0847  0.0649 -0.0702
 4186W        W20660   9.818  17.454  16.522 -0.1451 -0.3549 -0.1362
 4187W        W20661  10.857   4.720  16.489 -0.2786  0.1313 -0.1510
 4188W        W20662   7.571  10.868   0.199 -0.1561 -0.2017  0.1042
 4189W        W20663  14.559   6.893  12.086  0.1871  0.1477  0.0902
 4190W        W20664   4.220   3.771  11.992 -0.3268  0.0465 -0.2399
 4191W        W20665  15.416  16.986  16.266 -0.3795 -0.2247 -0.0019
 4192W        W20666  10.380  12.720  12.811  0.3304 -0.2328  0.2313
 4193W        W20667  17.757   2.435   4.643 -0.1912 -0.2358 -0.0116
 4194W        W20668  17.826  13.914  12.747 -0.0942 -0.0549  0.2495
 4195W        W20669  17.030  14.561   3.391  0.0615  0.1755  0.0394
 4196W        W20670  17.986  12.701   5.537 -0.1931 -0.1186  0.1865
 4197W        W20671   9.724   3.133  13.871  0.0498 -0.0351  0.0865
 4198W        W20672   5.297   6.383   1.492 -0.2036 -0.0853  0.1162
 4199W        W20673   8.856   7.816   5.609 -0.0792 -0.1755 -0.3539
 4200W        W20674   7.178  11.496   4.823  0.0846  0.2608 -0.0474
 4201W        W20675  17.031   8.306  11.635 -0.1571  0.0810  0.1270
 4202W        W20676   5.344   5.341  14.204  0.1564  0.1812  0.1867
 4203W        W20677   4.226  16.388  15.611  0.1247 -0.0596  0.0329
 4204W        W20678  13.550  10.704   4.880 -0.0252 -0.0401  0.2829
 4205W        W20679  14.218  14.622  15.735  0.1759  0.0837 -0.2349
 4206W        W20680   7.311   1.243   1.442 -0.3312  0.0667  0.1578
 4207W        W20681   8.678  10.379  13.698  0.3878  0.2041 -0.3211
 4208W        W20682   0.111  14.036   2.795 -0.1765  0.0544 -0.1121
 4209W        W20683  10.571   2.800   2.412  0.2042 -0.0080  0.1238
 4210W        W20684   7.128  13.416   2.613  0.0579  0.0411 -0.1285
 4211W        W20685   0.898   2.306  12.757 -0.0140  0.0626  0.1017
 4212W        W20686   4.342   6.678  11.681 -0.1598  0.1960 -0.2112
 4213W        W20687   6.722  14.712  11.830 -0.0994  0.1411 -0.0032
 4214W        W20688   6.975  15.232   2.867  0.1254 -0.3864 -0.0815
 4215W        W20689  16.135   2.616   5.570  0.0886  0.1090 -0.1911
 4216W        W20690   6.192   6.460  15.903  0.1143  0.1199 -0.2258
 4217W        W20691   4.721  16.170  15.556 -0.0473  0.0967 -0.2811
 4218W        W20692  16.878   8.464  13.204  0.0542 -0.2112 -0.0731
 4219W        W20693  12.036  14.103   4.616 -0.2902 -0.0775 -0.0104
 4220W        W20694   2.392  10.483  11.379 -0.0197 -0.1070  0.1830
 4221W        W20695   6.400   1.192   4.671  0.2287 -0.3097 -0.2494
 4222W        W20696   6.315  14.630  15.320  0.0665  0.1475 -0.3503
 4223W        W20697   6.491  17.608  12.471  0.1908  0.1224 -0.1934
 4224W        W20698   8.043   5.780   5.419  0.1468  0.0278  0.0398
 4225W        W20699   9.453   9.436   6.163  0.0389 -0.0984  0.0724
 4226W        W20700   8.091  11.521  15.238 -0.0516 -0.1408  0.0179
 4227W        W20701   1.263  12.058  12.652 -0.2650 -0.2567  0.2080
 4228W        W20702   3.991  12.534   6.127 -0.2932  0.0798 -0.1786
 4229W        W20703   6.520   9.623  16.392  0.3783  0.1682 -0.0677
 4230W        W20704   5.348  11.344   0.450 -0.0026 -0.0797  0.0003
 4231W        W20705  17.211  17.909   3.658 -0.1816  0.3407  0.1990
 4232W        W20706   3.530   0.718  10.608 -0.0978  0.1196  0.1564
 4233W        W20707   0.365   2.759  12.161 -0.0250 -0.2038  0.0109
 4234W        W20708  15.810  14.503   4.919 -0.0060  0.2409 -0.4748
 4235W        W20709   0.874  10.882  11.678  0.0155 -0.0396 -0.0131
 4236W        W20710   1.762   2.049  12.636 -0.1642 -0.1243 -0.2653
 4237W        W20711  17.249   3.312   2.195  0.3874 -0.1002  0.0024
 4238W        W20712   9.198   2.860  14.997 -0.0115 -0.4653  0.0063
 4239W        W20713  10.771  16.380  14.971  0.1880  0.1386  0.0906
 4240W        W20714   1.289   2.015  12.804 -0.2299  0.0294 -0.2419
 4241W        W20715   9.485   1.421   0.974  0.0290  0.0251 -0.0731
 4242W        W20716  12.689  11.244   4.272  0.0278  0.0081 -0.0729
 4243W        W20717   5.907  10.314  12.222  0.1434 -0.1316 -0.1233
 4244W        W20718  15.260  17.622   1.089  0.2413  0.0870  0.1742
 4245W        W20719  13.947   3.129   6.338 -0.0482  0.2466  0.0817
 4246W        W20720  13.590   5.543   1.159  0.0002  0.1821  0.3430
 4247W        W20721   1.405   4.581  14.299  0.1140  0.1601  0.0837
 4248W        W20722  12.190   6.406  11.928  0.1917  0.1226  0.0311
 4249W        W20723   6.079  11.122  15.523 -0.0447 -0.0597 -0.2471
 4250W        W20724  10.672  16.819  12.883  0.0951 -0.3426 -0.0305
 4251W        W20725   8.157   2.070  13.733 -0.0135  0.3007 -0.0416
 4252W        W20726   3.641  17.930   0.433 -0.1286 -0.1043  0.2393
 4253W        W20727   7.466  12.189  10.803  0.0581 -0.0911 -0.1364
 4254W        W20728   7.505  14.075   2.036 -0.2206 -0.2250  0.3801
 4255W        W20729   4.792  17.708   4.060 -0.0260 -0.2993  0.2392
 4256W        W20730   1.748  16.164   3.668 -0.1530  0.2014 -0.1597
 4257W        W20731  11.188  13.474  13.030  0.1016  0.1911  0.1769
 4258W        W20732  13.152  11.626   5.662  0.1728  0.0671  0.1056
 4259W        W20733  15.970  10.494  14.872 -0.2737  0.4262 -0.0094
 4260W        W20734   2.582   0.318   2.127 -0.1322 -0.0619 -0.0398
 4261W        W20735   7.815  14.064   2.451 -0.0226 -0.3009  0.0504
 4262W        W20736   5.046   0.891   4.544 -0.2258  0.1232 -0.0445
 4263W        W20737  10.885  14.290  10.213  0.0601 -0.1276 -0.0384
 4264W        W20738   6.229   3.607   1.638 -0.0295 -0.0192 -0.1695
 4265W        W20739   5.354   1.810   3.486  0.0527 -0.0612  0.2839
 4266W        W20740  15.025  13.346   3.649 -0.1180 -0.0857 -0.2100
 4267W        W20741  13.023   9.310   3.581 -0.1961 -0.2505 -0.0213
 4268W        W20742  11.007   4.064   1.452 -0.0973 -0.0615  0.0019
 4269W        W20743   7.259   7.172  13.980 -0.3564 -0.4161  0.1805
 4270W        W20744  15.582   0.075   3.380 -0.1748  0.0667 -0.2607
 4271W        W20745   3.564   0.739   0.664 -0.0883 -0.0606  0.0334
 4272W        W20746   5.800   3.772   2.128  0.2602 -0.0030 -0.0176
 4273W        W20747   5.920  13.115   5.893 -0.2524 -0.0544  0.2791
 4274W        W20748  12.805   2.305   0.324 -0.1145  0.2595  0.0230
 4275W        W20749   5.888   1.308   2.948 -0.2278 -0.4792 -0.0633
 4276W        W20750   8.084  10.840   3.900  0.1219  0.1825  0.0021
 4277W        W20751   9.069   4.159   5.596  0.0147  0.0874  0.1864
 4278W        W20752  10.830  14.462   5.419  0.1181  0.1358  0.3086
 4279W        W20753   3.984  13.858   4.596 -0.2342  0.1004  0.0792
 4280W        W20754   3.877  12.478   3.497 -0.1553 -0.0345  0.0010
 4281W        W20755  16.641   7.360  12.575  0.2095  0.2002 -0.2094
 4282W        W20756   1.070   0.496   4.322 -0.1295  0.1571 -0.0836
 4283W        W20757   4.433  14.152   2.872 -0.1154  0.0097  0.0110
 4284W        W20758  11.946  16.104   4.208 -0.0323 -0.0711  0.1139
 4285W        W20759   9.101   2.379  13.576 -0.0259  0.0328  0.0046
 4286W        W20760   1.508  11.557   2.041  0.1555 -0.0284  0.1362
 4287W        W20761   6.167   0.058  13.320  0.2315 -0.0766  0.1269
 4288W        W20762   2.350  15.149  12.855 -0.1491  0.1164  0.2934
 4289W        W20763  15.164   6.963   2.140  0.1457 -0.0643 -0.0764
 4290W        W20764  13.892   7.813  12.947  0.0191 -0.2814 -0.0524
 4291W        W20765   5.731   1.658   0.088 -0.1216 -0.1007 -0.0304
 4292W        W20766   7.632   5.178  15.181  0.1647 -0.0643  0.2223
 4293W        W20767   2.315   9.967  14.282  0.0975  0.1358  0.2230
 4294W        W20768   6.771   8.016  13.098  0.1024 -0.3154  0.3730
 4295W        W20769   5.871   0.399   4.197 -0.0367 -0.0656  0.2579
 4296W        W20770  12.404   2.350  12.711 -0.1514  0.0304  0.1377
 4297W        W20771   5.872  14.609  16.261  0.0499 -0.2223 -0.0631
 4298W        W20772  14.152  13.518  14.568 -0.3562  0.0138  0.0931
 4299W        W20773  11.746  10.968   1.882 -0.0854  0.0733 -0.0236
 4300W        W20774  15.543  11.133  10.516 -0.1534  0.0598  0.1421
 4301W        W20775  17.204  14.172   2.607 -0.0887  0.2482 -0.1383
 4302W        W20776  14.033   7.618  16.779 -0.3821 -0.0660  0.1387
 4303W        W20777   2.009  11.039   5.566 -0.2821  0.3043  0.1721
 4304W        W20778   9.585  14.810  12.794  0.1211 -0.0657  0.0847
 4305W        W20779   1.084   4.438  13.326 -0.1877  0.0996 -0.0975
 4306W        W20780   7.202   5.094  14.863  0.0291 -0.1587 -0.3489
 4307W        W20781   9.006   2.686  15.853  0.1564  0.3149  0.1886
 4308W        W20782   7.198   2.500   0.671  0.1955 -0.0459  0.0164
 4309W        W20783   5.509  14.142  15.958  0.1841  0.1678  0.1777
 4310W        W20784   0.153  14.977  16.683  0.0231 -0.1379  0.0019
 4311W        W20785  12.711   3.780   5.079 -0.1995 -0.0580  0.1394
 4312W        W20786  15.236   5.677   1.508  0.0915  0.2831  0.1553
 4313W        W20787   6.421  15.968  16.290  0.1245 -0.0037  0.0627
 4314W        W20788   9.972  16.487  12.120 -0.0308 -0.0265 -0.4442
 4315W        W20789   0.115   8.312  16.085  0.0248  0.1340 -0.1615
 4316W        W20790   6.851   4.725   2.659  0.0715  0.0452 -0.1590
 4317W        W20791  16.111  16.854  14.387 -0.1059  0.4289  0.0322
 4318W        W20792   6.951   5.874  14.995  0.0467  0.1683 -0.1487
 4319W        W20793  14.928   3.651   0.091 -0.0092 -0.1163 -0.2135
 4320W        W20794   5.565  12.264   1.460  0.2191  0.1804  0.0683
 4321W        W20795  14.260   0.192  14.911 -0.1839 -0.1165 -0.0914
 4322W        W20796  16.211  12.338  13.976  0.2367 -0.0467 -0.1291
 4323W        W20797   8.028   7.083   0.107  0.0106 -0.0961  0.0069
 4324W        W20798   2.951  16.251  16.623 -0.0901 -0.0383  0.1037
 4325W        W20799   5.181  16.320  12.219  0.0047  0.2125 -0.1094
 4326W        W20800  10.962  15.025  12.095 -0.6089 -0.1215  0.2284
 4327W        W20801   6.165  14.452   4.635  0.0063  0.2016 -0.2953
 4328W        W20802   4.660   1.696  11.845  0.2635 -0.1357 -0.0625
 4329W        W20803   9.150  14.267   1.366  0.0300  0.2664 -0.0626
 4330W        W20804  10.536  11.139  11.550  0.0079 -0.0928  0.0181
 4331W        W20805  10.051  10.684   0.986  0.0788 -0.1652 -0.0575
 4332W        W20806   5.394   5.970   1.815  0.1458 -0.1822 -0.0365
 4333W        W20807   1.378  17.606  11.890  0.1180 -0.1075  0.1764
 4334W        W20808   3.143   7.133  13.141  0.1662 -0.1615 -0.2813
 4335W        W20809  14.240   4.048  15.939 -0.1869 -0.0045 -0.0386
 4336W        W20810  15.031  10.265   1.521  0.0240 -0.0140 -0.1809
 4337W        W20811   1.742   8.931  12.667 -0.2483  0.0650 -0.2184
 4338W        W20812  13.725   1.074  12.351  0.0827  0.0512 -0.1257
 4339W        W20813   9.879  16.981   0.876  0.1740  0.0238 -0.0614
 4340W        W20814   8.009  17.524   5.089  0.0823  0.1350  0.0112
 4341W        W20815  12.390  17.748  14.067 -0.1567 -0.0318  0.1356
 4342W        W20816   8.177  11.738  14.796 -0.4143  0.2328  0.3578
 4343W        W20817   4.978   4.139  12.465  0.1754  0.2655 -0.1783
 4344W        W20818   5.856   6.019   5.083  0.0367  0.1114  0.1516
 4345W        W20819   6.246  11.449   1.438 -0.1216 -0.1040 -0.1973
 4346W        W20820   6.505  15.946  12.184 -0.0405  0.0283 -0.0571
 4347W        W20821  14.473   5.273  13.574 -0.0305 -0.1366 -0.0823
 4348W        W20822   0.430   5.494   4.595 -0.1721 -0.0344  0.1169
 4349W        W20823  12.551   5.088   4.277 -0.1535 -0.0501  0.1040
 4350W        W20824   3.400  10.458   2.736 -0.0908 -0.1096 -0.2704
 4351W        W20825  10.302   0.565  16.610  0.1638 -0.1674 -0.1427
 4352W        W20826   2.750  16.007   5.630  0.2161  0.3709  0.1871
 4353W        W20827  10.846  13.412  13.384 -0.0648  0.0043  0.0259
 4354W        W20828  13.347   7.705   3.621  0.0377 -0.0083 -0.2096
 4355W        W20829   1.982   9.048   4.244 -0.1846 -0.2189 -0.3086
 4356W        W20830  11.828  11.670   4.383  0.0696 -0.1114 -0.0754
 4357W        W20831   7.322  17.067  15.056  0.0435  0.0989  0.3340
 4358W        W20832  16.864  15.260  14.765 -0.0076  0.1839 -0.0655
 4359W        W20833   3.512   9.724  13.632  0.0769  0.1425 -0.0086
 4360W        W20834   8.530  16.135   0.231 -0.0624 -0.1205  0.1101
 4361W        W20835  12.395  14.379   2.606  0.1746 -0.2160 -0.0357
 4362W        W20836   4.271   8.384  16.196  0.0153  0.0946  0.0338
 4363W        W20837  17.614   3.849  15.092  0.2106  0.1493  0.2047
 4364W        W20838   3.739  12.077   2.756  0.0382 -0.1039  0.2643
 4365W        W20839   8.072   1.770  16.092  0.1615 -0.1392 -0.3203
 4366W        W20840   7.573  10.654   5.881 -0.0415  0.1536  0.2485
 4367W        W20841   6.836  11.180   3.087  0.0543  0.1485 -0.2500
 4368W        W20842   0.077   3.906  14.389 -0.0539  0.0934  0.0314
 4369W        W20843   4.412   5.562  16.500 -0.1581 -0.0683 -0.4475
 4370W        W20844  14.933  11.996   4.551  0.0381  0.1658 -0.0410
 4371W        W20845   6.408   0.182   3.211 -0.3569 -0.0081  0.3018
 4372W        W20846   9.230   5.955   0.237 -0.0933 -0.0681  0.2650
 4373W        W20847   5.695  13.569   3.014  0.0721  0.2746  0.1000
 4374W        W20848   7.693   9.406   0.201 -0.2012  0.0962  0.0427
 4375W        W20849   6.875   3.876  13.510 -0.2749  0.0719  0.1548
 4376W        W20850   9.736   1.634   2.346  0.2197  0.1457  0.1475
 4377W        W20851  16.944   5.217   4.266 -0.3928  0.0666  0.0203
 4378W        W20852   8.088   1.637   4.606 -0.0128  0.0530 -0.3264
 4379W        W20853   4.010  15.747  15.695 -0.1947  0.2108 -0.2213
 4380W        W20854   0.523  13.784   1.119  0.0066 -0.3098 -0.1567
 4381W        W20855   1.739   3.585  14.738  0.1229 -0.3827  0.1061
 4382W        W20856  14.941  16.823  14.971 -0.3391  0.1390  0.0261
 4383W        W20857  11.048   6.087  12.089 -0.0634  0.2131 -0.1020
 4384W        W20858   8.666  13.086   5.392  0.3265 -0.2707 -0.0654
 4385W        W20859  12.892  17.967  16.246  0.1590  0.0739 -0.1161
 4386W        W20860  13.613   2.662   4.607  0.0322  0.1501 -0.3042
 4387W        W20861   2.130  12.129  11.854  0.0196 -0.0592  0.1082
 4388W        W20862   1.845   9.611   3.329  0.0242 -0.1840  0.0912
 4389W        W20863  11.050  10.011  14.790  0.0371 -0.0624  0.2148
 4390W        W20864   6.164   4.117  15.842 -0.0083  0.2236  0.0604
 4391W        W20865  17.284   2.048   5.049 -0.1698  0.0178 -0.3009
 4392W        W20866   1.975   4.420   2.616 -0.0880 -0.0326 -0.0560
 4393W        W20867   0.954   8.873   1.824 -0.2347 -0.0052 -0.2599
 4394W        W20868  17.888  16.561   2.521 -0.2026 -0.1762 -0.0991
 4395W        W20869   0.892   7.473  11.158 -0.3975  0.3523 -0.0078
 4396W        W20870   9.932  16.491  13.306 -0.0792  0.3384 -0.3951
 4397W        W20871   9.834   6.061  12.636  0.2841 -0.2441 -0.1840
 4398W        W20872   1.152   1.904   1.218  0.0825  0.3092 -0.0948
 4399W        W20873   1.023  11.652  13.014 -0.0379 -0.1627  0.0718
 4400W        W20874   2.013   2.699   1.918  0.0621 -0.2256 -0.0538
 4401W        W20875   4.383  10.030   5.109  0.0974 -0.2314  0.0959
 4402W        W20876  15.954  13.134   2.573 -0.1647 -0.0381  0.2118
 4403W        W20877  14.715  13.967  12.304  0.0538  0.1805  0.2805
 4404W        W20878  12.322  16.289   2.577  0.0518  0.1373  0.1014
 4405W        W20879  10.798  14.855   3.557 -0.0597 -0.1259 -0.1926
 4406W        W20880  13.671  12.932  13.879  0.1708 -0.2099 -0.0232
 4407W        W20881  10.157   6.990   5.880 -0.0447  0.1648  0.0739
 4408W        W20882  15.097   3.124   3.668 -0.2953  0.1656  0.0187
 4409W        W20883  16.853  15.636  13.817 -0.1750 -0.0363 -0.0615
 4410W        W20884   7.897  16.122  13.886  0.2103  0.0393 -0.0233
 4411W        W20885  16.995  12.308  13.606  0.2606  0.0038 -0.4565
 4412W        W20886  14.527   0.515  16.281  0.1634 -0.5043 -0.2757
 4413W        W20887   1.015  11.694  15.623 -0.0370 -0.2528  0.1425
 4414W        W20888   8.990  10.513  12.753  0.2477  0.0095  0.3550
 4415W        W20889   4.209   7.516   3.042 -0.1650 -0.1980 -0.0339
 4416W        W20890   4.587   1.937  11.429  0.0264  0.0054  0.1429
 4417W        W20891  12.582  15.078  13.526 -0.1174  0.0497  0.0581
 4418W        W20892  10.250   4.273   6.286 -0.0317 -0.2525 -0.0110
 4419W        W20893   5.515   3.945   1.746  0.2230  0.2093  0.0506
 4420W        W20894   9.141   8.085  16.117  0.2220  0.0398 -0.1361
 4421W        W20895   1.346   9.935  12.677 -0.2381  0.1570  0.5566
 4422W        W20896   0.628   8.764   1.167 -0.1959  0.1784  0.1709
 4423W        W20897   6.596  17.760   0.878  0.2730 -0.1275 -0.1278
 4424W        W20898   9.296  14.433   5.226  0.2260  0.0305  0.2597
 4425W        W20899  17.490   6.646   3.252  0.2108 -0.2521  0.0713
 4426W        W20900  16.429   1.376  10.905 -0.5783  0.1537  0.0998
 4427W        W20901   2.596   6.463   1.701 -0.0878 -0.1534 -0.1899
 4428W        W20902   9.035   6.146   0.749  0.0520  0.1654 -0.2285
 4429W        W20903  16.850   7.011  15.270  0.1102  0.4161  0.2590
 4430W        W20904   7.675   2.068  15.981 -0.2715 -0.0605  0.0668
 4431W        W20905  16.653  17.837   0.737 -0.1415 -0.1908 -0.0208
 4432W        W20906  14.295   7.369   4.822 -0.4379  0.1360 -0.0210
 4433W        W20907  16.070   4.548  15.743  0.1532 -0.1216  0.1088
 4434W        W20908   7.665   9.707  12.373 -0.1658 -0.1313 -0.0969
 4435W        W20909  17.989   8.296   3.433 -0.1887 -0.3755  0.2908
 4436W        W20910   2.415   4.780   4.192  0.1145 -0.1091  0.0167
 4437W        W20911   0.930   5.595   3.278 -0.0547  0.2797  0.1911
 4438W        W20912  17.237   8.543   0.063 -0.0726  0.0632  0.0862
 4439W        W20913  12.803  15.931   1.791  0.0947 -0.2448  0.0398
 4440W        W20914   0.589   8.341  16.436  0.1178 -0.0651 -0.0059
 4441W        W20915  17.767   0.906  14.104  0.2672 -0.3007  0.0095
 4442W        W20916  13.137   9.630   5.421  0.0051  0.0748  0.1023
 4443W        W20917   9.715   2.875   1.158 -0.2157 -0.2485  0.3761
 4444W        W20918   3.531  11.335  14.775  0.1709  0.0292  0.0339
 4445W        W20919   4.060   9.174  13.257 -0.1187 -0.2050 -0.0058
 4446W        W20920   6.936  17.812  14.114  0.0149  0.0075 -0.0944
 4447W        W20921   4.164   1.594  16.465  0.1670  0.1328 -0.0616
 4448W        W20922   9.871  15.139   4.882  0.1666  0.2549  0.2360
 4449W        W20923  14.154   9.710   3.634 -0.1905  0.0277  0.0514
 4450W        W20924  12.630   4.844   3.147  0.0115 -0.0381 -0.2320
 4451W        W20925   9.503   2.973   5.073  0.0111 -0.2060  0.0581
 4452W        W20926  14.444   0.014  13.507  0.0360  0.2153 -0.0387
 4453W        W20927   6.947   2.513  13.711  0.2054 -0.0602 -0.0623
 4454W        W20928   4.226   3.388  15.717  0.4040  0.2828  0.0214
 4455W        W20929   9.810   2.292   0.402  0.2667 -0.2833 -0.1274
 4456W        W20930   4.530  12.387   0.308  0.1201  0.1399  0.0923
 4457W        W20931   0.990   6.188   6.233 -0.0450  0.2030 -0.1252
 4458W        W20932  13.193   3.649   4.878  0.0871 -0.1955 -0.0442
 4459W        W20933   1.728  12.534   1.913 -0.2346 -0.1360  0.0982
 4460W        W20934  16.257  16.774  12.706 -0.1205  0.2536 -0.2372
 4461W        W20935   3.148  12.674   4.299 -0.0375 -0.0210 -0.1005
 4462W        W20936   2.268  10.167   4.282  0.2289  0.1806  0.0984
 4463W        W20937  11.280  16.261   5.077 -0.1003  0.0709 -0.0000
 4464W        W20938   4.767   8.518   0.913 -0.1468 -0.1020 -0.0257
 4465W        W20939  13.000   7.217  12.397  0.1965  0.2083  0.0873
 4466W        W20940   5.292   7.849  16.260 -0.3260  0.0463  0.1090
 4467W        W20941  15.609  14.668  11.976 -0.0014 -0.0146 -0.1305
 4468W        W20942   2.430  16.816   4.083 -0.0240 -0.1703  0.0761
 4469W        W20943  14.152  14.849  16.572 -0.2773 -0.2600  0.1126
 4470W        W20944  16.251  15.612  15.682 -0.1979 -0.3120 -0.2356
 4471W        W20945  12.572   6.213  13.205  0.2803 -0.1036  0.1311
 4472W        W20946   1.347  13.413  11.909 -0.1654  0.3983  0.0305
 4473W        W20947  10.666   4.820  13.459  0.0400  0.1613 -0.0957
 4474W        W20948  11.970   9.189  12.981  0.2227 -0.1551 -0.2019
 4475W        W20949   3.415  14.027  10.902 -0.1357 -0.1635  0.0748
 4476W        W20950   4.214   1.379   4.249 -0.0243 -0.0151  0.1623
 4477W        W20951   7.211  10.932   1.200  0.0352  0.1699  0.0364
 4478W        W20952   3.047   9.093   2.319  0.0355 -0.3980  0.2389
 4479W        W20953  13.659   0.747   3.529  0.2494 -0.3301  0.1196
 4480W        W20954  16.456  15.255  16.006  0.0143 -0.2927  0.2760
 4481W        W20955  13.019   3.031   0.849 -0.0635  0.0648  0.0993
 4482W        W20956   7.568   7.329   0.129 -0.1553 -0.2240 -0.0999
 4483W        W20957   3.405  17.839   1.238 -0.2116 -0.1100 -0.1753
 4484W        W20958   6.874   8.879   2.328  0.2597 -0.0824 -0.0830
 4485W        W20959  17.201  11.501  16.420 -0.2174  0.0566 -0.1247
 4486W        W20960   0.941  10.935   2.543  0.1172 -0.0897 -0.2108
 4487W        W20961  16.599   2.313  15.612 -0.0359 -0.1669 -0.2352
 4488W        W20962  17.853   9.185  15.864 -0.0360 -0.0140  0.0873
 4489W        W20963   3.744   2.649   3.886  0.0554  0.0733 -0.2057
 4490W        W20964   9.115   3.235  13.293 -0.0791  0.1125 -0.0216
 4491W        W20965  11.524   6.738   2.383  0.2759 -0.2080  0.1202
 4492W        W20966  10.962   9.637   0.373 -0.1105  0.1706 -0.2980
 4493W        W20967   0.974  17.655   3.672  0.1755  0.0754  0.0172
 4494W        W20968   3.165  13.388   0.025  0.0331  0.1583 -0.1085
 4495W        W20969  12.755  11.237   4.813 -0.0296 -0.1300  0.2204
 4496W        W20970   8.151   4.392   1.291 -0.0179  0.0895 -0.0045
 4497W        W20971  12.369  10.610  13.293  0.2779  0.0777  0.0272
 4498W        W20972   1.129  10.659  13.167 -0.1321  0.0324  0.5091
 4499W        W20973   0.407   4.704   3.177  0.0971 -0.0056  0.0083
 4500W        W20974   2.748   5.471   1.872  0.0538  0.1733  0.1261
 4501W        W20975   5.069   6.058   5.415  0.0751  0.0369  0.1886
 4502W        W20976   0.623   6.827   3.269 -0.2176  0.1839 -0.2235
 4503W        W20977  12.405   3.601   2.967  0.0191 -0.0832 -0.1536
 4504W        W20978   1.415   6.204   0.659 -0.3649  0.2288 -0.1397
 4505W        W20979   1.423  16.061   0.441 -0.3859  0.2640  0.0679
 4506W        W20980   4.088   5.896  13.727  0.1044 -0.1937 -0.2637
 4507W        W20981   1.007   0.031  15.066 -0.0499  0.2685 -0.2728
 4508W        W20982   0.574   5.739  12.610 -0.1490 -0.0595  0.3640
 4509W        W20983  10.209   7.324   4.066  0.0320 -0.0236  0.1427
 4510W        W20984   3.882   6.741  12.038  0.2102 -0.0633  0.3362
 4511W        W20985   9.317  11.479   4.760  0.0455  0.1883 -0.0182
 4512W        W20986  17.930   7.365   3.142 -0.3771  0.0045 -0.0853
 4513W        W20987  17.858  17.979   3.157  0.0047 -0.1012  0.2091
 4514W        W20988  14.206   9.140   1.111 -0.1154  0.1806  0.0887
 4515W        W20989  14.076  12.196  15.423 -0.4984  0.0515 -0.0980
 4516W        W20990  14.184  10.938   4.849  0.1122  0.1933  0.0361
 4517W        W20991  13.223  17.658  15.284 -0.0231 -0.1993 -0.1570
 4518W        W20992   2.635  13.913   1.591  0.0761 -0.0508  0.0260
 4519W        W20993   9.633   4.717   5.553 -0.1739  0.0244  0.2015
 4520W        W20994  13.477   7.692  13.285 -0.0255 -0.1311 -0.1404
 4521W        W20995   2.233   2.406  14.999  0.0489 -0.0317 -0.1335
 4522W        W20996  16.874  14.330  14.011 -0.1195 -0.1055 -0.1557
 4523W        W20997  10.391   8.035   2.581  0.1159  0.0011  0.1349
 4524W        W20998  13.965  16.953  14.814  0.0240 -0.0240 -0.0405
 4525W        W20999  14.982   2.656  16.198 -0.1974  0.2491  0.2566
 4526W        W21000  15.980   1.753   5.838  0.0910  0.0511 -0.1006
 4527W        W21001  15.033   2.818   3.040  0.0071 -0.1230 -0.1862
 4528W        W21002   3.674   1.982   4.321 -0.1652  0.0531  0.1143
 4529W        W21003   3.450  15.880  15.263 -0.0386 -0.1621  0.0918
 4530W        W21004  15.706   7.318   2.838 -0.0423 -0.0440 -0.1398
 4531W        W21005  17.167   4.917   0.273  0.3895 -0.1100 -0.2786
 4532W        W21006  14.260  12.029   3.219  0.1797  0.1113  0.2251
 4533W        W21007   1.411  10.301  12.346  0.1738  0.1352 -0.0240
 4534W        W21008   0.724   6.752  12.401  0.4642  0.1793 -0.0025
 4535W        W21009  12.922  16.038   4.572 -0.1453  0.1155  0.0357
 4536W        W21010   9.178  13.672   3.317 -0.2399  0.0733 -0.1214
 4537W        W21011  10.734  14.878  11.294 -0.2385  0.0218 -0.1466
 4538W        W21012   5.433  13.213  12.871  0.1493  0.2607  0.0042
 4539W        W21013   4.368   4.363   4.212 -0.0446 -0.0112  0.1492
 4540W        W21014  15.187  17.425  16.507 -0.1138  0.1622 -0.3034
 4541W        W21015  15.762   2.961   5.502 -0.1285 -0.0458  0.0379
 4542W        W21016   9.141  12.212   1.270  0.1638 -0.1511 -0.1176
 4543W        W21017   4.336   9.421  11.387 -0.1673 -0.1602 -0.2371
 4544W        W21018  10.042   1.059   4.479  0.1552 -0.1310 -0.1680
 4545W        W21019  13.760   2.044  16.036  0.3071  0.4473  0.0896
 4546W        W21020  15.474  17.499   4.016 -0.2200 -0.1189 -0.2997
 4547W        W21021  17.969  17.409   2.018 -0.2407  0.0989 -0.0992
 4548W        W21022  13.869   2.148   2.997 -0.2384  0.0841  0.1391
 4549W        W21023  13.317  11.809  15.030 -0.0156 -0.1534 -0.2030
 4550W        W21024  15.300  16.800   1.220  0.0425  0.2170 -0.0344
 4551W        W21025   1.950  16.470  13.346  0.1284  0.1940 -0.1696
 4552W        W21026  14.916  17.046  16.653 -0.0035 -0.0246  0.0485
 4553W        W21027  16.904  15.629  13.195 -0.0393  0.1992 -0.0955
 4554W        W21028   0.468  15.610   1.648  0.0275  0.1406 -0.3983
 4555W        W21029  15.760  16.928   2.003  0.0706 -0.1982  0.0091
 4556W        W21030   4.898   9.803   0.836  0.0261 -0.0986 -0.0607
 4557W        W21031   1.774  11.816  12.028 -0.0827  0.3909 -0.0246
 4558W        W21032  11.249   2.328   0.331 -0.5889  0.2248 -0.1613
 4559W        W21033  11.282   2.907  16.678 -0.0668 -0.1588  0.1938
 4560W        W21034   8.780   0.308  12.158  0.0322 -0.3743 -0.1014
 4561W        W21035   8.997   1.622  15.438  0.3432  0.1505 -0.2477
 4562W        W21036   5.366  11.516  15.047 -0.0436  0.2128 -0.0131
 4563W        W21037  12.410   0.643  16.153 -0.3160 -0.0978 -0.0337
 4564W        W21038   4.404   4.384   3.275  0.1428  0.4041 -0.0582
 4565W        W21039   8.873   2.033  16.683 -0.1024  0.0884 -0.3127
 4566W        W21040   2.524   9.812  13.407 -0.3640  0.0432  0.0256
 4567W        W21041  16.531   7.164  16.765  0.3164 -0.0805 -0.1219
 4568W        W21042   5.287  16.478   1.667 -0.1220 -0.2915 -0.1282
 4569W        W21043   3.026   0.876  13.710 -0.1876  0.0156  0.1707
 4570W        W21044   2.021  16.717  12.710  0.1712 -0.0920  0.0285
 4571W        W21045  16.542  16.137   4.962 -0.2587 -0.0091  0.2569
 4572W        W21046  16.154  11.195  11.839  0.3092  0.2727 -0.2311
 4573W        W21047  10.727   4.681   2.985 -0.2868  0.4721 -0.3165
 4574W        W21048   1.568   6.854   3.195  0.0409  0.1274  0.2056
 4575W        W21049   7.662   5.951   4.518  0.1071  0.2425 -0.1859
 4576W        W21050   5.789  16.258   1.378 -0.0735 -0.1469  0.2062
 4577W        W21051   3.055   9.690  13.376  0.2526  0.1704 -0.3507
 4578W        W21052   0.110  11.817   0.120  0.2025 -0.0506 -0.2831
 4579W        W21053   6.835   5.097   3.014  0.1972 -0.1322  0.0789
 4580W        W21054   8.928  14.019   4.211  0.2192 -0.1453 -0.0313
 4581W        W21055   8.188   0.832  16.151  0.0809 -0.0431 -0.2945
 4582W        W21056   6.193  13.894   3.401  0.1178  0.1352  0.2277
 4583W        W21057  15.412  15.450  14.861  0.1156  0.1349 -0.0290
 4584W        W21058   1.646   6.828  15.312  0.3230 -0.1980 -0.1856
 4585W        W21059   8.223   6.077  11.427 -0.1310  0.3200  0.0197
 4586W        W21060  12.371  17.056   0.724  0.0111 -0.1893  0.1291
 4587W        W21061  10.202   2.599   0.535 -0.3783 -0.1763 -0.1339
 4588W        W21062   5.256  16.024  14.759  0.4619  0.1448 -0.1120
 4589W        W21063  16.808  10.096  15.979  0.0828 -0.0677 -0.0833
 4590W        W21064   9.629  12.512   1.902  0.0455 -0.0700  0.0353
 4591W        W21065  11.377  16.117   0.571 -0.4454 -0.4150  0.2976
 4592W        W21066  11.919  16.871  15.978  0.0455  0.2274 -0.0429
 4593W        W21067   8.815   1.814  11.715 -0.1576 -0.1182  0.2536
 4594W        W21068  12.782  15.700  15.319 -0.2243 -0.3660  0.1445
 4595W        W21069   4.341   7.574  12.048  0.0218  0.2374  0.1852
 4596W        W21070  15.099  12.238   5.139  0.2553 -0.0451  0.2433
 4597W        W21071  13.001   7.646   2.770  0.4648 -0.2992  0.1864
 4598W        W21072   4.881   6.251  15.475 -0.0232  0.1454  0.1097
 4599W        W21073   2.887  16.582   3.951 -0.4601 -0.0749 -0.1236
 4600W        W21074   5.451  16.150   2.230  0.0009 -0.0392 -0.2530
 4601W        W21075  17.764   4.724   5.370 -0.1494  0.0047 -0.0094
 4602W        W21076  11.274  15.411  12.345 -0.1458  0.0792 -0.2116
 4603W        W21077   0.910  15.503  16.539 -0.1896  0.1790 -0.0239
 4604W        W21078   0.789   5.657   1.384 -0.0484  0.1257  0.1232
 4605W        W21079  12.620   5.336   4.870 -0.3506 -0.1265  0.3794
 4606W        W21080   6.897  11.313  14.676  0.0460  0.1207  0.3283
 4607W        W21081   9.814   1.975  14.133  0.4922  0.1292  0.0625
 4608W        W21082   0.125  14.834   4.819  0.0320 -0.2124 -0.0377
 4609W        W21083   2.134   5.079   0.268  0.0542  0.2226 -0.1805
 4610W        W21084   9.466  11.351   2.810 -0.2012  0.1915  0.0737
 4611W        W21085   6.307   3.404   2.133 -0.1169 -0.0414  0.1137
 4612W        W21086   6.332  13.167  12.131 -0.0057  0.2391 -0.2020
 4613W        W21087  14.377   5.136  11.787  0.1431  0.1095  0.1366
 4614W        W21088   0.555  12.228  13.016  0.1782 -0.1759 -0.1103
 4615W        W21089   4.064  14.781  11.263  0.2394 -0.0496  0.1502
 4616W        W21090  14.448   0.647   6.084 -0.0674 -0.0445 -0.0673
 4617W        W21091  15.247   2.172  13.808 -0.2075  0.0646 -0.1219
 4618W        W21092  16.105   6.520  11.251 -0.1024 -0.0287 -0.3372
 4619W        W21093   4.264  11.487  11.065 -0.1081 -0.0376 -0.0345
 4620W        W21094  14.062   3.505   0.393 -0.0107  0.2368 -0.0062
 4621W        W21095   1.999  16.935  13.158 -0.1030  0.0557  0.0101
 4622W        W21096  13.727   6.427  15.837 -0.3248 -0.0855  0.2409
 4623W        W21097   7.409  15.240  14.230  0.0421  0.4169 -0.1740
 4624W        W21098   4.441  16.380  12.652 -0.1481  0.2094  0.0579
 4625W        W21099  14.479   9.402  12.500 -0.1280 -0.1384 -0.0784
 4626W        W21100   6.478  14.815  13.410  0.4206  0.1665 -0.1721
 4627W        W21101   7.203   0.656  10.520 -0.2478  0.3296  0.1282
 4628W        W21102  14.234  10.524  12.248  0.2793  0.0684 -0.0825
 4629W        W21103   3.288  17.137   3.220  0.0638 -0.0279  0.0240
 4630W        W21104  14.417   6.513   0.177 -0.0665  0.0800 -0.0544
 4631W        W21105  17.294   5.256  13.456  0.1881 -0.1014  0.0435
 4632W        W21106   1.237   9.531   4.930  0.0041 -0.3494  0.0107
 4633W        W21107   3.699   1.129   2.230  0.0780  0.4535  0.1215
 4634W        W21108  11.436  16.126  16.239  0.0938 -0.0091 -0.4798
 4635W        W21109   4.463  15.445  14.316 -0.0827 -0.1616  0.0255
 4636W        W21110   9.256   6.379  16.710 -0.0543 -0.0202 -0.1380
 4637W        W21111   8.114  14.003  14.463  0.0200  0.1327  0.2236
 4638W        W21112   6.518   2.472  13.168 -0.2602  0.0487 -0.0336
 4639W        W21113   8.924  17.736   4.904  0.1570 -0.2111  0.2521
 4640W        W21114  14.035   3.267   2.503  0.1615 -0.1435  0.0208
 4641W        W21115  13.813   0.318   3.808 -0.3179  0.1548 -0.1183
 4642W        W21116   0.028   4.870  12.543 -0.2577  0.0196  0.0318
 4643W        W21117   5.040   8.763  11.622  0.0072 -0.0716 -0.1556
 4644W        W21118   5.498   3.794   0.917  0.0663  0.2815 -0.0092
 4645W        W21119   3.662  14.737   2.946 -0.1309 -0.1614  0.1277
 4646W        W21120   8.566  13.570   2.485 -0.0135  0.2028  0.2970
 4647W        W21121  12.849  16.467   3.772 -0.0247 -0.1352 -0.2514
 4648W        W21122  13.852   2.599   5.536  0.0985  0.2482 -0.0119
 4649W        W21123   6.204  17.149  13.352  0.2521 -0.0222  0.0892
 4650W        W21124   1.256   3.893  16.010  0.0731  0.2363 -0.0299
 4651W        W21125   7.562  12.565  11.711  0.0621  0.3756 -0.4472
 4652W        W21126  10.828   8.278  14.497  0.1445  0.0701 -0.1759
 4653W        W21127  15.694  15.282  11.618 -0.1651  0.1730 -0.3369
 4654W        W21128   8.821  12.798  15.457 -0.0438 -0.2600  0.2735
 4655W        W21129  15.468   0.969   3.063  0.1985 -0.1475 -0.0237
 4656W        W21130   3.181  10.900   4.336  0.0665 -0.0474  0.2043
 4657W        W21131  14.071   0.326  16.602 -0.0810 -0.2087 -0.3128
 4658W        W21132   1.924  14.135  16.201 -0.1622  0.2354  0.2546
 4659W        W21133  15.178  14.949  11.991  0.1596  0.2092 -0.1013
 4660W        W21134   7.922   2.743  15.900 -0.0066  0.1459  0.0630
 4661W        W21135   3.998   4.932  15.959 -0.3006 -0.2239 -0.1246
 4662W        W21136   8.877   8.277  14.347 -0.2498  0.0761  0.0188
 4663W        W21137  11.106  14.785  13.888 -0.1666  0.0400 -0.1224
 4664W        W21138   7.534   1.095   3.727 -0.1393  0.0918 -0.1742
 4665W        W21139  11.871  17.339   2.461  0.5342 -0.2257 -0.3099
 4666W        W21140  10.848   8.615  14.133  0.0801 -0.2108  0.1495
 4667W        W21141   4.369   6.254   6.266 -0.4722  0.0201  0.0700
 4668W        W21142  10.660  16.574  14.351  0.0741 -0.2111 -0.0687
 4669W        W21143  11.311  10.441  14.426 -0.0233 -0.2115  0.0484
 4670W        W21144  12.672  15.580   4.334  0.0005  0.1825  0.0740
 4671W        W21145   3.970   2.310  13.785  0.2754 -0.0561  0.0369
 4672W        W21146   4.155   2.313  15.914 -0.1339  0.0875  0.3012
 4673W        W21147   5.837   1.367   3.831  0.0319  0.2744  0.2722
 4674W        W21148  14.689  15.335  16.059 -0.0031  0.4299  0.4960
 4675W        W21149   4.922  17.364  15.810 -0.1689  0.0973 -0.0775
 4676W        W21150   7.754   2.385   4.464 -0.3339  0.0403 -0.0348
 4677W        W21151   7.160   5.987  15.389 -0.0882 -0.1449  0.6005
 4678W        W21152   8.761  11.324  16.136 -0.0628 -0.1731 -0.0763
 4679W        W21153   4.791  17.683  13.489 -0.1946  0.2101  0.3761
 4680W        W21154   6.420  11.794   5.069  0.2590  0.1482  0.0183
 4681W        W21155   4.777   9.222  11.658  0.2291  0.2193 -0.1399
 4682W        W21156  17.160   4.821   1.571 -0.1713 -0.0525  0.1068
 4683W        W21157   5.600   3.773  11.788 -0.1129 -0.1956  0.0098
 4684W        W21158  11.841   5.320   4.524 -0.1851  0.0793  0.2495
 4685W        W21159  10.743  11.494  12.929 -0.0990  0.0993  0.0770
 4686W        W21160  13.472   2.881   0.798  0.1720  0.0260  0.0618
 4687W        W21161  14.309  14.564  11.877  0.1468 -0.0817  0.2693
 4688W        W21162   7.594   2.189   3.156  0.2455  0.0539 -0.0481
 4689W        W21163   5.882  13.336   2.636 -0.3254 -0.0274  0.1993
 4690W        W21164   1.338   7.468  16.023  0.3691  0.1178 -0.1780
 4691W        W21165   1.704   5.957   3.732 -0.1934 -0.1304 -0.0181
 4692W        W21166   1.437   3.699   1.156 -0.0705 -0.2890  0.0322
 4693W        W21167  12.222  11.053  12.426 -0.1814  0.3327 -0.0116
 4694W        W21168   8.841  15.078   1.102 -0.1205 -0.2682 -0.3251
 4695W        W21169   9.737  10.838  13.255  0.1640 -0.2973 -0.2013
 4696W        W21170  16.209  14.128   5.159  0.0358  0.0588  0.1482
 4697W        W21171   8.604   2.795   5.690 -0.0092 -0.2082 -0.0392
 4698W        W21172   0.500  14.393   0.969  0.1005  0.1391 -0.3108
 4699W        W21173  11.624  12.115  12.251 -0.2136  0.1521 -0.0126
 4700W        W21174  13.906   5.787   5.264  0.2066 -0.0405 -0.0130
 4701W        W21175  16.808  13.984  13.113  0.1779 -0.2237 -0.3469
 4702W        W21176  12.766   7.292  15.272 -0.0963  0.2307  0.1140
 4703W        W21177   6.299  10.460  11.885 -0.0518  0.4377 -0.1389
 4704W        W21178  16.855   2.314   4.905  0.1384  0.0099 -0.2973
 4705W        W21179  13.282   5.279  13.070 -0.5454 -0.2148 -0.0647
 4706W        W21180  10.540   3.282  13.746  0.3518  0.0698 -0.1763
 4707W        W21181   7.246  13.458   2.095  0.2340  0.0080 -0.0065
 4708W        W21182   4.143  14.839   4.252  0.3220  0.2164  0.1727
 4709W        W21183   4.468   6.763   0.169  0.1359 -0.0569 -0.2413
 4710W        W21184  13.815   1.412   5.393  0.1700 -0.0163 -0.4128
 4711W        W21185   2.288   1.072  12.015 -0.4223 -0.1480  0.2471
 4712W        W21186   0.588  14.107  14.940  0.1128 -0.0161 -0.1309
 4713W        W21187   9.480  15.998  14.093 -0.2176  0.0064  0.1988
 4714W        W21188   2.863  12.108  14.175 -0.1076 -0.0072  0.1713
 4715W        W21189  16.232   0.860   3.620 -0.2058  0.0626 -0.0464
 4716W        W21190  13.403   3.390   0.764 -0.2064  0.2775  0.1819
 4717W        W21191  11.485   5.783   1.385 -0.0350 -0.0145  0.1916
 4718W        W21192   8.694   5.963   3.091  0.4018 -0.1248  0.0008
 4719W        W21193  17.464   7.684  16.712  0.0552  0.0439 -0.0021
 4720W        W21194  11.732   7.642   4.264 -0.0206  0.2089  0.1460
 4721W        W21195   6.611  13.515  11.276 -0.1283  0.2433 -0.0308
 4722W        W21196  15.764  13.718   1.430 -0.0550  0.1138  0.1993
 4723W        W21197  16.497   0.958   0.625 -0.1093  0.1949  0.1383
 4724W        W21198  10.272   0.993  13.612 -0.0190 -0.0125  0.0670
 4725W        W21199  12.855   4.205   1.096 -0.2581  0.0746 -0.1003
 4726W        W21200  11.757  17.388  16.288  0.0534  0.0571  0.2334
 4727W        W21201  17.807   9.874   5.226  0.1380  0.0564 -0.1660
 4728W        W21202   5.364   6.909   2.676  0.1256  0.1761 -0.2089
 4729W        W21203   7.008   5.236  11.923 -0.0642 -0.1337  0.0467
 4730W        W21204  11.930   7.305   2.600 -0.0816 -0.0623  0.1652
 4731W        W21205   2.663  15.252   4.738 -0.2103 -0.2284  0.1809
 4732W        W21206  14.437   9.085   0.627  0.1839 -0.1133  0.1076
 4733W        W21207   1.776  17.140  12.696 -0.1323 -0.3162 -0.1994
 4734W        W21208   3.083   7.614   0.120  0.0291 -0.0571  0.1856
 4735W        W21209  12.192   6.115   3.626 -0.1108 -0.2493 -0.1326
 4736W        W21210  10.391  11.508  15.996  0.0059  0.0102 -0.0660
 4737W        W21211  15.161   8.802  15.750 -0.2553 -0.0141  0.1834
 4738W        W21212  15.596  15.942  11.800  0.1964 -0.0320  0.0453
 4739W        W21213   0.391   2.392  15.825  0.0552  0.0047 -0.1186
 4740W        W21214   5.829  13.174   4.246 -0.0155  0.0577  0.3022
 4741W        W21215  13.491  13.851  12.649 -0.2718  0.0925 -0.0759
 4742W        W21216  14.652  13.017   2.681  0.0421  0.0354 -0.0065
 4743W        W21217   7.434   4.521  12.238  0.0966 -0.3562  0.3096
 4744W        W21218   9.222  14.171   1.884  0.0670 -0.1057  0.1457
 4745W        W21219   2.912  12.150  11.051  0.1351 -0.3118 -0.0516
 4746W        W21220   3.190   4.357   4.706 -0.0854  0.0286 -0.1341
 4747W        W21221   6.939  17.741   1.815  0.3065  0.1264 -0.0205
 4748W        W21222  17.372   3.070   3.103  0.0428  0.1157  0.0875
 4749W        W21223  14.842   0.970  15.417  0.1970  0.1306  0.0536
 4750W        W21224   2.994  16.817  16.734  0.0209 -0.1192 -0.0805
 4751W        W21225  11.037   5.384  15.359 -0.1474  0.0489  0.1757
 4752W        W21226  12.242  14.842   4.174  0.0016  0.1327 -0.1967
 4753W        W21227   2.639   7.144  15.725 -0.0523  0.0395 -0.2032
 4754W        W21228  11.736  11.434  14.237 -0.0570  0.1616  0.1252
 4755W        W21229  12.885  17.876   6.648  0.0879  0.2621 -0.1970
 4756W        W21230  15.476   2.800   2.823  0.1600 -0.1651 -0.1195
 4757W        W21231  10.710   4.059   5.542  0.1533 -0.0715 -0.0682
 4758W        W21232   7.432   7.288  14.812  0.0323 -0.0113 -0.0664
 4759W        W21233  16.700   4.699   5.090 -0.1326  0.1088 -0.0144
 4760W        W21234  13.903   8.995  13.930 -0.1036  0.1145 -0.1773
 4761W        W21235  12.198   5.933   0.078 -0.0198 -0.2946  0.1914
 4762W        W21236   6.183  16.209  14.072 -0.1005  0.0820 -0.0905
 4763W        W21237   6.301  15.124   0.803 -0.0974 -0.2760  0.1787
 4764W        W21238  17.259  16.164  11.367 -0.1945 -0.1210 -0.2932
 4765W        W21239  12.575  13.683  15.694  0.3082  0.1024  0.1368
 4766W        W21240   4.526  17.729  15.862  0.1424  0.0261 -0.0048
 4767W        W21241   3.079   6.045  13.881  0.1221  0.0352 -0.0558
 4768W        W21242  11.831  12.161   1.390 -0.0118  0.3922  0.4402
 4769W        W21243   5.196   1.899  15.923  0.1017  0.1621  0.4238
 4770W        W21244   6.587  15.120   5.171  0.0198  0.0615 -0.0571
 4771W        W21245  16.241   3.732   2.119  0.5006  0.2470 -0.0195
 4772W        W21246  14.537  15.833  16.020  0.0105 -0.2513 -0.0893
 4773W        W21247   1.620  16.606  13.894  0.0979 -0.1329 -0.0764
 4774W        W21248  10.592  15.413   4.003 -0.3387  0.1797  0.2984
 4775W        W21249  10.566  14.271   0.967 -0.0384  0.0046  0.0123
 4776W        W21250   3.931   1.962   1.365 -0.3149 -0.2779 -0.0092
 4777W        W21251   2.889   8.995  14.001 -0.0019 -0.1629 -0.0794
 4778W        W21252   0.955   5.168   4.545 -0.2526 -0.0553  0.0025
 4779W        W21253  12.273   1.329  12.936 -0.3022 -0.0525  0.0735
 4780W        W21254   2.921   5.566  16.490  0.0695 -0.0533  0.0543
 4781W        W21255  15.119   8.439  16.784  0.1521  0.3134  0.0897
 4782W        W21256   1.808  13.836  13.681 -0.1021 -0.0303  0.0506
 4783W        W21257   8.126  15.305   1.911  0.0046  0.2126  0.1481
 4784W        W21258   9.316  15.119  15.773 -0.0663  0.3473 -0.2172
 4785W        W21259  13.097  16.696  15.403 -0.2687 -0.0991  0.0981
 4786W        W21260   2.351  14.718   2.390  0.0311  0.1953  0.1971
 4787W        W21261  11.978  11.354   5.663  0.0414  0.1616 -0.1167
 4788W        W21262   9.554  17.612   1.860  0.1494 -0.0799  0.1046
 4789W        W21263   0.777   0.091   4.427  0.1427  0.1722 -0.0199
 4790W        W21264   1.840   1.013   2.954 -0.0993  0.0699  0.5005
 4791W        W21265   4.595   2.452   6.598  0.0304  0.0488 -0.2130
 4792W        W21266   8.921   6.713   2.464 -0.2432 -0.0970 -0.1312
 4793W        W21267  17.482   4.983  12.559 -0.2919 -0.1386 -0.2933
 4794W        W21268  14.154  16.901  14.329  0.0990 -0.0773  0.3349
 4795W        W21269  16.515  12.372   4.106 -0.3134  0.3505 -0.2182
 4796W        W21270   9.953  11.091   2.067  0.3865  0.5058  0.1349
 4797W        W21271   3.957  13.818   1.758  0.0340  0.0564 -0.0440
 4798W        W21272   7.145  11.060   4.010  0.0492  0.1769 -0.1443
 4799W        W21273   2.190   2.472   5.397  0.1262 -0.0050  0.3845
 4800W        W21274   3.519   4.263  15.244 -0.1133  0.1465  0.0199
 4801W        W21275  11.598   5.418  16.691 -0.1100  0.1118 -0.2937
 4802W        W21276   4.847   5.317   1.275 -0.1622 -0.3340 -0.1132
 4803W        W21277  11.687   3.043   0.722  0.3539 -0.1036  0.1265
 4804W        W21278  17.168  13.292   1.125 -0.1789 -0.2966  0.0970
 4805W        W21279   0.693   1.765   5.978  0.0345 -0.0400  0.2946
 4806W        W21280   2.826  12.435   2.650 -0.0175 -0.1386  0.0785
 4807W        W21281   0.630   1.141   3.558 -0.0420  0.1345  0.1245
 4808W        W21282  16.872   1.156   2.616  0.0702  0.6544  0.0934
 4809W        W21283   7.014  14.571   2.030 -0.1257  0.2419  0.1224
 4810W        W21284   1.946   1.390   1.569 -0.1449 -0.1268  0.2525
 4811W        W21285   8.476   2.871   4.759  0.2333  0.1862  0.0555
 4812W        W21286   9.257   1.759  15.828  0.0652 -0.1579 -0.1457
 4813W        W21287   2.692   6.940   2.914  0.2512  0.0263 -0.2357
 4814W        W21288  16.395  16.385   5.405 -0.0098 -0.0311 -0.1093
 4815W        W21289   8.446  15.204   0.338  0.4634  0.0003  0.0983
 4816W        W21290  16.409  11.195   4.212  0.4159 -0.0998  0.1447
 4817W        W21291   3.682   4.341   3.074 -0.2929 -0.3583  0.1060
 4818W        W21292   2.972  13.643   0.413  0.0690  0.1764  0.2306
 4819W        W21293   0.715  16.444  11.851 -0.0812 -0.2325 -0.0755
 4820W        W21294   3.230  13.506  13.890 -0.2081 -0.0723 -0.0178
 4821W        W21295  15.643   6.751  15.117  0.3332  0.0725 -0.0025
 4822W        W21296  14.672   7.775  15.994 -0.0365 -0.0565  0.0143
 4823W        W21297   2.858   2.617  13.143 -0.1720  0.0913 -0.0949
 4824W        W21298   6.453  14.497  12.615  0.1148 -0.1138  0.0584
 4825W        W21299   1.866  12.503  15.774  0.0682 -0.0535 -0.3207
 4826W        W21300   4.184   8.884  14.729 -0.1974 -0.2197  0.1475
 4827W        W21301   1.244   0.817   4.797  0.0747  0.0717 -0.0056
 4828W        W21302   2.308   9.615  13.880  0.0940  0.2569  0.0138
 4829W        W21303  10.116   0.540  13.887 -0.1015 -0.1701  0.1268
 4830W        W21304  13.054   0.304   2.332  0.0340  0.0246  0.1171
 4831W        W21305   4.295   1.616   0.716  0.2179 -0.0939  0.1336
 4832W        W21306  12.939  14.982  11.638 -0.0710 -0.1787  0.2123
 4833W        W21307  12.765  16.273  16.221  0.0825 -0.1626  0.1087
 4834W        W21308   2.139   2.997  12.655 -0.1091  0.1829  0.1056
 4835W        W21309  17.928   0.525   5.256 -0.2953  0.1316 -0.0302
 4836W        W21310   5.467  12.599   2.994  0.1690 -0.3816  0.3104
 4837W        W21311   8.397   6.134   1.454 -0.2287 -0.1528  0.2009
 4838W        W21312  12.165  10.566  14.934  0.3267  0.1155  0.0637
 4839W        W21313   6.615   7.591  14.233 -0.1404 -0.0403 -0.0324
 4840W        W21314   1.473  17.247   3.006  0.0106  0.1144 -0.2387
 4841W        W21315   1.501  17.469   2.255 -0.1682  0.1613 -0.0050
 4842W        W21316   3.622   5.091   1.632 -0.1805  0.1371 -0.2736
 4843W        W21317   7.888  16.450   2.917 -0.2282 -0.1425 -0.0310
 4844W        W21318   9.018   4.333   4.834  0.0648  0.0034  0.0110
 4845W        W21319  14.240  16.144   3.648 -0.3073  0.1052 -0.1371
 4846W        W21320  17.728   0.926   1.566 -0.1105 -0.2574 -0.0663
 4847W        W21321  17.929  17.867  13.232  0.0320  0.1420 -0.1774
 4848W        W21322  17.279   3.197   0.045 -0.0958 -0.2099 -0.1251
 4849W        W21323  14.454   1.309  12.346  0.0594 -0.0231 -0.2092
 4850W        W21324  15.081  14.235   2.004 -0.2683  0.1533 -0.3192
 4851W        W21325  14.314   9.782  12.882 -0.0843  0.0214  0.0886
 4852W        W21326   0.400   5.549   5.104 -0.0539 -0.0419  0.0564
 4853W        W21327  10.893  15.888  11.441  0.2968 -0.1888  0.0894
 4854W        W21328  11.529   3.457   0.987  0.3610 -0.0481 -0.2485
 4855W        W21329  16.335   2.930   3.098  0.0425 -0.0896 -0.0299
 4856W        W21330   1.558   7.465   1.965  0.0307 -0.2232 -0.1339
 4857W        W21331  15.767   2.232   3.335  0.1526  0.1497  0.1586
 4858W        W21332   6.840   5.687   2.242  0.0957  0.2427  0.1575
 4859W        W21333  16.069  13.749   3.854 -0.0574 -0.1629 -0.1829
 4860W        W21334   7.222  13.590  11.391 -0.1860  0.0550 -0.1600
 4861W        W21335   8.914   3.743   5.406  0.0752 -0.2478  0.3213
 4862W        W21336   2.405  16.969   5.040  0.1119  0.0603 -0.2237
 4863W        W21337   6.546   5.685  12.797 -0.2891 -0.0293  0.4707
 4864W        W21338  12.977  14.173   1.103  0.0636 -0.1634 -0.0378
 4865W        W21339   3.390   5.830   3.486  0.3558 -0.2074  0.0069
 4866W        W21340   7.500   0.680   2.220 -0.1576 -0.0894  0.0817
 4867W        W21341   5.124   9.224   2.981  0.0676  0.0768  0.1229
 4868W        W21342   2.036   2.536   4.869  0.0179  0.1304 -0.1420
 4869W        W21343   3.387  13.990  13.788  0.1459  0.1733 -0.0266
 4870W        W21344  11.564   7.462  11.818 -0.0148  0.1087 -0.2812
 4871W        W21345   5.067   4.945  16.739  0.1288  0.0787  0.1343
 4872W        W21346  17.902   2.549  12.130 -0.1469  0.0647  0.1012
 4873W        W21347  12.284   3.740   0.561 -0.0378 -0.3510 -0.1072
 4874W        W21348   6.104   1.991   5.060  0.0963 -0.0572  0.2956
 4875W        W21349   1.618   0.780  14.876 -0.1137 -0.1944 -0.1384
 4876W        W21350   1.514   9.418   5.394  0.0272  0.4737  0.1849
 4877W        W21351   1.401  10.904  13.517 -0.2294  0.1523  0.1397
 4878W        W21352  10.682   4.547   5.177 -0.0634  0.2552  0.1041
 4879W        W21353   2.732   4.550   1.539  0.3087  0.0317 -0.3571
 4880W        W21354   7.546   9.968   2.302  0.2007  0.1690  0.0360
 4881W        W21355  13.787  13.993   1.458 -0.0429 -0.0947 -0.0726
 4882W        W21356  13.623  12.355   4.174 -0.1238  0.0627 -0.0746
 4883W        W21357  11.178  17.477   4.673 -0.0187 -0.1218  0.0957
 4884W        W21358  17.915  17.733  16.769 -0.0604 -0.1924  0.2175
 4885W        W21359  14.651   9.652   3.577  0.1422  0.0777  0.2521
 4886W        W21360  13.584   6.184   4.088 -0.1507 -0.0782 -0.1242
 4887W        W21361  17.170   7.006   4.953  0.3084  0.1239  0.2324
 4888W        W21362  17.972  14.863  15.531 -0.0418  0.3186 -0.0452
 4889W        W21363  16.668   2.676  12.499  0.2542  0.0696 -0.0934
 4890W        W21364   0.483  11.383   1.217 -0.1991  0.1283  0.0601
 4891W        W21365   7.482  15.777   4.428  0.2490  0.0182 -0.1126
 4892W        W21366   2.860   1.554  12.000  0.1936  0.0353 -0.0382
 4893W        W21367  11.088   3.698   5.400 -0.0956  0.0435 -0.3587
 4894W        W21368  17.231  16.087   1.435  0.1599  0.1685  0.0690
 4895W        W21369   6.114  17.592   4.781 -0.0339 -0.2164  0.0137
 4896W        W21370  17.269  17.443   3.959  0.0187 -0.0295 -0.1489
 4897W        W21371   1.274   6.778  12.360  0.0889  0.0977 -0.0366
 4898W        W21372  15.687  14.053  14.137  0.0303  0.0954 -0.1307
 4899W        W21373   2.280  12.828  13.925 -0.2907  0.1502  0.0939
 4900W        W21374   5.678   9.671  14.561 -0.0525  0.0665  0.3162
 4901W        W21375  17.381   6.287  13.599  0.1472  0.0076 -0.1798
 4902W        W21376  13.972   9.301   4.468 -0.0486  0.1618 -0.0598
 4903W        W21377   8.396  12.149   0.603  0.1409 -0.1328 -0.0539
 4904W        W21378  12.969   2.456   3.068  0.2481  0.0670 -0.0349
 4905W        W21379  15.050   3.952  16.362 -0.0488  0.1084 -0.0753
 4906W        W21380   1.057   6.512   3.666 -0.3457 -0.3301  0.0617
 4907W        W21381   9.304   5.873   6.118  0.0875  0.0259 -0.1728
 4908W        W21382   2.486   0.939  14.911 -0.0735 -0.4777 -0.0967
 4909W        W21383   0.205   6.642   1.261  0.0652  0.0042 -0.1059
 4910W        W21384  15.787   9.038  16.305  0.3210 -0.3157 -0.1894
 4911W        W21385  17.509  15.750   4.815 -0.1160 -0.0777  0.1098
 4912W        W21386  13.545  13.687   0.962  0.4477  0.1056 -0.2972
 4913W        W21387  10.413   9.288   4.623 -0.2355  0.1408 -0.0421
 4914W        W21388   1.243   1.019  11.967  0.1566  0.0343 -0.0015
 4915W        W21389  15.227  11.542  16.022 -0.2718  0.1689  0.0042
 4916W        W21390  16.131   7.376   4.284 -0.0772  0.0597  0.0145
 4917W        W21391  14.072   9.504   0.487 -0.1864 -0.0008  0.0680
 4918W        W21392   2.791   9.709  12.937  0.0522  0.0261 -0.2131
 4919W        W21393   5.020  10.441  15.029 -0.2427 -0.0031 -0.2607
 4920W        W21394   4.735   7.376   4.536 -0.0307  0.1490 -0.0563
 4921W        W21395   9.876   3.558   0.949  0.1806 -0.2036  0.2037
 4922W        W21396   7.546   1.723   4.558  0.1295  0.0944  0.1628
 4923W        W21397   5.481   4.699  14.855 -0.1701  0.0355  0.1462
 4924W        W21398  16.427   5.747   2.865 -0.0156 -0.0862  0.1512
 4925W        W21399  15.154   7.441   2.904 -0.0324 -0.1476  0.0087
 4926W        W21400   8.742  17.883   0.710  0.1257 -0.0034  0.3941
 4927W        W21401   5.647   4.281   0.806  0.1466 -0.3865  0.2873
 4928W        W21402   9.239  14.785   0.037  0.0291 -0.1476 -0.0129
 4929W        W21403  17.921  16.962   5.215  0.0853 -0.2181 -0.0039
 4930W        W21404   1.964  13.383   2.749  0.1764  0.1617  0.0267
 4931W        W21405   9.052   3.418  15.730 -0.0898 -0.0061 -0.0879
 4932W        W21406   0.988  13.757  14.943  0.1196  0.0412  0.4214
 4933W        W21407   5.519   2.595   0.219 -0.2143  0.1000 -0.0908
 4934W        W21408   4.731  16.941   0.338  0.0209 -0.0453 -0.1831
 4935W        W21409  11.507  16.700   4.606  0.0186 -0.1953  0.2782
 4936W        W21410  11.146  15.127   0.802 -0.0746 -0.5180  0.0208
 4937W        W21411   8.346  15.564   5.302 -0.0516  0.2842 -0.2018
 4938W        W21412  11.417   9.277  14.271  0.1298 -0.1939  0.2046
 4939W        W21413   3.546  15.200  12.209 -0.0661  0.0816  0.0284
 4940W        W21414   8.145  15.861   0.898 -0.0296 -0.0624  0.0086
 4941W        W21415   5.509   7.778   3.733  0.1705 -0.2459 -0.0186
 4942W        W21416  11.144  16.249  14.378 -0.2211  0.1388 -0.0981
 4943W        W21417  15.095  10.570   2.951 -0.1930 -0.2965  0.1751
 4944W        W21418  17.021   2.140  13.803 -0.0641 -0.1339  0.1925
 4945W        W21419   9.903   7.040  14.912 -0.2044 -0.2929 -0.2523
 4946W        W21420  13.967   6.412  11.922  0.2563 -0.3103  0.1169
 4947W        W21421   4.323   3.992  14.931  0.1804  0.0072  0.4340
 4948W        W21422   7.528   1.674   3.279  0.1342  0.0722  0.3390
 4949W        W21423   1.434  17.547  16.256  0.1362  0.1232 -0.1446
 4950W        W21424  10.437   1.367  13.283  0.2266  0.2428 -0.0093
 4951W        W21425  13.810   0.006   0.158  0.3462 -0.2237  0.0751
 4952W        W21426   5.035   4.713  12.648  0.0216  0.2846 -0.0683
 4953W        W21427   9.849  16.320  13.868 -0.1469  0.0140  0.1764
 4954W        W21428   5.660   4.535  15.896 -0.1211 -0.0566 -0.1148
 4955W        W21429   4.879   9.991   0.318 -0.1642 -0.1223 -0.1114
 4956W        W21430  17.188  12.281   4.627  0.0063 -0.0598  0.0558
 4957W        W21431   9.395   5.003   5.158 -0.1693 -0.0060 -0.2442
 4958W        W21432  17.408   0.830  16.207  0.3592 -0.0302 -0.1567
 4959W        W21433   0.535  12.716  15.483  0.1095 -0.1629  0.0214
 4960W        W21434  14.095   4.808   0.292 -0.2308 -0.1691  0.1038
 4961W        W21435   7.641   7.914  11.862  0.1026  0.1755 -0.1301
 4962W        W21436  16.577  13.054  12.383  0.1712  0.0624 -0.1299
 4963W        W21437  15.821   5.521   4.203 -0.0967  0.0473  0.0916
 4964W        W21438   0.019   6.426   0.349  0.0265  0.1836 -0.1887
 4965W        W21439   8.140   0.750   3.643  0.2455  0.2533 -0.1276
 4966W        W21440  16.121  10.243   2.354 -0.0907 -0.3070  0.0396
 4967W        W21441  14.173   2.287   4.642 -0.2854  0.3267  0.1160
 4968W        W21442   0.984  11.410  11.381  0.2329  0.3080 -0.2181
 4969W        W21443   2.357   1.739  13.450  0.1269  0.0142 -0.2794
 4970W        W21444   8.171   6.060  16.401 -0.3345 -0.0295  0.2542
 4971W        W21445   7.911  16.011   5.304  0.3330  0.1452  0.1352
 4972W        W21446   9.639  15.131   5.377  0.0577 -0.2682 -0.0102
 4973W        W21447   6.120   5.602   0.573  0.1718  0.1649  0.2313
 4974W        W21448  16.920   7.825  11.575 -0.1116  0.2548 -0.1901
 4975W        W21449   1.229  10.770  12.471  0.1850 -0.0850  0.0145
 4976W        W21450   1.024  15.505  11.802  0.2922  0.1670  0.1142
 4977W        W21451  13.797  10.071   2.428 -0.1350 -0.0016 -0.1600
 4978W        W21452  11.707   4.421   3.097 -0.2317 -0.0750  0.1878
 4979W        W21453  10.779   5.255   0.485 -0.2626 -0.1962  0.0238
 4980W        W21454   8.165  13.798  12.063 -0.1063  0.1513  0.2770
 4981W        W21455   2.507  11.517  12.598 -0.0009  0.1841 -0.0390
 4982W        W21456   4.906  14.575  12.513 -0.0059  0.3103  0.1941
 4983W        W21457  12.805  17.018   2.762 -0.0095 -0.0943  0.0059
 4984W        W21458   3.833   6.962  15.142  0.3364  0.2055 -0.3274
 4985W        W21459  15.647  17.648  12.638  0.2082 -0.4245 -0.0675
 4986W        W21460  10.428   6.857  14.306 -0.0321 -0.1625 -0.1497
 4987W        W21461   3.219   4.700  12.412  0.0288 -0.0083  0.1371
 4988W        W21462   2.678   7.355  13.080  0.1499  0.0760  0.1198
 4989W        W21463   6.587   6.962  12.135  0.0968  0.4229  0.1984
 4990W        W21464   7.255   7.909  13.193 -0.0319 -0.0609 -0.2799
 4991W        W21465   4.653   7.250  15.520  0.0111  0.0643 -0.0749
 4992W        W21466   7.617  17.877   2.709 -0.3177  0.0157 -0.1333
 4993W        W21467  14.131   8.046   4.751 -0.1203  0.4096  0.1370
 4994W        W21468   3.156  13.584   4.926  0.3290  0.2514 -0.1366
 4995W        W21469  17.296  11.350   3.992 -0.0034 -0.0551  0.1475
 4996W        W21470   5.482  16.878  14.574 -0.0378  0.1930  0.1684
 4997W        W21471  13.287   5.337  13.827  0.0705  0.1791  0.2005
 4998W        W21472   6.333  17.598  15.972 -0.3513  0.1256 -0.0008
 4999W        W21473   5.169  13.873  16.254 -0.1197 -0.0697 -0.0012
 5000W        W21474   7.226   5.299   1.943  0.0157  0.3330  0.0200
 5001W        W21475  16.063   3.232   0.477  0.2873  0.1962 -0.2036
 5002W        W21476   4.297   1.971  15.551 -0.1313  0.1406  0.0120
 5003W        W21477  12.923  13.127  12.938 -0.1406  0.0356 -0.1202
 5004W        W21478   8.263  15.083   6.126  0.2009  0.2176 -0.3048
 5005W        W21479  10.820  15.612   5.667 -0.3423 -0.1256 -0.1477
 5006W        W21480   0.075   2.908   3.585  0.0546  0.2011  0.0187
 5007W        W21481  11.541  17.800   5.074 -0.0474  0.1315 -0.0207
 5008W        W21482   0.778   5.354  16.314 -0.0293 -0.2595 -0.1609
 5009W        W21483  10.469  16.220   1.095 -0.2329  0.0406 -0.4026
 5010W        W21484  13.643   9.438  16.327  0.0844 -0.1813  0.0035
 5011W        W21485   7.575  17.830  11.036  0.1034 -0.0124 -0.0529
 5012W        W21486   6.280  15.502  11.370 -0.1459  0.1638  0.3475
 5013W        W21487   5.035   1.698   2.124  0.0061  0.2536  0.1360
 5014W        W21488  13.874  13.448  15.135 -0.0150  0.1025  0.1650
 5015W        W21489   1.238   9.051  13.596  0.3629 -0.0116 -0.2285
 5016W        W21490  17.153  14.485  15.174 -0.1593 -0.0554  0.2936
 5017W        W21491  12.975   9.012   3.967 -0.1085  0.0554  0.0754
 5018W        W21492   2.437  16.049   2.872 -0.2558  0.0968 -0.2942
 5019W        W21493   8.872   2.537   3.667 -0.1377  0.0260 -0.0303
 5020W        W21494  12.094   8.277   5.403 -0.2070 -0.0434  0.0205
 5021W        W21495   0.757  12.780  13.039  0.1420 -0.0492  0.1312
 5022W        W21496  17.097  14.966   4.947  0.0405  0.4380 -0.0698
 5023W        W21497   5.348   7.977   4.149 -0.0774  0.0657  0.1005
 5024W        W21498   3.541   5.980   5.030 -0.3329  0.1048  0.5338
 5025W        W21499  17.250   6.650  13.311  0.0677  0.0137  0.2935
 5026W        W21500   3.962   7.769   1.480 -0.0450 -0.0966  0.0492
 5027W        W21501   3.909   7.909   2.960 -0.1466  0.0346 -0.2282
 5028W        W21502  15.248  12.153  11.985  0.1453 -0.0921  0.1194
 5029W        W21503  10.262   3.861   1.200  0.1121  0.0298 -0.1093
 5030W        W21504  13.520   6.128   0.315 -0.1593 -0.0796  0.0072
 5031W        W21505  16.485  11.657  16.271  0.1908  0.3218  0.1501
 5032W        W21506   0.929  12.196   3.425 -0.2692 -0.1772 -0.0066
 5033W        W21507  17.493  13.204   2.765  0.2379  0.0420 -0.3235
 5034W        W21508   4.065   2.059   0.526 -0.1461  0.0540  0.1292
 5035W        W21509  10.282   4.003  15.440 -0.1017 -0.4244 -0.1895
 5036W        W21510  17.965   9.506  16.472 -0.0560  0.1513  0.0395
 5037W        W21511  10.750   4.884   4.389  0.1738  0.3256 -0.1537
 5038W        W21512   5.597   9.613  11.788  0.1588 -0.0950  0.2766
 5039W        W21513   9.731   2.991  13.403 -0.0613  0.1572  0.1195
 5040W        W21514  12.718  11.818  15.580  0.1944 -0.0440  0.2349
 5041W        W21515   6.322   1.106  13.144 -0.0224  0.2222 -0.1843
 5042W        W21516  13.976  16.467   1.127  0.2373  0.1567 -0.2577
 5043W        W21517   7.713  11.685  15.607  0.0607 -0.0898 -0.1745
 5044W        W21518   9.327   3.753  13.958 -0.3257 -0.3375 -0.0128
 5045W        W21519   7.706   9.559   1.179  0.0693  0.1256  0.1336
 5046W        W21520   2.264   3.172  14.498 -0.0030 -0.1744 -0.2176
 5047W        W21521   7.795   3.249  14.341  0.0231  0.0681 -0.0126
 5048W        W21522   5.119   2.807   5.689 -0.5098 -0.0543  0.0050
 5049W        W21523   7.325   8.547   4.541 -0.0351 -0.1267 -0.2890
 5050W        W21524   2.145   0.238   6.242 -0.2885 -0.1038 -0.0767
 5051W        W21525  12.279  17.297  16.290 -0.1549  0.0982 -0.1401
 5052W        W21526   9.643   7.991  16.347 -0.1508  0.1004  0.1588
 5053W        W21527  12.911  10.357  11.841 -0.0267 -0.0267  0.0892
 5054W        W21528  17.798   7.259   1.831 -0.0096  0.0565  0.0767
 5055W        W21529  13.937   2.218   2.446  0.3411 -0.1346  0.0600
 5056W        W21530   3.372  12.969   5.582  0.0419  0.2027  0.0701
 5057W        W21531  12.239   4.789   1.098  0.0580 -0.2982  0.0200
 5058W        W21532   1.381   9.963   1.062 -0.2190 -0.1590  0.0379
 5059W        W21533   5.527   2.757   4.098  0.2051 -0.0874  0.2061
 5060W        W21534  15.822  13.550   0.022 -0.1095  0.3819 -0.0184
 5061W        W21535   5.240  11.596   1.572 -0.0267  0.0231  0.1249
 5062W        W21536   4.279  13.584  14.491  0.3739 -0.3284 -0.0708
 5063W        W21537   4.986   0.692  12.725 -0.2789  0.1080 -0.1891
 5064W        W21538  12.569  16.208   1.030 -0.1051  0.2440  0.0545
 5065W        W21539   9.214  10.531  11.410 -0.2821  0.0456 -0.2479
 5066W        W21540  16.230   0.032   0.190  0.0634 -0.2573 -0.2202
 5067W        W21541   7.660  15.699   2.480 -0.3723 -0.0225 -0.0782
 5068W        W21542   4.226   5.556  13.336  0.1383 -0.2096 -0.1317
 5069W        W21543   4.012   0.612  15.150 -0.3094  0.0429  0.1833
 5070W        W21544   9.113  17.911   2.061  0.0914  0.2612 -0.2581
 5071W        W21545   0.089  13.856   0.765  0.4510 -0.1225  0.0943
 5072W        W21546   8.575  10.174  12.775  0.2997  0.1809 -0.0024
 5073W        W21547   5.368  15.392   4.066 -0.1374  0.2004 -0.1485
 5074W        W21548   4.465  16.950   2.178 -0.2092  0.1723 -0.2266
 5075W        W21549  12.276  15.375   3.491 -0.0638 -0.0204  0.1719
 5076W        W21550  16.677  15.251  12.298  0.1366 -0.1647 -0.0562
 5077W        W21551   5.964   1.948   1.997  0.0717  0.2330  0.1402
 5078W        W21552  11.003   2.499   5.938  0.1733  0.1232  0.1029
 5079W        W21553   6.846  10.960   3.607 -0.1451 -0.0072  0.0432
 5080W        W21554  15.206  17.170  11.862 -0.1084 -0.0848  0.2711
 5081W        W21555  10.544   4.441  12.920  0.0207  0.2046  0.1981
 5082W        W21556   0.571  17.366   5.648 -0.0246  0.1696 -0.0696
 5083W        W21557  10.478  10.400   3.593  0.1686 -0.0527 -0.0744
 5084W        W21558   6.802  13.543  14.600 -0.0322 -0.2370  0.0716
 5085W        W21559  10.423   6.067  16.733  0.0388  0.0194  0.4049
 5086W        W21560   8.990   8.032   1.966 -0.2404 -0.0216 -0.1501
 5087W        W21561   7.147   8.942  15.089  0.0977  0.4627  0.0160
 5088W        W21562   6.579  14.915  15.627  0.1806  0.0598 -0.2010
 5089W        W21563   6.208  14.203   2.136  0.2215 -0.1962 -0.2112
 5090W        W21564  10.635   6.358  14.408  0.2566 -0.0980  0.3064
 5091W        W21565  17.386  14.947  11.482  0.0997  0.5687 -0.0438
 5092W        W21566  10.945   3.540   1.108 -0.0159 -0.0894  0.1028
 5093W        W21567   0.695   0.365  16.580 -0.2825 -0.3111 -0.0994
 5094W        W21568   1.613  10.439  13.466  0.0717 -0.2166 -0.1699
 5095W        W21569  17.051  13.610  15.547  0.0189  0.1140 -0.0041
 5096W        W21570   5.679  15.837  11.499 -0.3351  0.0656 -0.0623
 5097W        W21571  16.758   9.938   0.174  0.0853  0.0161 -0.4822
 5098W        W21572  12.571   1.833   0.128  0.0685 -0.2844 -0.2122
 5099W        W21573  13.341   3.971   1.432 -0.2061 -0.0390  0.1907
 5100W        W21574   6.828   0.234   1.956  0.1594  0.4765  0.1441
 5101W        W21575  13.036   3.618  13.331  0.2679  0.2506 -0.0650
 5102W        W21576  10.883   1.679   3.644 -0.0556  0.1108 -0.0181
 5103W        W21577   9.449  11.450  14.998  0.0796 -0.0738 -0.0246
 5104W        W21578   5.850  14.032   4.441  0.0338  0.0717 -0.1012
 5105W        W21579  17.241  11.488  11.707  0.0137  0.1412 -0.1835
 5106W        W21580  10.006   3.544   0.466  0.0332 -0.1607 -0.1361
 5107W        W21581  11.045   4.610  13.790  0.1679 -0.1877 -0.1357
 5108W        W21582   1.242   8.115  13.914  0.2025  0.0231  0.0045
 5109W        W21583   9.265  14.806   2.874 -0.0125  0.2342  0.2473
 5110W        W21584  12.120  12.597   1.285  0.0973  0.0186 -0.2511
 5111W        W21585  13.089  11.033   1.874  0.2500 -0.1493  0.2738
 5112W        W21586  15.543   3.239  15.945  0.0342  0.1616 -0.0036
 5113W        W21587   0.988  13.523   0.235  0.0424 -0.3031 -0.2459
 5114W        W21588  10.871  12.739  14.860 -0.2327  0.1684  0.2829
 5115W        W21589  17.333   5.607  12.018 -0.0172  0.2353  0.0994
 5116W        W21590   3.820  12.656  11.229 -0.0279 -0.0475 -0.2044
 5117W        W21591   4.785   7.231   3.959 -0.1940 -0.1062  0.3032
 5118W        W21592  17.353   1.734  14.672  0.0718 -0.2664 -0.2423
 5119W        W21593   9.373   8.297  13.579  0.4455 -0.2014  0.1129
 5120W        W21594   0.392   2.522  12.659  0.0182 -0.0903  0.0574
 5121W        W21595   0.385   2.703   0.358 -0.3257 -0.0956  0.0237
 5122W        W21596  16.882   9.780  16.402 -0.2770  0.1671  0.0304
 5123W        W21597   5.147   3.911  14.531  0.1345 -0.1603  0.3296
 5124W        W21598   9.304   9.328   2.078  0.3237 -0.0851 -0.1652
 5125W        W21599   2.474   1.841   4.164  0.0473  0.3991  0.1009
 5126W        W21600   4.087   1.925   2.234 -0.1851 -0.3403 -0.3639
 5127W        W21601   8.322  16.675   4.236  0.3584  0.1372  0.1465
 5128W        W21602   4.160   7.751   2.536 -0.0278 -0.0582 -0.3079
 5129W        W21603  13.643   6.052   2.813 -0.0467 -0.1952 -0.0955
 5130W        W21604   5.249  13.987  11.330 -0.1011  0.3378  0.1273
 5131W        W21605   3.442  14.670   5.141 -0.3016 -0.0749  0.2331
 5132W        W21606  14.205  12.382  14.937 -0.5253 -0.1739 -0.1067
 5133W        W21607  15.229  12.121  13.930 -0.1590  0.0040  0.0605
 5134W        W21608  16.446  13.748  11.896 -0.3073  0.1816  0.2825
 5135W        W21609  10.557  10.022  13.391  0.0750 -0.1737  0.0474
 5136W        W21610  13.923   8.853   3.651 -0.2348  0.1348  0.0084
 5137W        W21611   3.643   1.519  16.167  0.0046 -0.2390 -0.2093
 5138W        W21612   3.600   9.903  12.164 -0.0736 -0.0817 -0.0355
 5139W        W21613   1.842   3.604   2.197 -0.2282  0.3489 -0.1218
 5140W        W21614   2.683   7.736   4.632 -0.1371 -0.0514 -0.1775
 5141W        W21615   2.633   3.237   2.593  0.1268  0.1099  0.2490
 5142W        W21616   2.844  12.807   1.922  0.0909  0.1710 -0.2281
 5143W        W21617   8.122   4.604   0.210 -0.0448 -0.0834  0.1786
 5144W        W21618  16.426   9.291  13.847  0.1736 -0.0903 -0.1201
 5145W        W21619   4.647  12.326  13.790 -0.1939 -0.0463  0.0960
 5146W        W21620   3.320   5.510  11.756 -0.0226  0.4002 -0.1228
 5147W        W21621   4.162  10.849   5.281  0.0385 -0.3869 -0.3250
 5148W        W21622   7.508   7.759  16.754 -0.0771  0.2558 -0.0078
 5149W        W21623   5.595  17.137  12.355 -0.1760  0.0863  0.0912
 5150W        W21624   0.156   1.940  12.948  0.0413 -0.2016 -0.0827
 5151W        W21625   6.126  17.733   1.053  0.2058  0.2830 -0.2230
 5152W        W21626   3.999  13.926   0.166 -0.2361  0.0270  0.4362
 5153W        W21627  12.640  17.600   0.448 -0.0155  0.5025 -0.2369
 5154W        W21628  13.142  14.395  13.755  0.1000 -0.0047 -0.1305
 5155W        W21629   4.951  13.207   0.969  0.0129 -0.3917 -0.1480
 5156W        W21630   5.610   6.992   0.384  0.2718  0.0989  0.1324
 5157W        W21631   5.856   1.723  10.661 -0.1426 -0.0364  0.1929
 5158W        W21632   7.195   4.910   2.277  0.0025  0.1984 -0.0732
 5159W        W21633  12.459   9.580   2.264  0.0308  0.1523 -0.0114
 5160W        W21634   6.406   9.003   4.853  0.5261  0.0262  0.0070
 5161W        W21635  12.214  13.081  14.937 -0.1770 -0.1949  0.2115
 5162W        W21636   4.398  16.109   1.259  0.0310  0.0031  0.3289
 5163W        W21637  13.823   8.370   3.840  0.0481 -0.0463 -0.2696
 5164W        W21638   8.488  10.431   0.944 -0.2126 -0.0316 -0.4761
 5165W        W21639   8.285   4.633  12.197 -0.1567  0.2519  0.1505
 5166W        W21640  12.064   1.724   2.923  0.1963 -0.1428  0.0356
 5167W        W21641  14.295   6.280   1.374  0.1173 -0.2405  0.0687
 5168W        W21642  16.818   9.955  12.303  0.2220  0.0710 -0.1692
 5169W        W21643   2.650  13.669  10.556 -0.1447  0.1909  0.0988
 5170W        W21644   4.039   7.085   4.890  0.0827 -0.2958  0.0880
 5171W        W21645  11.493   2.305  16.656  0.1371 -0.0332  0.2982
 5172W        W21646  10.577   7.371  14.458 -0.0707  0.2742 -0.3243
 5173W        W21647   8.594   6.335   0.895 -0.2579  0.1258 -0.1339
 5174W        W21648   2.565   3.505  11.959 -0.1882  0.1406  0.0999
 5175W        W21649   3.350  15.585   0.444  0.1378  0.0933 -0.3149
 5176W        W21650  17.948   6.298  12.898 -0.1392 -0.1732 -0.2024
 5177W        W21651   3.817  15.289  12.680 -0.4730 -0.0105 -0.3728
 5178W        W21652   0.951   6.439   4.272 -0.1118  0.4556 -0.1586
 5179W        W21653   7.680   9.722  15.473  0.2701  0.0080 -0.0988
 5180W        W21654   1.349   7.105   4.590 -0.2556  0.2187  0.0550
 5181W        W21655  15.029  15.810   2.153 -0.1358  0.2757 -0.1117
 5182W        W21656  11.963  15.486   2.913 -0.1250  0.0678 -0.0573
 5183W        W21657   6.324   4.740   5.044  0.1070  0.0551  0.0908
 5184W        W21658   6.361   9.103   3.433  0.0773 -0.1880 -0.2364
 5185W        W21659  16.849   5.000   0.710  0.1472 -0.0394  0.2887
 5186W        W21660   6.054   4.884  10.815  0.0798 -0.2299  0.2717
 5187W        W21661   8.786  11.358   4.944 -0.3020  0.2646 -0.0870
 5188W        W21662  16.865   9.753  15.491 -0.0993  0.0241  0.1079
 5189W        W21663   8.858   2.580   4.571  0.1042  0.0263 -0.0799
 5190W        W21664  12.628  16.020  16.763  0.1190 -0.0678 -0.1207
 5191W        W21665   5.781   4.157  16.160  0.1314 -0.0166 -0.1144
 5192W        W21666   6.901   2.841   3.281  0.0289 -0.2877 -0.0133
 5193W        W21667  11.214  14.489   4.255 -0.0522 -0.1213 -0.0821
 5194W        W21668  11.526  10.121   5.832  0.0440  0.1626  0.0264
 5195W        W21669   6.547   0.770   4.823  0.0469 -0.1472 -0.1496
 5196W        W21670   3.427   6.267   4.631  0.1457 -0.0574 -0.3557
 5197W        W21671  12.784   1.214   5.341 -0.0723 -0.1245 -0.1745
 5198W        W21672   5.079   7.111   4.332  0.2141  0.3717 -0.1259
 5199W        W21673  15.216   2.089   3.788  0.1668  0.2000  0.0830
 5200W        W21674   8.652   1.030   2.914  0.0553  0.0402 -0.0932
 5201W        W21675   7.963   9.664   0.532  0.2989 -0.0929  0.0363
 5202W        W21676   3.135   1.487   3.421 -0.4875 -0.1376  0.1634
 5203W        W21677  11.074   9.433  11.801  0.0284 -0.1361  0.0895
 5204W        W21678  10.066   6.586  13.655  0.2060 -0.0111  0.1004
 5205W        W21679  11.191   8.143   3.768 -0.1407  0.2449 -0.0465
 5206W        W21680  12.670  13.374  14.984 -0.0223  0.0446 -0.0973
 5207W        W21681   9.926   5.304  15.766  0.2979 -0.2138 -0.1175
 5208W        W21682   6.966   6.391  16.257  0.1061 -0.1962  0.1155
 5209W        W21683  12.868  15.487  13.780  0.1595  0.2457  0.1236
 5210W        W21684  12.492  13.730  14.637 -0.2473  0.2464 -0.0012
 5211W        W21685   3.690  16.971   4.036 -0.4256  0.1150  0.0113
 5212W        W21686  12.609  14.510  15.275 -0.2448 -0.1502 -0.1168
 5213W        W21687   6.808  16.081   3.831 -0.1235 -0.1252 -0.1518
 5214W        W21688   3.866  10.292   3.671  0.0482 -0.1019 -0.1394
 5215W        W21689   6.853   9.353   4.698 -0.1804 -0.0549  0.1999
 5216W        W21690   1.932  11.737  13.017  0.1671  0.0653 -0.1120
 5217W        W21691  12.020   8.547  15.762  0.0165 -0.2946  0.0473
 5218W        W21692   4.532   5.464   5.929  0.2782 -0.1980  0.2877
 5219W        W21693   2.681   1.789  11.615 -0.1279 -0.2681 -0.1427
 5220W        W21694   4.339  13.350  14.978 -0.0564  0.0003 -0.2594
 5221W        W21695  15.499   5.841   0.520  0.0853  0.0611  0.0383
 5222W        W21696   6.627   4.532   6.018  0.0368 -0.0543 -0.2179
 5223W        W21697   2.381   8.921  15.192 -0.2753 -0.1265 -0.1907
 5224W        W21698   3.103   2.105  14.672  0.0070  0.0549 -0.0633
 5225W        W21699   0.368   2.935   3.133  0.1524 -0.2173  0.1608
 5226W        W21700   6.166   1.293  15.420 -0.4144 -0.0560  0.3272
 5227W        W21701   2.414  13.551   1.976  0.1848 -0.3633 -0.1602
 5228W        W21702   7.744  15.776   3.284 -0.1687 -0.0042 -0.1687
 5229W        W21703  14.121   7.655  14.080 -0.0264 -0.0104  0.2579
 5230W        W21704   4.912   1.317   4.267  0.0239 -0.0298  0.0559
 5231W        W21705   8.394   6.375   3.151 -0.1819 -0.1190  0.2167
 5232W        W21706   7.084   6.579  15.356 -0.1005 -0.2134  0.1771
 5233W        W21707  12.784   5.106   0.594  0.1415  0.2257 -0.0282
 5234W        W21708  10.674   7.521   1.428 -0.0949 -0.2364 -0.2552
 5235W        W21709  11.143   9.168   1.270  0.0354 -0.6743  0.0051
 5236W        W21710  12.032   2.170   0.189 -0.3861 -0.2044 -0.2927
 5237W        W21711   0.422   2.864  13.506  0.0210 -0.3099  0.2692
 5238W        W21712   6.603   5.734   3.217  0.0665  0.2189 -0.4396
 5239W        W21713  10.616  14.035   3.738  0.1913  0.0640 -0.0262
 5240W        W21714   4.533   5.070  15.768 -0.1749 -0.1017 -0.1639
 5241W        W21715  13.782  14.460  15.592  0.0772  0.0614  0.0601
 5242W        W21716   8.341  14.275  12.073 -0.0808  0.1424 -0.0513
 5243W        W21717  13.482  17.979   0.530  0.1348  0.3334  0.3135
 5244W        W21718  10.142  14.523   0.860  0.4303 -0.1485  0.1785
 5245W        W21719   1.702   2.044  16.642  0.1096  0.0066 -0.2570
 5246W        W21720  11.428   4.211  14.625 -0.1012 -0.3777  0.1826
 5247W        W21721   9.456  12.507  13.018  0.3169 -0.1301  0.0303
 5248W        W21722  12.293   2.854   1.233  0.1352 -0.1849 -0.0819
 5249W        W21723   4.359   8.823  16.547  0.1970  0.0664 -0.0565
 5250W        W21724   6.485   1.945   1.129  0.5004 -0.1409  0.0739
 5251W        W21725  12.131  10.663   5.275  0.0611 -0.0638 -0.0260
 5252W        W21726  10.443   4.772   2.376  0.0829  0.0553 -0.0932
 5253W        W21727  14.779  16.486   3.520 -0.0825  0.1187  0.4043
 5254W        W21728  14.859   1.897   2.193  0.0394 -0.3415  0.0348
 5255W        W21729   3.837  16.814  13.349 -0.2928 -0.1934  0.1997
 5256W        W21730   1.496   7.572  15.277  0.3746  0.3112 -0.1579
 5257W        W21731   7.913   3.418  14.858 -0.0534 -0.0086 -0.1920
 5258W        W21732  15.011   7.149  16.445 -0.3208  0.1704  0.4955
 5259W        W21733  17.937  17.143   1.428 -0.0415 -0.0799 -0.3154
 5260W        W21734  16.410  17.919  16.412 -0.1901  0.0783 -0.0743
 5261W        W21735  15.682   0.610   5.481  0.1673  0.0412  0.2168
 5262W        W21736   0.620   9.350  12.937 -0.1608  0.0778  0.0509
 5263W        W21737   4.206   1.652   5.963  0.0866 -0.1687 -0.2108
 5264W        W21738   0.744  15.537  12.786 -0.2709  0.1020  0.0461
 5265W        W21739   1.017   8.398  12.177 -0.1169  0.1398 -0.1252
 5266W        W21740  15.339   7.667  14.953  0.2806 -0.1675 -0.1203
 5267W        W21741  16.161   9.538  15.789 -0.1931 -0.0568  0.1140
 5268W        W21742   6.684  17.270   3.646  0.0025 -0.3128  0.4069
 5269W        W21743   0.944   2.714   2.062 -0.0182  0.1136 -0.1069
 5270W        W21744   8.653  11.868  12.153  0.3818  0.1458  0.0796
 5271W        W21745   1.275   5.744  15.133  0.0763  0.0690  0.4219
 5272W        W21746   5.177   8.033  15.376  0.2485  0.3721 -0.1282
 5273W        W21747   7.226   6.005  14.592 -0.1437  0.0672  0.1407
 5274W        W21748  16.642  16.685   1.403 -0.1095  0.2526 -0.2138
 5275W        W21749   2.096   6.046   4.583  0.1866 -0.3801 -0.0761
 5276W        W21750  14.739  15.105   5.254  0.0344  0.1905  0.0388
 5277W        W21751  10.885   1.258   3.459  0.4615  0.1154  0.0820
 5278W        W21752  14.025   9.570  14.637  0.0627 -0.3760 -0.1216
 5279W        W21753  15.730   4.211  12.765 -0.0496 -0.0313  0.3085
 5280W        W21754  16.366  10.543   1.017  0.3769  0.1328  0.1732
 5281W        W21755   7.714   3.660   4.774  0.0091  0.1584 -0.0499
 5282W        W21756   6.312   8.005   1.739  0.0581  0.1151 -0.2389
 5283W        W21757   1.812  15.832  11.722  0.2228  0.1120  0.0477
 5284W        W21758  17.561  10.763  14.814  0.4236 -0.1033  0.2567
 5285W        W21759   3.788  16.345   3.484 -0.0124  0.1046 -0.0565
 5286W        W21760  17.234   4.859  13.143  0.0750  0.3430 -0.1079
 5287W        W21761  13.190   1.478   1.302  0.0619 -0.1254  0.0603
 5288W        W21762   8.418   8.966   5.545 -0.2263  0.1239  0.0175
 5289W        W21763  14.196   3.391  13.249 -0.1130 -0.0564  0.3057
 5290W        W21764   0.787  13.440  16.147  0.1843 -0.2355 -0.2017
 5291W        W21765   0.531   9.035   5.244  0.0258  0.1495 -0.4530
 5292W        W21766   1.340   1.937   5.042  0.1715  0.0512 -0.0295
 5293W        W21767  15.110   2.043  11.561  0.0567  0.4439  0.0829
 5294W        W21768   4.247   5.815   3.014  0.1842 -0.0134 -0.0274
 5295W        W21769  13.816  15.944   0.398  0.1022  0.0684  0.0288
 5296W        W21770   3.605   7.706   5.736  0.0073 -0.4825 -0.0244
 5297W        W21771   4.630   2.556   3.624 -0.3622  0.1397  0.0292
 5298W        W21772   3.610  16.592   1.085  0.0917  0.0146 -0.1872
 5299W        W21773   8.507   9.243  13.338  0.0237 -0.3427  0.0167
 5300W        W21774   9.464  10.511   3.382  0.0273  0.1461 -0.3539
 5301W        W21775   5.778  11.505  13.374 -0.2165  0.0853 -0.0710
 5302W        W21776  11.466  11.351  13.605  0.0018 -0.2278  0.0152
 5303W        W21777   0.602   8.731   2.351  0.1221 -0.2393 -0.1727
 5304W        W21778   6.024   3.688   4.352 -0.0677  0.0531  0.2114
 5305W        W21779  12.699  17.341   4.345  0.0247 -0.2015  0.2166
 5306W        W21780  12.436   0.018  15.503  0.0071  0.1600 -0.0906
 5307W        W21781  10.743   1.508  16.762 -0.1889  0.1920  0.2447
 5308W        W21782  11.892   3.885   0.908  0.0735 -0.0157  0.3235
 5309W        W21783  10.139  10.856   4.152 -0.0470 -0.0785  0.1918
 5310W        W21784  17.348  16.799  10.647  0.1436  0.2699  0.4253
 5311W        W21785  13.879   3.796  16.170  0.2322  0.2416 -0.4611
 5312W        W21786  15.300  10.061   4.339 -0.1929 -0.0612  0.0540
 5313W        W21787   6.811   1.816  15.969  0.1396 -0.0825 -0.2731
 5314W        W21788   7.119  11.070   0.366  0.1988  0.4138 -0.2533
 5315W        W21789  10.085  13.465   2.976 -0.1204 -0.1236 -0.1675
 5316W        W21790   5.067  12.115  15.018 -0.0964  0.0313 -0.2846
 5317W        W21791  12.969  15.595   1.374 -0.2626  0.5085  0.2224
 5318W        W21792   6.650   1.970   5.020 -0.2569 -0.1377 -0.1355
 5319W        W21793  16.794  11.524  14.223 -0.4204  0.1864 -0.0956
 5320W        W21794   7.503   0.417  14.360  0.0048  0.0645 -0.0771
 5321W        W21795   5.151   5.806  15.512 -0.0121  0.0522 -0.0992
 5322W        W21796  16.832  16.438   4.732 -0.0265  0.2231 -0.0609
 5323W        W21797   9.584  12.180   2.817 -0.0450 -0.0776  0.3861
 5324W        W21798   4.669   3.799  12.756 -0.1234  0.2249 -0.2457
 5325W        W21799   0.645   6.019  14.025 -0.1274  0.0249  0.0734
 5326W        W21800  14.178  10.096  14.662  0.1575  0.1625 -0.0958
 5327W        W21801   4.838   1.942  15.499  0.0855 -0.1265 -0.2391
 5328W        W21802  15.700  10.343   4.574 -0.3833 -0.0243  0.2458
 5329W        W21803  10.683  15.060  16.430  0.2276 -0.5785 -0.2616
 5330W        W21804  17.312  16.528  13.663  0.3197 -0.1939  0.1575
 5331W        W21805   8.541   6.697   4.919 -0.2890 -0.1604 -0.2369
 5332W        W21806   4.255   4.655  16.304  0.0013  0.0976 -0.0441
 5333W        W21807   0.968  15.498   5.834  0.3681 -0.2415  0.1879
 5334W        W21808   5.669  13.612  16.059  0.0055  0.2163 -0.1791
 5335W        W21809   4.395   0.707   2.759 -0.1466 -0.3658 -0.0627
 5336W        W21810  16.711   2.118  12.586  0.0037  0.1615 -0.0528
 5337W        W21811  11.961   7.511  15.930  0.1524 -0.0816  0.1809
 5338W        W21812  12.378  17.273  15.415  0.0867 -0.0170  0.3243
 5339W        W21813   2.456  17.030   2.736  0.1873  0.0340 -0.0242
 5340W        W21814  13.699  11.806   1.273  0.0794  0.3089 -0.0767
 5341W        W21815   8.334   7.006   3.771 -0.2586  0.0781 -0.0459
 5342W        W21816  10.260   7.085   2.899 -0.0703  0.1201 -0.2063
 5343W        W21817   1.594  11.242  16.595  0.1458  0.0140 -0.1435
 5344W        W21818   0.830  14.127  13.517 -0.3542  0.0425 -0.1063
 5345W        W21819   3.610   5.870  16.631  0.2053  0.2245  0.2774
 5346W        W21820   2.301  13.811  13.637  0.0151 -0.3175  0.0633
 5347W        W21821   8.289  10.631   3.120 -0.0236 -0.3557  0.1739
 5348W        W21822   0.245   7.102  15.583  0.0983  0.0041 -0.1142
 5349W        W21823   4.912   3.315   1.486  0.0858 -0.0245 -0.0887
 5350W        W21824   8.377   5.048  13.340  0.1486  0.0110 -0.0468
 5351W        W21825   9.787   9.369  14.713 -0.1271 -0.0785  0.0486
 5352W        W21826  13.086   8.128  12.518  0.0516 -0.2441  0.1659
 5353W        W21827  17.195  17.087   5.401 -0.0875 -0.1007 -0.3222
 5354W        W21828  12.449   4.013   2.661 -0.2472  0.0481 -0.1992
 5355W        W21829   9.864   4.717  11.746  0.1530  0.1232 -0.3312
 5356W        W21830  15.815   2.986   4.979 -0.1070  0.1393  0.1008
 5357W        W21831  16.361   2.424   0.627  0.0981 -0.2155 -0.2792
 5358W        W21832  11.175  12.263   4.120 -0.2238  0.1498 -0.1165
 5359W        W21833   5.740  15.153   3.734 -0.0181 -0.1147 -0.3183
 5360W        W21834   0.829  16.500  13.363 -0.1777  0.2195  0.2382
 5361W        W21835  17.963   1.174   3.265  0.0612  0.0293 -0.0593
 5362W        W21836   5.347   6.084   5.877 -0.3047 -0.1328  0.0111
 5363W        W21837  11.050   6.665  15.140  0.1647 -0.0688  0.0552
 5364W        W21838   4.726  17.178   5.500 -0.1112 -0.1747  0.2778
 5365W        W21839   8.740   1.181   2.453 -0.4256  0.2541 -0.0591
 5366W        W21840   5.554   1.193   0.288  0.0531 -0.0249 -0.0004
 5367W        W21841   5.394   7.369   0.135 -0.1499  0.0028 -0.0923
 5368W        W21842   8.732  16.779  16.128 -0.0575  0.1888 -0.2405
 5369W        W21843  14.472  10.704   5.221  0.2498  0.1544  0.3870
 5370W        W21844  15.987  10.904  14.175 -0.0595  0.1480 -0.0098
 5371W        W21845  11.274  17.403  14.844 -0.0199 -0.0878  0.3823
 5372W        W21846  12.733   7.024   2.501  0.3065  0.1201 -0.2521
 5373W        W21847  17.517  13.866  13.442 -0.1644  0.0023  0.0946
 5374W        W21848   6.453   6.542   2.369  0.0508 -0.1450  0.0135
 5375W        W21849   4.506   1.994  14.499  0.0246 -0.1350  0.0558
 5376W        W21850   0.667   4.209   3.788  0.1625  0.0134 -0.2172
 5377W        W21851   6.655  15.259  16.211  0.1058 -0.0426 -0.1276
 5378W        W21852   0.609  11.920  11.216  0.1593  0.1725  0.0159
 5379W        W21853   8.811   2.233   6.138  0.1827 -0.4670  0.0222
 5380W        W21854  14.647   8.139   4.183 -0.2036  0.1572 -0.1016
 5381W        W21855   3.059  16.188   4.270 -0.0380  0.0077  0.0318
 5382W        W21856   6.118   9.308   2.129 -0.0112  0.2331 -0.1089
 5383W        W21857   4.181   9.939   3.933 -0.0027 -0.1236 -0.0743
 5384W        W21858  17.209  14.374  13.210  0.0082 -0.2994 -0.0845
 5385W        W21859   6.758   4.049  16.580 -0.3073 -0.1815  0.0720
 5386W        W21860   8.655   9.722   1.570 -0.1180  0.0084 -0.2345
 5387W        W21861   7.572   3.688  14.561  0.2113  0.2132  0.2018
 5388W        W21862   1.090  13.684  11.343  0.0830  0.3743 -0.0488
 5389W        W21863   8.289  10.088   1.471  0.0341 -0.3786 -0.1232
 5390W        W21864  15.905  14.444  12.902  0.0677  0.0483 -0.0905
 5391W        W21865  17.628   2.499  13.084  0.2812  0.2360  0.1068
 5392W        W21866  17.855   8.707  11.837 -0.2529 -0.0480  0.0525
 5393W        W21867   0.592   1.169  14.326 -0.1030 -0.2856  0.3496
 5394W        W21868  15.185  17.621   0.568  0.1089  0.3805  0.3703
 5395W        W21869  13.015  13.793  12.337  0.3227  0.0550  0.2061
 5396W        W21870   7.701   0.352   4.128  0.0027  0.0256  0.1690
 5397W        W21871   3.868   7.489   5.272  0.1226  0.2028  0.1994
 5398W        W21872  16.407   5.387   0.638  0.1954  0.3091 -0.1057
 5399W        W21873  11.869   9.039  15.980 -0.0090  0.0247 -0.0936
 5400W        W21874   8.262   8.137   0.968  0.0124 -0.0582 -0.0134
 5401W        W21875   3.283  16.266  15.930 -0.2028  0.2974  0.0258
 5402W        W21876   5.570   7.649  15.489  0.0116 -0.0065  0.0652
 5403W        W21877   3.873   3.100  15.312  0.1268 -0.1383 -0.1484
 5404W        W21878   8.002   5.043  16.545 -0.1930 -0.0130 -0.2182
 5405W        W21879   8.517  11.103  16.565 -0.0955  0.1992  0.0595
 5406W        W21880  11.748   9.001   4.347  0.2644 -0.2507 -0.1274
 5407W        W21881   3.902   0.542  16.682  0.2601  0.2075 -0.0410
 5408W        W21882   0.640   6.333  15.648 -0.1973 -0.0497  0.0776
 5409W        W21883  12.067   1.120  15.907  0.0371 -0.1854  0.3307
 5410W        W21884   9.321   2.040  11.806 -0.2061 -0.0070 -0.1166
 5411W        W21885   2.081  17.116   1.619 -0.0021  0.0066 -0.0485
 5412W        W21886  12.334   6.183   1.444  0.4251 -0.1152  0.1681
 5413W        W21887   6.939   8.595   1.254 -0.2341 -0.1200  0.4109
 5414W        W21888   5.115   8.264   2.348  0.1968  0.2623  0.0798
 5415W        W21889  10.000   8.299   0.921  0.2453  0.1010  0.2394
 5416W        W21890   0.693   5.392  15.235 -0.0192  0.1815 -0.0170
 5417W        W21891  13.378   3.126   4.857  0.4669 -0.0282 -0.3642
 5418W        W21892   4.781   7.842  13.205 -0.1044  0.1431  0.1781
 5419W        W21893   9.772   8.469  13.740 -0.1434 -0.0501  0.0575
 5420W        W21894   3.860   9.904   5.127 -0.1356 -0.0553  0.0077
 5421W        W21895   3.422  12.343   3.807 -0.0296  0.1531 -0.0081
 5422W        W21896   8.240  16.032  16.597 -0.2123  0.1472 -0.4040
 5423W        W21897   1.246   1.027  13.637  0.1078  0.1372  0.1481
 5424W        W21898  16.748   8.257   2.731  0.0687  0.4652 -0.3962
 5425W        W21899   2.166  15.377  15.544 -0.1843 -0.3558 -0.2263
 5426W        W21900  12.925   9.572   0.885 -0.0198 -0.1134  0.1729
 5427W        W21901  16.890   8.213   4.721  0.1651 -0.0269 -0.2561
 5428W        W21902   5.259  10.773   0.562 -0.1055  0.0705 -0.2123
 5429W        W21903  10.219  15.046   2.471  0.0914  0.2083  0.0036
 5430W        W21904  13.105   6.274   6.184 -0.0339 -0.0232  0.0614
 5431W        W21905   3.950  10.359   5.300 -0.3604 -0.1903  0.1463
 5432W        W21906  10.104   4.268   3.178 -0.1927  0.0590  0.0142
 5433W        W21907  16.860   4.854  15.295 -0.0106 -0.1416  0.4871
 5434W        W21908  14.542   7.216   0.693 -0.1664 -0.2808 -0.1131
 5435W        W21909   7.423   2.618  13.727  0.0836 -0.1810  0.1489
 5436W        W21910  14.670  12.033  12.563  0.2271 -0.2021 -0.2344
 5437W        W21911  12.300   7.970  14.884  0.3250  0.1797  0.2458
 5438W        W21912   0.949  14.325   2.833  0.1140  0.0238 -0.1782
 5439W        W21913   5.260  14.445  13.795 -0.2377  0.1413 -0.0320
 5440W        W21914   9.562   6.830  12.246  0.1017  0.3313 -0.3146
 5441W        W21915   5.938   5.807  11.659  0.4602 -0.1935  0.1087
 5442W        W21916   8.036  15.078  12.593  0.0207 -0.3407  0.0552
 5443W        W21917   0.807   0.713   3.276 -0.2220 -0.3238  0.2013
 5444W        W21918  10.153  12.163   2.676 -0.2026  0.0006 -0.1655
 5445W        W21919  15.979   1.715   2.640  0.4303 -0.4027  0.0492
 5446W        W21920   2.806   0.473  11.773  0.0255  0.2135 -0.0510
 5447W        W21921  12.757   6.409  14.138 -0.0130  0.1486 -0.2100
 5448W        W21922   7.737  17.380   5.437 -0.0198  0.2335 -0.0272
 5449W        W21923   9.776   9.449   4.857  0.1388 -0.0978 -0.2983
 5450W        W21924  11.075  15.162   3.853 -0.3393 -0.0408 -0.1578
 5451W        W21925   1.507   2.021  13.369 -0.0229  0.0929  0.0104
 5452W        W21926  16.127  15.037   1.506  0.0115  0.4717 -0.1455
 5453W        W21927  16.920  17.880   5.027 -0.1079 -0.1813  0.0408
 5454W        W21928   6.562   6.131   0.946 -0.1872  0.1842 -0.2282
 5455W        W21929  13.060  14.979  13.740 -0.0257  0.0472 -0.0122
 5456W        W21930   9.375   3.638   1.130 -0.1050 -0.1775 -0.2106
 5457W        W21931   9.802  12.351   4.284 -0.0519  0.1434 -0.0539
 5458W        W21932   3.372   3.460  12.209 -0.1966 -0.1783 -0.1744
 5459W        W21933   7.683   5.034   1.456 -0.1992  0.1257  0.0433
 5460W        W21934   3.721   1.522   4.139  0.0802 -0.0085 -0.1402
 5461W        W21935  14.148  15.071   4.536 -0.0315 -0.0741 -0.1110
 5462W        W21936  12.121   3.767   3.821 -0.0890 -0.4142  0.1116
 5463W        W21937   3.237   9.572   0.303 -0.2116  0.0150  0.1550
 5464W        W21938   8.669   9.889  15.742  0.0858 -0.3071 -0.0012
 5465W        W21939  16.449  14.458  14.266  0.1072 -0.0962 -0.0896
 5466W        W21940  15.278   1.667   2.080  0.0464 -0.0908  0.1361
 5467W        W21941   1.256   4.643   6.083  0.2822 -0.1486  0.0815
 5468W        W21942   1.792  13.368   1.375  0.0510  0.0781 -0.1392
 5469W        W21943   8.614  14.637   4.769 -0.0523 -0.2214  0.3293
 5470W        W21944  11.736   8.333   2.629 -0.0908  0.0835 -0.0247
 5471W        W21945  15.306  11.640  14.392  0.1460  0.3597 -0.0463
 5472W        W21946   8.731  13.148   0.595  0.1280  0.2658 -0.4721
 5473W        W21947  14.235   7.351   2.513  0.0951 -0.0796 -0.0683
 5474W        W21948  17.246  14.038  14.234  0.3106  0.0783 -0.4538
 5475W        W21949   7.701   4.585   3.856 -0.0514 -0.1049  0.2769
 5476W        W21950   3.488  13.788  14.371  0.0993  0.1193  0.0083
 5477W        W21951  16.896  12.827   1.931 -0.1408  0.2436 -0.1409
 5478W        W21952   0.707  13.150  13.982 -0.1339  0.2397 -0.0774
 5479W        W21953  14.871  12.916  14.458  0.1489 -0.2043 -0.0185
 5480W        W21954   3.841  10.763   1.627 -0.0080 -0.0490 -0.0753
 5481W        W21955  13.411  16.566  12.283  0.1175  0.1560 -0.2122
 5482W        W21956  10.946  13.396   0.675 -0.2145  0.2077  0.0485
 5483W        W21957   9.719  15.115  14.713  0.1993  0.1840 -0.0825
 5484W        W21958   5.253  12.879  14.970  0.0125 -0.2891 -0.0058
 5485W        W21959  13.353  17.075   6.566 -0.0966  0.6455  0.2807
 5486W        W21960  11.274  15.891   1.564  0.0198  0.0676 -0.0961
 5487W        W21961   5.103  11.361  14.621  0.1156 -0.0184 -0.2245
 5488W        W21962   1.670   7.830   1.028 -0.1646 -0.0256 -0.3801
 5489W        W21963   1.273  13.797   4.910 -0.1539  0.0864 -0.3962
 5490W        W21964  11.318  17.704  11.245 -0.1526 -0.2205  0.2783
 5491W        W21965  15.492  13.474  13.158  0.1055 -0.2300  0.1436
 5492W        W21966   2.639  17.287  14.897  0.0389 -0.0899  0.2422
 5493W        W21967  14.945   9.534   0.938 -0.1877 -0.2435  0.0608
 5494W        W21968  15.811  17.319   1.666  0.3025 -0.0237 -0.3200
 5495W        W21969   7.873   7.385   4.699  0.1803  0.0582  0.1728
 5496W        W21970  13.741  11.686  11.756 -0.2519 -0.1748  0.0107
 5497W        W21971   2.064   0.855   2.259  0.0783 -0.2801 -0.1185
 5498W        W21972   1.127  14.717  15.440  0.3719 -0.0743  0.0046
 5499W        W21973   1.866  14.108  15.382  0.0101  0.0266  0.1893
 5500W        W21974  12.528   0.312   2.181 -0.0584 -0.1566  0.1626
 5501W        W21975  11.342  15.895   5.608 -0.0429  0.1602  0.2802
 5502W        W21976   8.803  17.097  14.208  0.1876  0.0224  0.1916
 5503W        W21977  16.311   1.313  15.544 -0.4708  0.0003 -0.0598
 5504W        W21978   7.163   4.584  10.802  0.0371  0.0040  0.0373
 5505W        W21979  15.420   9.096   3.437  0.2155 -0.0994  0.4013
 5506W        W21980  14.353  14.646   1.473 -0.1778 -0.1858  0.2726
 5507W        W21981  16.081  13.446   2.949  0.1327 -0.3235 -0.2796
 5508W        W21982   5.236  14.235   1.720  0.1910  0.0305 -0.0451
 5509W        W21983   6.391   8.995  13.493  0.1546  0.0757  0.0629
 5510W        W21984   4.523   2.520  14.967  0.0249  0.0047  0.2484
 5511W        W21985   3.493   9.191  11.429  0.1474 -0.1871  0.4507
 5512W        W21986  15.535   6.599   4.253 -0.1119  0.2323  0.0296
 5513W        W21987  12.697   6.663  14.677 -0.0486 -0.4333 -0.0756
 5514W        W21988  12.811   2.040   4.472 -0.3023 -0.0672  0.0284
 5515W        W21989  14.202   1.385   2.210 -0.5313 -0.0484 -0.1206
 5516W        W21990  10.586   5.706  13.162 -0.2722 -0.1461  0.0856
 5517W        W21991   2.800   1.454   4.306  0.2320 -0.2052 -0.2249
 5518W        W21992   9.264   9.329  14.951  0.0336 -0.0673 -0.2962
 5519W        W21993   2.016  13.940  16.718 -0.1646 -0.1359  0.0791
 5520W        W21994  17.467  10.496   2.910  0.1278  0.1402  0.2615
 5521W        W21995   5.505   7.100  15.516  0.1221 -0.0600  0.2177
 5522W        W21996  13.574   7.720  15.361 -0.1440  0.0040  0.0539
 5523W        W21997   3.698  16.575  14.621 -0.3366 -0.0917 -0.0331
 5524W        W21998  13.207   0.182   4.693 -0.2440 -0.0777 -0.0590
 5525W        W21999   5.944   9.567   5.243  0.0948 -0.1532 -0.0158
 5526W        W22000  16.442  16.885  12.165  0.1903  0.0926  0.0627
 5527W        W22001  11.978   7.658   0.932 -0.0655  0.1038 -0.0134
 5528W        W22002   2.872  13.402   4.049  0.0264  0.0451 -0.0556
 5529W        W22003   3.079  13.503  14.379 -0.0711 -0.0574 -0.1994
 5530W        W22004   4.837  17.339  15.144 -0.1174  0.0520  0.0321
 5531W        W22005   6.635   9.146   2.938 -0.1340 -0.1115 -0.0766
 5532W        W22006  12.001  11.233   0.566  0.3388  0.1644 -0.4438
 5533W        W22007   2.179  11.197   4.274 -0.1392  0.0501 -0.1345
 5534W        W22008  14.912   9.637  12.319 -0.0671  0.0287 -0.0820
 5535W        W22009   4.482   1.314  15.730 -0.2748  0.0080 -0.1042
 5536W        W22010  10.760   6.022   2.924  0.2497  0.0181  0.0093
 5537W        W22011  14.234  16.248  16.043  0.3007  0.0574  0.0015
 5538W        W22012  12.437   5.507   0.427 -0.4686 -0.1229 -0.0401
 5539W        W22013   5.197  15.184   1.711  0.0540  0.0884 -0.0381
 5540W        W22014  12.483  14.203  14.896 -0.0407  0.0449 -0.2999
 5541W        W22015   2.268   4.454  14.294 -0.0485 -0.4049 -0.3180
 5542W        W22016   9.171   0.795  15.440 -0.0044 -0.0940 -0.2297
 5543W        W22017   7.415   5.134  13.480  0.1457 -0.0397 -0.3217
 5544W        W22018   6.763   1.052  14.033  0.1517 -0.0576  0.1264
 5545W        W22019   0.610   3.076  12.731  0.0120  0.1334  0.3073
 5546W        W22020  14.771   3.534  16.385 -0.1689 -0.2409  0.2554
 5547W        W22021   4.880   1.781   3.349 -0.0130  0.0322 -0.0000
 5548W        W22022   3.210  12.642   1.529 -0.0717 -0.0097  0.0325
 5549W        W22023  13.067   6.385   0.178  0.1645  0.0584 -0.0241
 5550W        W22024   6.508   3.568   5.117 -0.0141 -0.0555 -0.0703
 5551W        W22025  16.203  17.120  15.370  0.0133 -0.1893 -0.0212
 5552W        W22026  17.858   8.563   2.819  0.2440 -0.1085  0.0920
 5553W        W22027  14.641   2.372  13.575 -0.0155  0.2072  0.1004
 5554W        W22028   7.615   7.107   5.223 -0.2305 -0.2127  0.2325
 5555W        W22029   9.916   8.056  15.921 -0.2655 -0.0106 -0.0040
 5556W        W22030  17.192  17.493   5.927  0.0360 -0.0859  0.2426
 5557W        W22031  13.981  12.786   4.137 -0.0578 -0.1066  0.2137
 5558W        W22032   9.584   6.573  16.312 -0.0870  0.0027 -0.2270
 5559W        W22033   5.616   4.993   4.254 -0.0712  0.1877 -0.2161
 5560W        W22034   0.280   7.121   3.484  0.2076 -0.1841 -0.0627
 5561W        W22035   4.980   6.956   0.161  0.0430 -0.2237  0.0436
 5562W        W22036  12.705   3.456   0.751  0.1845 -0.0143 -0.0821
 5563W        W22037   9.485  11.415   0.774  0.2650  0.0838  0.4483
 5564W        W22038   8.352   3.863   3.610 -0.2645 -0.2202 -0.0454
 5565W        W22039  12.449   8.385   4.448 -0.1592  0.1762  0.1628
 5566W        W22040  15.781  12.779  12.904 -0.1479  0.1530 -0.2483
 5567W        W22041   4.676   5.061   2.765 -0.0104 -0.1235 -0.2333
 5568W        W22042   4.581   8.660   3.455  0.2665  0.1933 -0.2649
 5569W        W22043   4.683   3.709  12.290  0.0910  0.3871  0.3001
 5570W        W22044   9.156   6.857   3.458 -0.0871  0.1785 -0.0823
 5571W        W22045  13.253  14.428   6.200  0.2033 -0.1817  0.1613
 5572W        W22046  17.592  16.697  13.137 -0.3023 -0.0390 -0.2432
 5573W        W22047  10.641  16.852  13.933  0.1129 -0.1914 -0.2641
 5574W        W22048   3.737   3.210   5.187 -0.1224  0.0099  0.1450
 5575W        W22049  16.382   5.351  13.140  0.2110 -0.2435 -0.2204
 5576W        W22050   2.500   9.620   1.160 -0.1069  0.2107  0.5062
 5577W        W22051  15.979   9.174  14.988 -0.0562 -0.1436 -0.1775
 5578W        W22052  15.246   8.133   5.461 -0.1250  0.2254  0.0221
 5579W        W22053  16.470  13.784   2.913  0.4515  0.1316 -0.1426
 5580W        W22054   6.820   6.560   4.916 -0.2140  0.0895 -0.1539
 5581W        W22055   8.863  15.951  15.574 -0.0132  0.1106  0.0010
 5582W        W22056  12.190  17.678   2.810  0.2365  0.0341 -0.3018
 5583W        W22057  17.790  16.711  15.792 -0.1071 -0.3989 -0.2866
 5584W        W22058   3.327   0.214   2.613 -0.1371  0.4073  0.2178
 5585W        W22059  17.873   1.524   0.108  0.1555  0.0492  0.1279
 5586W        W22060   1.024  16.006   2.233  0.1324  0.2975 -0.1112
 5587W        W22061   3.993   8.004   4.524  0.1200  0.1778 -0.0995
 5588W        W22062  16.909   3.593   5.903  0.2032  0.0758  0.0423
 5589W        W22063   7.849   3.626  13.951  0.1480  0.2300 -0.1909
 5590W        W22064   9.010   8.884   3.736  0.0138 -0.0458 -0.0261
 5591W        W22065   5.478   0.670  14.101  0.0411  0.0055 -0.0961
 5592W        W22066  10.284  14.735   4.241 -0.0985 -0.1626  0.3547
 5593W        W22067   7.453   7.374   0.751  0.0018  0.1576  0.3286
 5594W        W22068   6.306   2.412  13.651  0.2032 -0.2874 -0.1688
 5595W        W22069   3.090  14.382  12.707  0.1514  0.1912 -0.1802
 5596W        W22070  12.689   2.753  12.772 -0.0524 -0.1505  0.1005
 5597W        W22071   8.086  14.065   3.067  0.3740 -0.0874  0.2686
 5598W        W22072  12.589   7.898   6.632 -0.4874  0.2676  0.2863
 5599W        W22073  13.595  15.480   1.586  0.0250 -0.2077  0.0606
 5600W        W22074   3.223  14.911  14.022 -0.0374  0.1328  0.2795
 5601W        W22075   0.850   4.214  12.252 -0.2109  0.0250  0.1105
 5602W        W22076  10.349   3.875   4.406 -0.0769 -0.0420 -0.2616
 5603W        W22077   4.054   3.954   3.071 -0.1719 -0.0420 -0.0573
 5604W        W22078   5.924   3.796   5.113 -0.2891  0.4073 -0.0245
 5605W        W22079   8.168   5.564  12.561 -0.0565  0.1354 -0.0413
 5606W        W22080  17.090  10.432  13.002  0.1160 -0.1995  0.0592
 5607W        W22081  13.606  16.323   5.467 -0.2219  0.0882  0.2145
 5608W        W22082  15.868   3.907   5.060  0.2957 -0.0788 -0.1858
 5609W        W22083  11.820   1.032  15.413  0.1454 -0.0597 -0.2810
 5610W        W22084   8.886   6.603  15.643 -0.2626  0.2115 -0.0214
 5611W        W22085   1.053   3.363   0.835  0.0803  0.0627 -0.1562
 5612W        W22086  15.823   8.081  11.458  0.0989 -0.0215 -0.0312
 5613W        W22087  10.441  15.903   0.395  0.0436 -0.3237  0.1403
 5614W        W22088   0.208  16.235  11.712  0.1229 -0.3679  0.0637
 5615W        W22089  12.139   1.331   2.628  0.3808 -0.0268 -0.0239
 5616W        W22090  10.320   0.323   2.331 -0.0198  0.2948 -0.0559
 5617W        W22091   5.519   2.149  13.499  0.1282 -0.0620 -0.0495
 5618W        W22092  13.200   8.867   1.214  0.0118  0.2308 -0.2400
 5619W        W22093  15.967   1.483  12.624 -0.0588  0.1203 -0.0516
 5620W        W22094   0.559   9.702  11.517 -0.0823  0.1789  0.3950
 5621W        W22095  13.418  12.026   0.043  0.0878  0.2157  0.0135
 5622W        W22096  15.419  17.669   1.581 -0.0659 -0.2814  0.4065
 5623W        W22097   1.074   4.619   0.190 -0.1547 -0.0881  0.1527
 5624W        W22098   2.109  17.361   6.480 -0.1651 -0.0410 -0.4100
 5625W        W22099  10.987  11.054  11.985  0.1062  0.1729  0.0610
 5626W        W22100  15.979   7.314   3.348 -0.1430  0.2156  0.1642
 5627W        W22101   6.879   8.773   0.658  0.0522  0.0415  0.1930
 5628W        W22102   0.728   5.215  14.705  0.2682  0.0749 -0.0850
 5629W        W22103  12.035   6.665   1.484  0.2264  0.0600 -0.1062
 5630W        W22104   3.309  11.154  16.141 -0.3157  0.1887 -0.0709
 5631W        W22105   8.362   8.843  11.488 -0.0153  0.0862 -0.0045
 5632W        W22106   4.173   6.258   3.211 -0.0054  0.3789  0.1154
 5633W        W22107   3.676   4.211  13.524 -0.1865 -0.0908  0.0115
 5634W        W22108  13.265  11.100   3.478 -0.4847 -0.0441 -0.3694
 5635W        W22109   9.227   4.785   1.188  0.0507  0.3874  0.0939
 5636W        W22110   9.886  11.759   0.292  0.5152  0.3543 -0.3074
 5637W        W22111  11.597  15.416   6.306  0.1560  0.0632 -0.1338
 5638W        W22112  17.436  16.156   3.325  0.0312 -0.2342  0.1471
 5639W        W22113   5.146   9.800  12.041 -0.1141  0.1147  0.0325
 5640W        W22114  12.949   7.757   1.203 -0.1415 -0.2779 -0.0242
 5641W        W22115  10.212  14.223  13.068 -0.1439 -0.0424  0.1369
 5642W        W22116  12.502   3.275  10.992  0.0120 -0.2051  0.3360
 5643W        W22117  17.737   9.458   1.946 -0.1755 -0.1130  0.2151
 5644W        W22118   4.515   2.422  15.558  0.0105  0.1346 -0.2998
 5645W        W22119  16.995   9.144  15.732  0.3809  0.1068  0.0321
 5646W        W22120  17.353   2.102  12.002  0.1281  0.0576 -0.0972
 5647W        W22121   8.196   1.925  11.489 -0.1645  0.0729  0.1991
 5648W        W22122   5.731   1.752   4.320  0.0268  0.1452 -0.0246
 5649W        W22123  17.521  12.332   3.082  0.0039  0.0858 -0.1962
 5650W        W22124  17.460   9.173  14.825  0.3168 -0.2195 -0.0362
 5651W        W22125   1.367  11.597  11.654  0.0187 -0.0808 -0.2002
 5652W        W22126   1.072   1.615  16.448 -0.0194 -0.1006  0.2873
 5653W        W22127  15.184   5.065  12.683  0.3542  0.2727  0.1024
 5654W        W22128   5.414   9.569  12.781 -0.2960  0.0963 -0.2302
 5655W        W22129   3.171  11.679   3.134  0.3828 -0.0330  0.0047
 5656W        W22130   9.890  15.190  14.204 -0.1246 -0.0864 -0.3858
 5657W        W22131  13.326   8.873  12.809  0.0353 -0.1028 -0.1859
 5658W        W22132  13.152  10.161   5.068 -0.3339 -0.1317  0.3523
 5659W        W22133   1.811   7.393  12.826  0.3639  0.2418  0.3264
 5660W        W22134  17.437   2.414   2.778  0.0908 -0.1694 -0.2370
 5661W        W22135   6.238   3.193  12.786 -0.6468 -0.0503  0.1768
 5662W        W22136  14.545   0.414  14.540  0.1247  0.1875  0.1546
 5663W        W22137   7.665  15.742  11.795 -0.3337 -0.0258 -0.3952
 5664W        W22138  14.605   0.270  13.920  0.0259 -0.1215 -0.0478
 5665W        W22139   3.900  12.808   0.960  0.1093 -0.2719  0.1194
 5666W        W22140  17.162   9.041  15.280  0.1139  0.0697  0.1210
 5667W        W22141  15.043  11.673   4.149  0.1577 -0.1028 -0.0938
 5668W        W22142   5.454  16.246  12.900  0.1733 -0.0057  0.1182
 5669W        W22143  11.052   4.569  14.377 -0.1764  0.2513  0.2139
 5670W        W22144   8.649   3.025  15.696  0.0976  0.0851 -0.0703
 5671W        W22145   9.352   3.276  12.806 -0.2576  0.2337 -0.0424
 5672W        W22146  10.212  17.289  11.825 -0.1459 -0.2207 -0.0252
 5673W        W22147  14.430  14.183   0.411 -0.3600  0.1526  0.1613
 5674W        W22148  13.055   8.004  16.558  0.0202 -0.3919  0.4713
 5675W        W22149  13.570   5.033   1.165  0.2346  0.0481 -0.0189
 5676W        W22150   5.112  11.907   4.583 -0.3452 -0.1358  0.1517
 5677W        W22151   8.553   1.306   5.446  0.0412 -0.2305  0.1052
 5678W        W22152  16.852  11.236  16.757  0.1082 -0.2114 -0.1021
 5679W        W22153  16.601  12.711   1.480 -0.3724  0.0520  0.2105
 5680W        W22154  17.196  10.953  11.817  0.1580  0.0187 -0.1061
 5681W        W22155  12.415  13.629  14.086 -0.0250 -0.1380 -0.0782
 5682W        W22156   1.926   4.786   1.199 -0.3185  0.0863 -0.3300
 5683W        W22157  16.882   4.910  14.177  0.0737 -0.2957  0.1324
 5684W        W22158  11.630   0.967  16.718 -0.1153 -0.2161 -0.2500
 5685W        W22159   0.370   5.952   3.501 -0.1751 -0.2211 -0.0484
 5686W        W22160  17.998  13.530  16.525  0.1034  0.0866 -0.2015
 5687W        W22161  17.754  13.281   4.487 -0.0132 -0.1404  0.2961
 5688W        W22162  14.476  11.698   4.424 -0.1075  0.2978  0.0488
 5689W        W22163   7.097  10.594  11.647  0.0705  0.0787  0.1531
 5690W        W22164   8.788  12.938   1.051 -0.2192 -0.1709  0.0271
 5691W        W22165   1.196  12.568   0.138 -0.0863 -0.1107 -0.0431
 5692W        W22166  12.050   6.395   4.528 -0.1468  0.1014 -0.0457
 5693W        W22167   6.503  13.191   0.838  0.0058 -0.0246  0.2768
 5694W        W22168  11.344   9.104   1.756  0.4290  0.0653  0.0635
 5695W        W22169  11.861   5.551  14.255 -0.0318 -0.1360  0.0822
 5696W        W22170   8.727  12.387   2.931 -0.0557 -0.0438 -0.0188
 5697W        W22171  12.783  14.791   6.450 -0.0808 -0.0719  0.0298
 5698W        W22172   1.071   6.241  14.891 -0.2012 -0.1835  0.1513
 5699W        W22173  10.177  11.026   2.984 -0.3582  0.4032  0.0053
 5700W        W22174  15.684  11.598  13.445 -0.2637 -0.0533  0.1264
 5701W        W22175   5.621   2.355  13.028  0.2519 -0.0025  0.1829
 5702W        W22176   7.536  16.516  14.988 -0.2133  0.0024 -0.1075
 5703W        W22177   4.163  11.572  13.072 -0.1550 -0.0555  0.2904
 5704W        W22178   0.281   9.668   2.214 -0.1531 -0.1025  0.1421
 5705W        W22179   8.306   9.450   3.350 -0.0342 -0.1578 -0.0429
 5706W        W22180  12.620  16.665   0.598 -0.0044 -0.0342 -0.0044
 5707W        W22181   2.199  16.242  15.518  0.0392 -0.0084 -0.1186
 5708W        W22182  10.474  16.840  11.919 -0.1727 -0.0220 -0.0926
 5709W        W22183   1.274  13.455   3.416  0.0429  0.2002 -0.0724
 5710W        W22184   4.264  13.827  12.503 -0.1735  0.0499 -0.3781
 5711W        W22185   0.215  16.679  12.052 -0.2159 -0.1797  0.0469
 5712W        W22186   8.711   5.807  15.843 -0.0085  0.1740  0.1376
 5713W        W22187   7.201   8.022  16.107 -0.0857 -0.1144 -0.1567
 5714W        W22188  12.599  16.043   0.550  0.3240 -0.0811  0.2987
 5715W        W22189  15.249   2.925   5.300 -0.1997  0.2173 -0.2885
 5716W        W22190   9.517  14.283  11.454  0.0755  0.0033 -0.0298
 5717W        W22191  11.587   1.805   1.824  0.2211 -0.0140  0.1442
 5718W        W22192  16.307   8.744   1.857  0.0077 -0.0649  0.0736
 5719W        W22193  14.503   5.953   5.064 -0.0737  0.0684 -0.1479
 5720W        W22194   3.924   6.946  12.484 -0.0565 -0.1628  0.1590
 5721W        W22195   4.143   8.418   0.660 -0.2470 -0.1216 -0.1428
 5722W        W22196  11.457   5.690  12.661  0.0068 -0.3265  0.1186
 5723W        W22197   6.704  10.592   2.700 -0.0036  0.2141 -0.1333
 5724W        W22198   2.626  10.030   3.072  0.0632 -0.0068  0.2802
 5725W        W22199   3.167  11.198   3.039  0.1966 -0.0568 -0.3116
 5726W        W22200   0.316   9.216   0.424 -0.1962 -0.0531  0.0732
 5727W        W22201   6.464  17.834  11.780  0.0134  0.1206  0.1793
 5728W        W22202   3.951   4.930  13.846  0.0503 -0.0509 -0.2856
 5729W        W22203   2.745   4.212   4.681  0.3442 -0.0274  0.1481
 5730W        W22204   3.463  13.249  10.193 -0.0632  0.2409  0.0162
 5731W        W22205   9.520   2.115   0.771  0.2463 -0.2971 -0.0487
 5732W        W22206  10.574   0.786  11.746  0.3264  0.3031 -0.0690
 5733W        W22207   5.407   7.800   2.269 -0.0009  0.0654  0.0059
 5734W        W22208  15.591  13.895  13.678 -0.0414 -0.0141  0.0000
 5735W        W22209  16.691  17.083   3.638  0.1020  0.2444  0.0713
 5736W        W22210  15.045  12.881  15.771 -0.0790 -0.1808  0.1001
 5737W        W22211   0.608   4.652  14.685 -0.5367  0.0146  0.0524
 5738W        W22212  17.994  11.937  14.909 -0.1048  0.1188 -0.2000
 5739W        W22213   9.991  12.415   3.067 -0.1608  0.1943 -0.0881
 5740W        W22214  14.120  15.321   3.307  0.0436  0.1895  0.0443
 5741W        W22215  11.352  14.971  12.612 -0.0651 -0.0786 -0.0590
 5742W        W22216  16.645   5.476   1.772  0.1046  0.0220 -0.0559
 5743W        W22217   0.602  11.207  15.020 -0.1266 -0.3062  0.0120
 5744W        W22218   8.936   9.750   0.797 -0.0540  0.1800  0.2766
 5745W        W22219   8.223   2.400  13.380 -0.0565 -0.1353  0.0488
 5746W        W22220   2.569   6.614  14.929  0.1251  0.4724  0.1775
 5747W        W22221   7.424  12.009  14.876 -0.0531  0.1633  0.0571
 5748W        W22222  10.972   5.231   6.327 -0.1900  0.0466  0.0387
 5749W        W22223  17.415   4.555   3.681 -0.4090 -0.0989 -0.2243
 5750W        W22224   1.589  13.562  14.065 -0.0752 -0.0440 -0.0201
 5751W        W22225   9.026  10.025  12.491 -0.0145  0.1475 -0.0164
 5752W        W22226   6.482   8.455   2.207 -0.0432 -0.1408 -0.1769
 5753W        W22227   5.186  10.313  12.107 -0.4395 -0.1344 -0.2161
 5754W        W22228  16.674  12.110  11.706  0.1234 -0.2298  0.2741
 5755W        W22229   6.305  14.559   2.488  0.0656 -0.0778  0.0031
 5756W        W22230  16.526  12.998   0.711 -0.1460 -0.2775  0.1031
 5757W        W22231  11.941  13.338   1.915 -0.0957  0.0013 -0.0211
 5758W        W22232  13.911  14.543   5.255  0.1267 -0.0311  0.1189
 5759W        W22233  10.151   4.279  14.607  0.2575  0.3146 -0.0584
 5760W        W22234   6.665  17.666   4.686  0.1186  0.1076 -0.2145
 5761W        W22235  17.549  15.156  12.689 -0.0545  0.3929  0.1454
 5762W        W22236  11.132   9.876   1.156 -0.2250  0.1904 -0.0672
 5763W        W22237   8.265  11.940  11.827 -0.0608  0.0021 -0.2048
 5764W        W22238   0.132  16.912   1.935 -0.0448  0.1623 -0.0029
 5765W        W22239   3.645   3.881  13.117 -0.1445  0.0541  0.1909
 5766W        W22240   8.626  11.926   5.778 -0.0903  0.4695  0.1632
 5767W        W22241   3.788  17.965   2.801  0.0839 -0.0861 -0.0718
 5768W        W22242  15.043   5.989   1.925  0.1850  0.2044  0.1894
 5769W        W22243   7.059   2.633  14.183 -0.0640 -0.5193 -0.0023
 5770W        W22244   2.687   1.047   4.079  0.1116  0.2238 -0.2786
 5771W        W22245   1.702   9.473  11.902  0.0104  0.2760 -0.1077
 5772W        W22246  10.245   4.439   4.924 -0.4258 -0.1015 -0.0983
 5773W        W22247  12.875   3.339   2.922  0.1915  0.1736  0.1249
 5774W        W22248  11.078   8.812   0.878  0.0151 -0.3212 -0.1648
 5775W        W22249  13.450   4.781  16.245 -0.1252  0.0403 -0.1254
 5776W        W22250  17.667   0.551   1.165  0.0939  0.0026  0.0139
 5777W        W22251   6.390  10.034  12.086 -0.3406  0.1898  0.0024
 5778W        W22252  14.465   9.456  16.781  0.1079 -0.0505 -0.1897
 5779W        W22253  15.990  13.044   0.642  0.4224 -0.2004 -0.2433
 5780W        W22254  10.429   6.963   4.939  0.5432  0.1425  0.0013
 5781W        W22255  14.645   7.379   3.223 -0.0028  0.2195 -0.0388
 5782W        W22256   6.748   9.912   3.539 -0.1759 -0.0626  0.3621
 5783W        W22257   5.386   1.225  14.418  0.0277 -0.0185  0.2266
 5784W        W22258   4.050   1.623  13.310 -0.2271 -0.4427 -0.1802
 5785W        W22259  16.566  11.052   2.000  0.1922 -0.1831  0.2184
 5786W        W22260  14.490  16.213   3.171  0.3364 -0.0308  0.1407
 5787W        W22261  12.303   3.130  16.154  0.0162  0.0838 -0.1060
 5788W        W22262   8.373   8.664   3.098  0.1459 -0.1150 -0.0939
 5789W        W22263  13.775  12.649  15.728  0.1463  0.1465  0.2075
 5790W        W22264   0.648  11.350  15.807 -0.1240  0.0114  0.1185
 5791W        W22265  17.545  10.125   6.271  0.1764  0.1276 -0.5396
 5792W        W22266   9.879   5.075  13.144 -0.2148 -0.3376  0.1247
 5793W        W22267   9.050   4.715  15.454 -0.1707  0.3902  0.1741
 5794W        W22268   1.043  13.241  16.546 -0.0764 -0.1570 -0.1357
 5795W        W22269  13.077   0.405  11.776 -0.2416  0.0711  0.1091
 5796W        W22270   4.257   2.848   4.905  0.1130  0.1627 -0.1056
 5797W        W22271  12.940   4.148  12.571 -0.2419  0.4133 -0.1349
 5798W        W22272   6.619  14.374  13.645 -0.3106 -0.0045  0.0175
 5799W        W22273   9.342  13.568   5.491  0.1097 -0.1465 -0.1924
 5800W        W22274   8.535   5.884   0.679  0.1682  0.0265 -0.2061
 5801W        W22275   6.020   7.464   2.207 -0.1969  0.2214  0.1051
 5802W        W22276  11.054  17.660  14.080 -0.2352  0.0121  0.3418
 5803W        W22277   1.913  17.273  16.760 -0.0275  0.0062 -0.2144
 5804W        W22278   2.939   1.651   5.736 -0.0411 -0.1116 -0.0428
 5805W        W22279   4.965  16.530   1.094 -0.2929 -0.0365 -0.0893
 5806W        W22280   9.140  15.130   1.482  0.1288  0.0304  0.0823
 5807W        W22281   8.992  10.749   1.070  0.0574 -0.0217 -0.1575
 5808W        W22282  12.965   1.891   2.775 -0.0131  0.0333  0.2172
 5809W        W22283   6.998  15.075   4.060  0.0351  0.1888  0.1012
 5810W        W22284  12.309  10.433   2.581  0.0962  0.0417 -0.0654
 5811W        W22285  11.470   7.029   1.544  0.0387  0.1860 -0.1097
 5812W        W22286  15.426  12.714   5.374 -0.0626  0.0608  0.2955
 5813W        W22287  13.830   8.854   5.842 -0.3567  0.1003  0.0084
 5814W        W22288  11.769   8.730   3.437 -0.1245  0.3207 -0.1144
 5815W        W22289   3.509   5.520   2.285  0.1677 -0.0269  0.3730
 5816W        W22290   8.055  16.190   3.261 -0.1159 -0.1249  0.1645
 5817W        W22291   7.006   4.799  12.217  0.2167 -0.0854 -0.0549
 5818W        W22292   0.631   2.506   1.240 -0.3934 -0.0387  0.2364
 5819W        W22293  17.325   5.219   2.473  0.0177 -0.4489 -0.1496
 5820W        W22294  10.190  10.623  16.693  0.0565 -0.1497  0.0966
 5821W        W22295   0.541  13.922  14.428 -0.0430 -0.0933 -0.3667
 5822W        W22296   7.896  10.029  16.378 -0.2958 -0.0365 -0.0358
 5823W        W22297   8.246  17.473   3.245  0.1831 -0.0241 -0.1746
 5824W        W22298   5.243   9.643  13.322 -0.0449 -0.0774  0.2216
 5825W        W22299  10.249  14.579  14.798 -0.2088 -0.3320  0.0083
 5826W        W22300  15.560  11.443  15.310  0.1128  0.2887  0.1755
 5827W        W22301   4.928  11.453  13.648  0.0231  0.1434 -0.2124
 5828W        W22302   0.476   1.617   3.928  0.0921 -0.2877 -0.1524
 5829W        W22303  16.020   2.097   5.431 -0.1084  0.1043 -0.1014
 5830W        W22304  11.534   9.340  12.789 -0.3731  0.0963  0.0377
 5831W        W22305  16.843  10.148   4.248 -0.1303 -0.3669  0.1179
 5832W        W22306   9.289   6.805  14.900 -0.0345 -0.1914  0.1426
 5833W        W22307   3.782  11.293   1.751 -0.2194 -0.0029  0.1987
 5834W        W22308   2.124  16.344  13.837  0.0444 -0.0704  0.0255
 5835W        W22309  13.723   0.847   5.376  0.0996  0.1318 -0.0460
 5836W        W22310   9.076   0.354   2.415  0.2844 -0.2324  0.0212
 5837W        W22311   7.362  13.354   1.261 -0.0410  0.1236 -0.0408
 5838W        W22312  17.455  13.347  13.521 -0.3820  0.1692 -0.0541
 5839W        W22313   5.798  11.876  15.321 -0.0943 -0.1143  0.0352
 5840W        W22314   8.302   6.832  16.569 -0.0650 -0.1934  0.2533
 5841W        W22315   1.895   9.633   2.604  0.0597  0.0367 -0.2255
 5842W        W22316  14.770  17.995   0.394  0.1717  0.0400 -0.2313
 5843W        W22317   9.573   8.358   2.590 -0.1583 -0.3334 -0.4253
 5844W        W22318   7.798  11.013  14.380 -0.1408 -0.2013 -0.3085
 5845W        W22319  15.079  13.092  14.961 -0.2731 -0.0016  0.1867
 5846W        W22320   3.755   4.617  11.692 -0.1389  0.2451 -0.1761
 5847W        W22321   3.468  17.346   2.238  0.1781  0.0199 -0.0912
 5848W        W22322   8.058  16.640  15.001  0.3002 -0.2149  0.0670
 5849W        W22323   5.262   0.106   2.726  0.1212 -0.0489  0.2478
 5850W        W22324   7.505   4.507   0.754  0.1857  0.2684 -0.3238
 5851W        W22325   4.490   9.591   3.757 -0.1901 -0.1598 -0.3401
 5852W        W22326   9.735  10.664   2.150  0.2614 -0.0574 -0.3348
 5853W        W22327   7.689   6.903   4.767 -0.0653  0.0999 -0.2918
 5854W        W22328  15.374  13.625   0.794  0.2051  0.0022 -0.0644
 5855W        W22329   7.668   7.017  15.538  0.1884  0.0525  0.0249
 5856W        W22330  12.324   0.042   3.529 -0.0514  0.2421  0.1789
 5857W        W22331  12.677   2.795   0.315 -0.1855 -0.2344 -0.1286
 5858W        W22332   5.640  10.963   2.777 -0.1070  0.0880 -0.3264
 5859W        W22333  17.647   2.968   4.674 -0.1901 -0.0279 -0.1233
 5860W        W22334   7.649   8.056  12.960 -0.1883 -0.0326  0.0642
 5861W        W22335   1.503   7.444   1.475  0.0479 -0.0011 -0.1966
 5862W        W22336  10.391  13.434  11.927  0.2019  0.1001  0.3087
 5863W        W22337   0.403  10.183   2.828  0.4545 -0.4548  0.0771
 5864W        W22338  13.226   5.714   5.951 -0.0460  0.1941 -0.0211
 5865W        W22339  17.733  13.292   3.329 -0.1726 -0.0968  0.2163
 5866W        W22340  10.401  17.359   2.451 -0.2263  0.1899  0.0822
 5867W        W22341   9.036   7.669   2.366 -0.2566  0.0264 -0.1121
 5868W        W22342   8.917  15.776   2.973 -0.0609 -0.0578 -0.1834
 5869W        W22343   4.503   8.376  16.636  0.1264 -0.0741 -0.0345
 5870W        W22344  10.154   2.839  15.469 -0.0337  0.0614 -0.0474
 5871W        W22345  14.238   4.746  16.329  0.0087 -0.2715  0.1484
 5872W        W22346  13.367  10.565   1.800  0.1961 -0.3251 -0.2693
 5873W        W22347  13.510  11.147  11.818 -0.0370  0.1087 -0.1484
 5874W        W22348   0.931  12.864  13.516 -0.1525 -0.1295  0.3463
 5875W        W22349  14.680   8.841   2.465  0.0590 -0.0120 -0.0966
 5876W        W22350   2.563  17.160   0.214 -0.0384  0.3037  0.0793
 5877W        W22351   1.032  16.534   5.689 -0.1918  0.1616 -0.1715
 5878W        W22352  11.236  13.419  15.796  0.0278  0.2092  0.0545
 5879W        W22353  13.488  15.697  11.910  0.0182  0.0983 -0.0157
 5880W        W22354   5.997   8.706   0.717  0.1550  0.0030  0.1793
 5881W        W22355   0.831   6.188   3.376  0.0079  0.2476 -0.1617
 5882W        W22356  14.014  10.803   0.291 -0.2485 -0.3113 -0.2171
 5883W        W22357   7.105   5.568  16.367 -0.1495 -0.0330  0.1327
 5884W        W22358   8.039  13.106   3.982  0.0371 -0.0673  0.0263
 5885W        W22359   5.835  16.240  16.236 -0.0038  0.1076 -0.2088
 5886W        W22360   5.456  15.644  16.115 -0.1901  0.0617  0.1406
 5887W        W22361   6.301   5.336  12.446  0.4242 -0.0261 -0.2178
 5888W        W22362   7.408   6.937   0.475  0.2110  0.1940 -0.0112
 5889W        W22363   8.005  16.170   0.497  0.0477 -0.0380  0.2077
 5890W        W22364   0.109   7.199  16.089  0.0434 -0.0398  0.1392
 5891W        W22365   5.111   0.129  13.241  0.0413  0.1974  0.3233
 5892W        W22366   8.539  12.274  12.437 -0.1713 -0.0460  0.0609
 5893W        W22367  14.538   1.621   0.426  0.0062  0.0765  0.3387
 5894W        W22368   1.891   6.149  14.498 -0.0421  0.1543  0.0204
 5895W        W22369  10.196   4.397   1.983  0.0377  0.0354 -0.1446
 5896W        W22370  14.372  14.689   0.283  0.1837 -0.2657 -0.0953
 5897W        W22371   3.801  14.653  14.661 -0.1272 -0.1799 -0.3911
 5898W        W22372  10.455   6.466  16.356  0.2667 -0.2185  0.0298
 5899W        W22373   5.674   9.994   4.313  0.0447 -0.0567  0.0049
 5900W        W22374   4.866   7.477   0.234 -0.2971 -0.1541  0.0170
 5901W        W22375  15.563   8.551   2.235  0.2386 -0.2766 -0.1094
 5902W        W22376  17.174  17.524  12.559  0.2228  0.1693 -0.3607
 5903W        W22377   6.919  17.612  11.776 -0.0447  0.0922 -0.1545
 5904W        W22378  15.244   1.928  12.040 -0.0914 -0.1033  0.2901
 5905W        W22379   9.421  16.179   2.305 -0.4900  0.0787  0.2239
 5906W        W22380   7.150  14.333   3.298  0.2216  0.0293  0.3659
 5907W        W22381  14.670   6.742  11.603 -0.2532 -0.2633  0.0433
 5908W        W22382   9.796   3.703   1.421 -0.0506 -0.2372  0.0653
 5909W        W22383  16.391  14.629   2.488  0.0902  0.2629 -0.3758
 5910W        W22384  11.966   8.302  14.957 -0.0835  0.2173 -0.0589
 5911W        W22385  10.593   5.331  12.216  0.1911  0.2409 -0.1430
 5912W        W22386  12.871  17.310  15.602 -0.0909  0.2050 -0.1372
 5913W        W22387  12.698  10.981   1.067  0.2051  0.0148 -0.2158
 5914W        W22388  14.956   4.611  12.086  0.0350 -0.0850  0.0085
 5915W        W22389  10.214   3.968  12.378  0.2415 -0.0254 -0.3509
 5916W        W22390  16.853   2.123   0.646  0.0615  0.2318  0.0200
 5917W        W22391  17.487   4.937   1.990 -0.0313 -0.4257  0.1758
 5918W        W22392   3.985   9.608   1.568  0.2110 -0.2203 -0.0742
 5919W        W22393   3.389   1.702  13.278 -0.1494  0.0050 -0.1761
 5920W        W22394   5.115  16.195  11.227  0.1386  0.1827 -0.4868
 5921W        W22395   7.292  10.430   1.081 -0.0009  0.0409  0.0800
 5922W        W22396   8.587   4.731  13.015 -0.2740 -0.0438 -0.1552
 5923W        W22397   6.224   6.488   0.790  0.0649 -0.1446 -0.2438
 5924W        W22398  14.099   7.823   0.680  0.3293 -0.2654 -0.0343
 5925W        W22399  10.256   8.337   2.914 -0.0563 -0.1892 -0.1562
 5926W        W22400  16.935   4.315   0.625  0.1140  0.0417 -0.2370
 5927W        W22401   6.089  11.351  12.989  0.1885 -0.5526 -0.0430
 5928W        W22402  11.528   2.841  15.761 -0.0050 -0.2239  0.1619
 5929W        W22403   4.093   7.374  15.519  0.0930  0.4238  0.3929
 5930W        W22404   9.370  12.381   2.382  0.0226 -0.1268  0.0006
 5931W        W22405   7.586  14.578  13.011 -0.0470 -0.2153 -0.0159
 5932W        W22406  15.194  12.723   4.278  0.0672  0.1175 -0.2677
 5933W        W22407  10.861   2.638   4.622  0.0987 -0.1125 -0.0465
 5934W        W22408  12.432  11.476  11.420 -0.0744 -0.2100  0.0375
 5935W        W22409  14.774  12.951   1.845 -0.3760 -0.1789  0.2407
 5936W        W22410   4.526   7.005   4.278  0.1702  0.3215 -0.0676
 5937W        W22411  17.984   8.754   4.501  0.2716  0.0727 -0.2095
 5938W        W22412   5.305  15.687   1.010 -0.3328 -0.4386  0.1114
 5939W        W22413  11.844   3.449  14.089 -0.1683  0.0384 -0.0743
 5940W        W22414   1.530  10.444   5.379  0.4436 -0.2264  0.0482
 5941W        W22415  17.194  10.188  11.492  0.1249  0.2795 -0.2225
 5942W        W22416   0.741  11.136  12.251  0.0620  0.1155 -0.0211
 5943W        W22417  11.402   3.153  14.069  0.1262 -0.0911 -0.0239
 5944W        W22418   0.204  14.520   2.586  0.0355  0.2232 -0.1557
 5945W        W22419  15.825   4.854  13.608  0.3359  0.0313 -0.1097
 5946W        W22420  17.577   2.191  14.002 -0.3823 -0.0450 -0.3601
 5947W        W22421  15.500   9.180   5.315 -0.3177 -0.2281  0.0965
 5948W        W22422   7.968  17.005   1.710 -0.0461 -0.1971 -0.0533
 5949W        W22423   2.668   2.218  14.778  0.0046  0.1041 -0.1899
 5950W        W22424   3.803  14.582  15.528 -0.3162  0.3451 -0.2588
 5951W        W22425   7.590  11.938  12.588 -0.0683  0.1064  0.1967
 5952W        W22426  11.605  13.412  11.169 -0.2989  0.0427 -0.1938
 5953W        W22427  16.697   3.807   2.157  0.1159 -0.0202  0.1055
 5954W        W22428  12.666  14.874   4.987 -0.1112  0.2017 -0.2109
 5955W        W22429   2.967  10.807  15.889  0.1367  0.2413 -0.3540
 5956W        W22430   3.286  10.807  12.913  0.2708  0.0397 -0.1408
 5957W        W22431   2.062  12.374   3.692  0.1336  0.1129  0.0347
 5958W        W22432  14.478  15.105  15.598  0.0837 -0.0500  0.1432
 5959W        W22433   5.242   0.137   1.309 -0.0697 -0.3041  0.3203
 5960W        W22434   8.099   9.176  13.945  0.2803 -0.0354 -0.0622
 5961W        W22435   8.602  12.477   2.129 -0.0480 -0.0749 -0.1567
 5962W        W22436   1.979   1.139  13.740 -0.0174 -0.0058  0.1857
 5963W        W22437  14.386   7.243  11.483  0.1765 -0.0818 -0.3095
 5964W        W22438   6.478   1.455  11.819 -0.0079 -0.2251 -0.0224
 5965W        W22439   1.598   0.382   1.258  0.0574  0.0759 -0.0884
 5966W        W22440   8.499   1.752  12.548  0.0486  0.1960  0.1368
 5967W        W22441  15.266   3.044   5.803 -0.1894 -0.0398  0.3047
 5968W        W22442   6.130  17.676  16.401  0.0355 -0.0240 -0.2239
 5969W        W22443  17.232   2.428   0.501 -0.0268  0.0695  0.2001
 5970W        W22444  10.629   0.799  13.245 -0.2938 -0.0312 -0.0574
 5971W        W22445  13.719  16.662  14.287  0.2955 -0.0606  0.2647
 5972W        W22446  16.038   5.505  16.300  0.1979 -0.0665 -0.2722
 5973W        W22447   6.674  14.337  13.121 -0.0817 -0.1150 -0.1902
 5974W        W22448  13.379  10.138  11.920 -0.1930  0.3639  0.2704
 5975W        W22449   4.577   8.749   5.321  0.1856 -0.1012 -0.0935
 5976W        W22450  11.873   0.537  14.413 -0.1962  0.1063 -0.2574
 5977W        W22451  12.100   2.159  11.789 -0.0116 -0.0369 -0.1022
 5978W        W22452   2.353   6.119  16.156  0.0635 -0.0661 -0.0538
 5979W        W22453  17.491  14.979   2.673 -0.1602 -0.1040 -0.2990
 5980W        W22454  16.620  17.396  13.480  0.2635 -0.2122  0.0586
 5981W        W22455  17.916   1.690   4.141  0.1894 -0.1622 -0.0842
 5982W        W22456   1.384   0.991   5.242 -0.3306  0.3912  0.0963
 5983W        W22457   8.407  12.957  13.634  0.0150 -0.1617 -0.1954
 5984W        W22458   0.872   8.551   6.108 -0.0105 -0.1284  0.0012
 5985W        W22459  16.646   8.135   4.316  0.1843  0.0582 -0.1130
 5986W        W22460   1.715   8.995  13.451 -0.0828 -0.1527  0.0945
 5987W        W22461  14.627   6.959   2.155 -0.2063 -0.2010  0.0423
 5988W        W22462  16.634   2.841  14.852 -0.0756  0.0350 -0.0854
 5989W        W22463  15.674  15.382   3.290  0.0130  0.1207  0.1344
 5990W        W22464   2.974  10.118   0.848  0.0583  0.1759  0.3109
 5991W        W22465  13.165   1.413  14.264  0.0100  0.1102 -0.1144
 5992W        W22466   6.334  13.509   2.508 -0.0156 -0.1364 -0.1059
 5993W        W22467  11.056  14.773  16.570  0.1316 -0.3274 -0.0984
 5994W        W22468  15.595  10.769  12.727  0.1470  0.0473  0.2850
 5995W        W22469  13.484  11.095   0.099  0.2279  0.2729  0.1287
 5996W        W22470   0.811   4.341   1.828 -0.2194 -0.2530 -0.1411
 5997W        W22471   0.963   8.188   4.795 -0.0363  0.2025 -0.2580
 5998W        W22472  17.997   7.401   4.307 -0.1088  0.2308  0.0461
 5999W        W22473  10.210   9.128   5.561  0.0312  0.3371 -0.2738
 6000W        W22474  12.988   6.729   1.597  0.0837  0.2275  0.0389
 6001W        W22475   6.284  15.972   2.360  0.1232 -0.2863 -0.1136
 6002W        W22476   5.393   3.784   3.158 -0.1638  0.0969  0.1900
 6003W        W22477  14.782  10.139   3.461  0.0308  0.0256 -0.0193
 6004W        W22478  17.665  15.129   6.118  0.1518  0.0903  0.0322
 6005W        W22479   2.573  14.497  14.515  0.1757  0.0967  0.2442
 6006W        W22480  17.453   5.694   1.433  0.2330 -0.1657 -0.3821
 6007W        W22481  17.302   5.590  13.859 -0.1189  0.3404  0.2534
 6008W        W22482   7.868   1.304  16.194  0.0613  0.0639 -0.1377
 6009W        W22483  15.984  12.207  14.876  0.2095 -0.0891 -0.1803
 6010W        W22484  12.624   8.817   1.809 -0.1640 -0.4069  0.0229
 6011W        W22485   2.275   5.208   2.988 -0.1318  0.2154 -0.2413
 6012W        W22486  11.648   9.658  14.019  0.2401  0.0116  0.2015
 6013W        W22487  16.617  16.205   2.734 -0.2962  0.1107  0.1612
 6014W        W22488   4.685  10.967   0.521 -0.0181  0.1371  0.2288
 6015W        W22489   1.104   5.779  16.688 -0.1655 -0.0656 -0.0046
 6016W        W22490   9.890   5.998  15.054  0.1398 -0.0137  0.2527
 6017W        W22491  10.573   7.084  12.638 -0.3244  0.0303  0.1905
 6018W        W22492  15.586   6.112  12.330 -0.0360 -0.4426  0.2555
 6019W        W22493   1.693   5.142  16.102 -0.0603 -0.0413  0.3037
 6020W        W22494  10.674   9.110   3.724 -0.2186  0.1363  0.1172
 6021W        W22495   1.685  12.461   4.721  0.1914 -0.1269  0.0685
 6022W        W22496   0.476  11.621  14.481  0.2333  0.0848  0.0138
 6023W        W22497  11.299  10.195   4.490 -0.1873 -0.1133 -0.2350
 6024W        W22498   9.922  15.229   0.396 -0.1027 -0.1655  0.0436
 6025W        W22499   5.708   2.155   3.363  0.6505 -0.1507 -0.0290
 6026W        W22500   4.293  11.443   1.842 -0.2700  0.0178 -0.2202
 6027W        W22501  15.892   2.642   3.014  0.0119 -0.3259 -0.0827
 6028W        W22502   4.218  15.196   0.996 -0.0809  0.2871 -0.4201
 6029W        W22503  16.434   2.807  13.518  0.0270  0.2290  0.1183
 6030W        W22504   2.543  17.293   1.192 -0.4776  0.0164 -0.0948
 6031W        W22505   3.989   2.935  12.833  0.3264 -0.3740  0.0719
 6032W        W22506  15.565  16.499  16.156 -0.0712  0.1452 -0.1293
 6033W        W22507  12.594   2.331  16.195 -0.1457  0.2087  0.0313
 6034W        W22508   8.512   5.501   3.375 -0.2251  0.2323 -0.2211
 6035W        W22509   4.876   4.166   4.280  0.0947  0.0358 -0.2158
 6036W        W22510   1.686   4.021   2.399 -0.2131  0.2842  0.1685
 6037W        W22511   2.201  16.278  14.458  0.0161 -0.1952  0.1138
 6038W        W22512  12.466   1.375   0.329 -0.0752  0.1729 -0.2794
 6039W        W22513   1.632  12.809  11.726 -0.0543 -0.0128 -0.0010
 6040W        W22514  15.778   7.151  12.905  0.0289  0.0166  0.3699
 6041W        W22515   3.735  10.759   3.536 -0.2170 -0.0223 -0.3910
 6042W        W22516  17.841  17.549  15.376  0.3198  0.0729 -0.1536
 6043W        W22517  15.493  16.005  15.990  0.1384 -0.2134 -0.3650
 6044W        W22518  14.142   4.876  12.924 -0.2042  0.0453  0.0509
 6045W        W22519  16.623  14.412  12.940  0.2263  0.3039  0.3083
 6046W        W22520  16.531   2.158   2.434 -0.1036  0.1230  0.3768
 6047W        W22521  17.880   8.162   2.087  0.3258 -0.0821 -0.2670
 6048W        W22522   0.861  14.380   1.485 -0.2528 -0.1792  0.2176
 6049W        W22523   2.155   6.733  14.403 -0.0488 -0.0940 -0.2536
 6050W        W22524  17.848  17.731   4.512 -0.3145 -0.2021 -0.3295
 6051W        W22525  10.868   0.268  15.125  0.0311 -0.0227 -0.0742
 6052W        W22526  12.862  10.353   2.585  0.0249 -0.2996 -0.3474
 6053W        W22527   6.732  12.446  13.988 -0.1720  0.1767 -0.1094
 6054W        W22528  13.467   4.268  12.440  0.2883 -0.0723 -0.3349
 6055W        W22529  17.185   3.149  14.669  0.1488  0.1925 -0.1144
 6056W        W22530   1.068  12.952  11.820  0.2782 -0.1082 -0.0857
 6057W        W22531   7.636   0.254   3.152 -0.0472 -0.1212 -0.2486
 6058W        W22532   0.707   8.057   5.479  0.0524 -0.0580  0.1148
 6059W        W22533   7.174  10.173   4.439 -0.1830 -0.3034 -0.0677
 6060W        W22534  13.048  15.929  11.754  0.1865 -0.0262  0.0171
 6061W        W22535   1.168   6.971   3.472  0.2469  0.3084 -0.2439
 6062W        W22536   0.045  10.844   4.125  0.0209 -0.1294  0.0077
 6063W        W22537  11.834   8.405   4.974 -0.0626  0.3330  0.0320
 6064W        W22538   5.577   8.588  16.593  0.0394  0.1537 -0.0282
 6065W        W22539  15.189   0.930  13.410 -0.0142  0.0362  0.1542
 6066W        W22540   4.057   1.447   2.435 -0.0196 -0.2745  0.1119
 6067W        W22541   4.342  13.682   0.613  0.1475  0.2122 -0.1549
 6068W        W22542  13.953   0.053  11.849  0.2149 -0.1922 -0.0694
 6069W        W22543   7.022  10.672  13.993 -0.2754  0.1176 -0.3348
 6070W        W22544  16.190   2.372  13.422 -0.4919  0.0665  0.0744
 6071W        W22545  11.027  17.731  11.949 -0.1821 -0.0707  0.2073
 6072W        W22546   0.183   8.422   1.074  0.0735 -0.1588 -0.1231
 6073W        W22547  14.513  16.344  12.650  0.1861  0.1974 -0.2636
 6074W        W22548   1.635   8.041  11.461  0.6222  0.1215 -0.2788
 6075W        W22549  17.121   2.622  13.247 -0.0324  0.2502  0.1538
 6076W        W22550  11.675   4.981  15.354  0.0862  0.3492 -0.1990
 6077W        W22551   0.005  10.833  11.692  0.1747 -0.3085 -0.0130
 6078W        W22552  13.028  13.271  13.551 -0.0349  0.2463 -0.0017
 6079W        W22553  13.659  11.148  14.344 -0.0388  0.1581  0.0779
 6080W        W22554   1.783   9.603   4.122 -0.0912  0.4700  0.0596
 6081W        W22555  16.374   5.198  12.082 -0.2011 -0.4134 -0.0749
 6082W        W22556  12.619  10.596   2.150 -0.2858  0.3079  0.0747
 6083W        W22557   3.729   2.086   6.538  0.1256  0.2091 -0.0599
 6084W        W22558  12.807   4.914   2.656  0.0692  0.1155 -0.2179
 6085W        W22559   8.247  13.583   1.206 -0.2360 -0.1874 -0.0765
 6086W        W22560   3.427   1.357  16.714  0.0569 -0.0903 -0.2327
 6087W        W22561  14.165  12.897   3.706  0.1867 -0.1234 -0.0606
 6088W        W22562   2.756  15.938  11.932  0.1014  0.1774 -0.0749
 6089W        W22563  16.767   5.101   5.378 -0.0130  0.0990  0.1235
 6090W        W22564   4.897  12.775   3.404  0.1617  0.0018  0.1961
 6091W        W22565  12.519   7.667   6.207  0.3694  0.1527  0.0960
 6092W        W22566   9.513   5.935  15.627  0.2939  0.0933  0.0220
 6093W        W22567  13.629   3.431   5.182  0.3222 -0.0468  0.0964
 6094W        W22568  10.295   3.560  15.311  0.1643  0.1720  0.1310
 6095W        W22569   0.834   6.662   2.351  0.0980  0.0653 -0.0651
 6096W        W22570   6.259  16.797  12.928 -0.2143 -0.0357 -0.3133
 6097W        W22571  16.717  10.785  16.505 -0.2212 -0.3214  0.0793
 6098W        W22572   3.206   7.478   2.292 -0.1244 -0.1049 -0.3740
 6099W        W22573   9.460   6.148   1.987 -0.1388  0.3357 -0.0892
 6100W        W22574  17.079  15.853   5.163  0.2396 -0.2114  0.0041
 6101W        W22575  11.423   3.265  15.568 -0.0300  0.1370  0.0389
 6102W        W22576  15.184   6.797   3.982  0.3238 -0.1551 -0.0624
 6103W        W22577  15.153   1.783   3.304  0.1244 -0.0670  0.1220
 6104W        W22578  11.907  12.925   5.668 -0.1685 -0.0943  0.0505
 6105W        W22579   5.794   7.682  15.960 -0.1285  0.0090 -0.2348
 6106W        W22580   1.022   6.893   0.755  0.1551 -0.0416 -0.1389
 6107W        W22581  13.648  10.012   0.093  0.1592  0.0938  0.1035
 6108W        W22582  15.429   3.564  13.113  0.0652 -0.0025  0.2066
 6109W        W22583   1.477  10.083  11.862 -0.0497  0.0912  0.0570
 6110W        W22584  10.316  15.402   4.888  0.0738  0.0973  0.1106
 6111W        W22585  16.119   5.872   2.381  0.0088  0.0729  0.1167
 6112W        W22586   3.236  12.947   1.060  0.2247 -0.0162 -0.0224
 6113W        W22587  13.024   6.533   4.712 -0.4176 -0.0325 -0.2337
 6114W        W22588  12.265   1.872   4.772  0.0615 -0.0956  0.0550
 6115W        W22589   4.875   5.931   2.450 -0.2757  0.2051 -0.1754
 6116W        W22590   5.841  14.098   5.502  0.0260 -0.0788 -0.0405
 6117W        W22591   0.738  17.386   5.159 -0.3103 -0.1929  0.3627
 6118W        W22592   0.723  17.815   4.868  0.0419  0.1152 -0.1884
 6119W        W22593  15.962   0.335  16.565 -0.1357  0.2812 -0.3499
 6120W        W22594  16.182   6.420   0.520  0.0798  0.0042  0.1870
 6121W        W22595   1.475  10.026   0.545 -0.2263  0.2297  0.4132
 6122W        W22596  14.555   1.786  16.535 -0.0773 -0.2743  0.1378
 6123W        W22597   8.935   0.833  13.246 -0.2365  0.0612  0.2003
 6124W        W22598  14.727  17.954  14.342 -0.0618  0.0714  0.0634
 6125W        W22599  15.625  16.642   6.017 -0.0238  0.0602  0.0880
 6126W        W22600   3.955   6.809   2.513 -0.0918 -0.1369  0.2445
 6127W        W22601   5.358   8.145  14.819  0.0065  0.0540  0.1483
 6128W        W22602  16.855   8.826  16.588 -0.0659 -0.2360  0.2721
 6129W        W22603  16.344   1.035  14.254 -0.1009  0.1119 -0.2162
 6130W        W22604   6.030  12.378   1.549  0.0084  0.2409 -0.1793
 6131W        W22605   1.608  13.657  11.552 -0.3186 -0.2421  0.0812
 6132W        W22606  16.411   9.734   0.474 -0.1363 -0.0815  0.0773
 6133W        W22607  11.708  11.610  11.734 -0.1697  0.0508  0.4348
 6134W        W22608   9.335   0.901  12.675 -0.1304  0.2084  0.1489
 6135W        W22609   1.142  16.837   0.517 -0.1542  0.0714 -0.1258
 6136W        W22610   0.369  11.622   2.863 -0.2033  0.1887  0.0274
 6137W        W22611  13.547   3.506   6.264 -0.0361  0.1375 -0.0347
 6138W        W22612   2.243   6.580   0.549 -0.2269  0.1644 -0.1712
 6139W        W22613   7.250   5.595  13.403 -0.1692 -0.0946  0.0192
 6140W        W22614  16.354  13.582   5.310  0.3458  0.1040  0.2443
 6141W        W22615   6.433   3.631   0.468  0.0842 -0.2730 -0.2171
 6142W        W22616   4.556  13.176   0.622  0.4108  0.2559 -0.0146
 6143W        W22617  13.737   8.211   3.324  0.0485 -0.0413 -0.1945
 6144W        W22618  14.627  13.020  10.589  0.0134  0.3448 -0.2199
 6145W        W22619  16.002   2.734  13.694  0.1444 -0.0842  0.0068
 6146W        W22620  13.666   2.281  11.916  0.0487  0.1392  0.3529
 6147W        W22621  15.920  17.673   0.369  0.1228 -0.6073  0.1063
 6148W        W22622   1.049   9.616  12.893 -0.1901  0.2289 -0.0584
 6149W        W22623   4.359  10.352   1.009  0.2902  0.0598 -0.0892
 6150W        W22624  15.883   3.225  12.671  0.0987 -0.2389 -0.0646
 6151W        W22625  13.583  10.388  14.816  0.2017  0.0645  0.2493
 6152W        W22626   6.368   7.549  15.746  0.0965 -0.0651 -0.0361
 6153W        W22627  16.111   5.892  13.471 -0.2338  0.0195  0.1158
 6154W        W22628  13.945   1.620   5.904  0.0745 -0.1733 -0.0708
 6155W        W22629  16.017   3.903   4.131 -0.1626  0.0576  0.1770
 6156W        W22630   0.883   2.700  13.523 -0.1820 -0.0864  0.2121
 6157W        W22631   3.451   0.575   0.162 -0.0302  0.2620 -0.1044
 6158W        W22632  12.204  16.949   3.337  0.0015 -0.2602 -0.1530
 6159W        W22633  10.148  13.197   5.491  0.1365  0.0079 -0.2511
 6160W        W22634   8.087   9.749   5.371 -0.0709  0.0551  0.1198
 6161W        W22635   2.324   3.864   1.202  0.2341  0.0551  0.3855
 6162W        W22636  14.766  15.182  12.107  0.0821  0.4188  0.0621
 6163W        W22637   7.147  14.332  12.847  0.2464  0.0544  0.3762
 6164W        W22638  10.047   1.911   3.184 -0.2050 -0.2150  0.0769
 6165W        W22639  13.551  11.324  13.472 -0.1211 -0.2769 -0.1015
 6166W        W22640   9.057  11.271  13.960  0.2006  0.2394  0.0946
 6167W        W22641   3.535  12.837   0.653  0.0118  0.0701  0.0373
 6168W        W22642  14.802   2.010   6.110  0.0889 -0.0469  0.0127
 6169W        W22643   8.970   4.186  15.483  0.0497  0.1714 -0.4121
 6170W        W22644  11.760  14.759  12.459  0.3135  0.0327  0.1674
 6171W        W22645  17.797  10.676   0.949 -0.0532 -0.1552  0.0660
 6172W        W22646  15.129   3.813   0.575  0.0698 -0.2540  0.1179
 6173W        W22647   5.842   1.019   1.257 -0.5231 -0.1079  0.1892
 6174W        W22648  13.370   9.402   4.673  0.1548 -0.1630  0.0775
 6175W        W22649  15.446  13.141   0.702 -0.0409  0.0570 -0.2152
 6176W        W22650  10.775   1.565   4.871 -0.0109 -0.1379  0.0688
 6177W        W22651   9.501   6.208   4.244  0.0526 -0.0012 -0.0724
 6178W        W22652   4.546   8.704   0.549  0.4994 -0.1100  0.2792
 6179W        W22653   1.914  10.331  14.080 -0.0186  0.1665 -0.0587
 6180W        W22654  10.710   4.388   2.188  0.0675  0.0231  0.0938
 6181W        W22655  11.069   2.159  14.674 -0.1980  0.1673  0.2235
 6182W        W22656  11.388   1.262  14.376 -0.1391 -0.0491 -0.0679
 6183W        W22657  12.213  15.358   4.315 -0.0716 -0.0057  0.3054
 6184W        W22658   2.124  14.389  13.026  0.1540 -0.0020  0.0413
 6185W        W22659  10.055  16.167   0.171  0.0986  0.1273 -0.1117
 6186W        W22660   9.815  13.254  14.526  0.0482 -0.0388 -0.0978
 6187W        W22661   1.691   5.283   5.483  0.1247 -0.1267  0.0492
 6188W        W22662  16.730   2.260  13.367  0.0350  0.0215 -0.0081
 6189W        W22663   8.262  17.908  14.332 -0.2656 -0.3299 -0.0480
 6190W        W22664   2.168   3.032  13.502  0.0788 -0.0891 -0.2702
 6191W        W22665  16.666  10.863   0.236 -0.4379  0.0763  0.3038
 6192W        W22666  12.568  11.554   3.336 -0.2120  0.0828  0.0590
 6193W        W22667   9.453  10.715  12.822 -0.0916  0.0052  0.3250
 6194W        W22668  13.189   0.951  14.067 -0.2630  0.0388 -0.0252
 6195W        W22669  11.798   3.010   2.043 -0.2397  0.1827 -0.2690
 6196W        W22670   0.864  17.050   3.594 -0.0926  0.2523 -0.2055
 6197W        W22671  12.222   5.347  16.788  0.3413 -0.0155 -0.0839
 6198W        W22672   6.865   1.599  11.521  0.0326  0.0506 -0.1358
 6199W        W22673  13.628  14.253  12.994  0.0630  0.0879  0.3632
 6200W        W22674   6.922  13.339  16.713 -0.0528 -0.1080 -0.3031
 6201W        W22675  10.206   2.832   1.025  0.1350  0.0306 -0.0755
 6202W        W22676   2.347   0.536  11.940 -0.1946  0.0606 -0.1376
 6203W        W22677   1.099   3.368  11.531  0.0094 -0.3322 -0.0590
 6204W        W22678  12.641  17.819  14.772 -0.1767  0.1301  0.1801
 6205W        W22679  16.058  10.239   3.839 -0.1478 -0.3092 -0.0355
 6206W        W22680   1.437   2.679   1.244  0.3127  0.0741 -0.1687
 6207W        W22681   8.922   4.855   5.017 -0.1125  0.0765 -0.1067
 6208W        W22682  11.077  17.417   3.077  0.0079  0.1748 -0.0496
 6209W        W22683   7.065   0.700  12.914  0.0636 -0.2020  0.1791
 6210W        W22684   5.750  13.358   0.130  0.2186 -0.0136 -0.0254
 6211W        W22685   3.045   4.908  14.019 -0.1605  0.1515 -0.0773
 6212W        W22686   5.693   7.650   4.205  0.1621 -0.0279  0.3924
 6213W        W22687  17.712  11.446  11.094  0.0879  0.1431  0.0702
 6214W        W22688  15.599  11.239  11.444 -0.2198 -0.3607  0.3934
 6215W        W22689  13.657  13.966  12.221 -0.0706 -0.1365  0.0383
 6216W        W22690   5.297   9.125   3.460  0.1916 -0.0993 -0.2982
 6217W        W22691   8.434   4.338  13.297  0.0496 -0.1409  0.2078
 6218W        W22692   5.641   5.543   4.906 -0.0317 -0.4172 -0.1477
 6219W        W22693  15.489   3.407   5.379 -0.1509  0.0949 -0.6204
 6220W        W22694   1.043   3.985   4.609 -0.0750  0.1504 -0.0903
 6221W        W22695  12.300  11.218   1.440 -0.4091  0.0890  0.1773
 6222W        W22696  11.583   7.497   3.301  0.0411 -0.2385  0.0317
 6223W        W22697   2.300   6.224  14.270  0.2917  0.1244  0.2216
 6224W        W22698   1.105   8.839   4.039 -0.1701 -0.0133  0.1365
 6225W        W22699   5.475  16.769   4.359  0.0346  0.1018 -0.1232
 6226W        W22700  13.439   5.860   5.406 -0.3107  0.0021 -0.0239
 6227W        W22701  17.436  14.858  13.912 -0.0831 -0.1550  0.1090
 6228W        W22702   2.903   7.169   0.324  0.2524 -0.0544  0.2775
 6229W        W22703   2.845  11.215  13.558 -0.2539  0.1618 -0.0106
 6230W        W22704   2.306   8.832   3.905 -0.1559 -0.0460 -0.2104
 6231W        W22705   7.486   0.008  15.296  0.0243 -0.1372  0.0395
 6232W        W22706   3.631   2.409  12.093 -0.1592  0.0980  0.0210
 6233W        W22707   0.582   8.510  12.427 -0.0462  0.1959  0.0762
 6234W        W22708  15.650   8.093  14.180 -0.2375  0.3447 -0.4847
 6235W        W22709  17.761  12.435   2.321 -0.2114 -0.0865 -0.2731
 6236W        W22710  12.917  10.152   1.439  0.2259  0.0044 -0.1644
 6237W        W22711   8.292  11.336   3.717 -0.0228  0.0336 -0.3383
 6238W        W22712   7.130   9.819  12.856  0.0600 -0.0996 -0.0225
 6239W        W22713   2.169  15.432  12.070 -0.1314 -0.0382  0.1244
 6240W        W22714   4.772  13.744   3.471 -0.3801 -0.0496  0.2043
 6241W        W22715  13.300   6.424   5.414  0.1018 -0.1956  0.0110
 6242W        W22716  10.637   8.839  13.689 -0.2283 -0.1239  0.0288
 6243W        W22717  14.754   7.237  13.615  0.2373 -0.1413 -0.1608
 6244W        W22718   9.807  15.788  11.639  0.0720  0.1688 -0.0685
 6245W        W22719   4.103   1.289   3.732  0.0931  0.2845 -0.3391
 6246W        W22720  16.806  14.113  15.607 -0.1701  0.2012  0.1963
 6247W        W22721  10.108   6.032   5.446 -0.1807 -0.0993  0.0394
 6248W        W22722   4.954   2.775   1.421 -0.0147 -0.0056  0.0586
 6249W        W22723  12.429   3.218   2.641  0.0561 -0.0463 -0.3454
 6250W        W22724  13.633  16.173   0.842 -0.0511 -0.1429 -0.1971
 6251W        W22725  13.505  14.248  15.909 -0.2513  0.0344  0.1129
 6252W        W22726  16.734   3.876  14.742 -0.2305 -0.2387  0.0283
 6253W        W22727  12.906  17.200  11.801  0.3249  0.0033 -0.0402
 6254W        W22728   6.481  15.224   4.188 -0.1039 -0.1365  0.2520
 6255W        W22729   6.081  15.559  11.843 -0.1479 -0.1123 -0.0096
 6256W        W22730  14.161   1.086   1.763 -0.1039 -0.2775  0.1719
 6257W        W22731   0.008   0.811   4.040  0.1255  0.1473  0.0902
 6258W        W22732  13.000  15.251  14.191 -0.1750  0.1122  0.1665
 6259W        W22733  17.291   7.297   1.499 -0.3067 -0.3151 -0.1085
 6260W        W22734   3.038  11.584  11.726  0.1002  0.0443  0.0315
 6261W        W22735  12.423  11.948  12.741 -0.0599 -0.0475 -0.1464
 6262W        W22736   4.127  14.181   3.720 -0.1712 -0.1475 -0.1460
 6263W        W22737  15.800   8.872   4.775 -0.1851  0.2053 -0.5513
 6264W        W22738   4.908   4.360  14.088  0.2443  0.3059 -0.1959
 6265W        W22739  15.039   7.936  14.075  0.0384  0.2308  0.1564
 6266W        W22740   5.845   2.791  11.492  0.0477 -0.2687  0.2217
 6267W        W22741  14.458   8.131  13.218 -0.0141 -0.0263 -0.3075
 6268W        W22742   0.129  14.982   4.317  0.2134 -0.0783 -0.4112
 6269W        W22743   7.610   7.314  14.319 -0.0155  0.0021  0.1056
 6270W        W22744  12.105  12.093   4.528  0.0072 -0.2805 -0.2251
 6271W        W22745  16.141   3.254   5.637 -0.0410 -0.2301 -0.1638
 6272W        W22746   0.063  17.127  13.722 -0.1870  0.0877 -0.0842
 6273W        W22747   3.235   0.814   2.313 -0.1904 -0.3041  0.2272
 6274W        W22748  16.038  14.233  14.546  0.0084  0.1642  0.0396
 6275W        W22749   2.125   5.651  13.370 -0.0266 -0.5245  0.1255
 6276W        W22750  14.081   4.717   1.755  0.0547  0.1590  0.1897
 6277W        W22751  13.436   8.928  13.741 -0.0596 -0.5160 -0.1242
 6278W        W22752   5.644  10.784  14.399 -0.1223 -0.2814  0.4561
 6279W        W22753  10.135  17.043  16.442 -0.0481  0.2349 -0.0355
 6280W        W22754  16.421   2.859   4.335  0.1164 -0.0391 -0.2526
 6281W        W22755  17.758  13.672   2.814 -0.1857  0.0101  0.0472
 6282W        W22756   4.290  16.403  11.797  0.5189 -0.1959 -0.2603
 6283W        W22757  14.394  16.100  16.561  0.2107 -0.0557  0.0139
 6284W        W22758  13.113   5.003   2.019  0.1920  0.2655  0.1375
 6285W        W22759  15.345  14.504   0.057  0.1015  0.0372 -0.0135
 6286W        W22760   0.893  10.970   4.075 -0.0982 -0.2496  0.0933
 6287W        W22761  17.087  15.647   0.961  0.2615 -0.3280 -0.0988
 6288W        W22762  13.885  13.013  14.746  0.0196 -0.0181  0.5059
 6289W        W22763  13.623  16.745  12.886 -0.2951  0.2229  0.4541
 6290W        W22764  17.637   7.054  14.537 -0.0676  0.1484  0.2528
 6291W        W22765   8.862  11.849  12.603 -0.2796  0.0805 -0.0740
 6292W        W22766  16.539   3.876   4.803  0.0265  0.1030  0.2631
 6293W        W22767   6.121  13.190   2.174 -0.0352  0.1365 -0.0446
 6294W        W22768   5.546  11.026  16.436 -0.0316 -0.0052 -0.1784
 6295W        W22769   9.241  15.784  15.064  0.1192  0.1160 -0.0554
 6296W        W22770   2.683   3.126  13.522  0.2599 -0.1363  0.2057
 6297W        W22771   7.204   0.177   2.754 -0.0821  0.1347 -0.0316
 6298W        W22772   9.330   6.560   3.865 -0.0007  0.0740 -0.0313
 6299W        W22773   0.943   9.102   2.860 -0.1773  0.0613 -0.3167
 6300W        W22774  11.737   3.019   4.834 -0.2268 -0.1492  0.2630
 6301W        W22775   4.185   0.999   0.462 -0.0049 -0.0709 -0.2913
 6302W        W22776   6.914   9.477   5.802 -0.2026  0.1501 -0.0480
 6303W        W22777   5.943  10.792  14.787  0.0819 -0.1166 -0.1306
 6304W        W22778  14.597   4.876   0.791 -0.0616 -0.0536 -0.3639
 6305W        W22779   3.930   9.868  16.673 -0.0989 -0.0430  0.0297
 6306W        W22780   0.786  17.319  16.716 -0.1934 -0.2541  0.0385
 6307W        W22781   1.099  10.713   3.642 -0.3596 -0.0528  0.0823
 6308W        W22782   9.523  13.067   4.061  0.0748  0.0842  0.4277
 6309W        W22783   0.559   7.042  16.096 -0.1047 -0.2226 -0.0413
 6310W        W22784   0.986   2.568   1.559  0.0507  0.0140 -0.0019
 6311W        W22785  11.765   0.458   5.658 -0.3007 -0.0964 -0.0553
 6312W        W22786   7.910  17.598  16.735 -0.0489 -0.1889  0.0092
 6313W        W22787  17.273  14.608  14.329 -0.1617  0.2208 -0.0081
 6314W        W22788  16.383  13.514  12.847  0.0365  0.0050 -0.1844
 6315W        W22789   5.066  14.048   4.223  0.1596 -0.2592  0.3015
 6316W        W22790  14.635   4.485   1.786 -0.0493  0.0013  0.0019
 6317W        W22791  10.828   5.942   3.407 -0.1641  0.1395  0.1976
 6318W        W22792   7.483   0.487   1.277  0.0029  0.1858 -0.0148
 6319W        W22793   2.715   3.451   1.317 -0.0356  0.1118 -0.0386
 6320W        W22794   7.991  11.613   0.293  0.0841 -0.1231  0.1941
 6321W        W22795   4.507   3.465   1.759  0.6113  0.2429  0.0834
 6322W        W22796   4.786  12.562  11.374  0.1573 -0.1245  0.2566
 6323W        W22797  11.899  17.495   5.269  0.0294  0.1898  0.5038
 6324W        W22798   2.138  16.465   1.958  0.5394 -0.4841  0.1059
 6325W        W22799  13.432   8.622   3.607 -0.1124 -0.3961  0.3816
 6326W        W22800   3.306   0.138  15.601 -0.1476 -0.0508  0.2309
 6327W        W22801  17.370   5.850   5.825  0.0715 -0.0858  0.0815
 6328W        W22802   7.870  10.629  13.258  0.0110  0.2330 -0.0987
 6329W        W22803  14.535   1.563  12.768  0.2735 -0.0011  0.2074
 6330W        W22804   0.774   4.132   2.376  0.3109  0.3656  0.0115
 6331W        W22805   1.920  17.409   0.487 -0.0068 -0.1981  0.1560
 6332W        W22806   8.116  12.173   4.875  0.3091  0.1315  0.2481
 6333W        W22807   6.074   1.585  11.469  0.0395 -0.0435 -0.1699
 6334W        W22808   3.017  14.413   4.449 -0.0407 -0.1530 -0.0509
 6335W        W22809  12.691   1.229   3.473  0.2870  0.3938 -0.0815
 6336W        W22810   5.119  10.789   1.187 -0.1386  0.3059 -0.3157
 6337W        W22811  11.006  17.665   3.566  0.2521  0.2128  0.1062
 6338W        W22812  16.346  10.969  15.484  0.0559  0.2477  0.0423
 6339W        W22813  13.858  10.522  15.246  0.0642 -0.2637  0.0992
 6340W        W22814   4.790   8.599  16.204  0.0504  0.0366 -0.0764
 6341W        W22815  14.341  14.283  13.432  0.0854 -0.0175  0.1532
 6342W        W22816   3.568   0.105   1.647 -0.0929 -0.0284 -0.4856
 6343W        W22817  11.007   8.443   1.210  0.1254 -0.0205  0.0974
 6344W        W22818  15.424  11.236   0.468 -0.1442 -0.1404  0.3338
 6345W        W22819  12.565   1.037  12.280  0.0471 -0.0739  0.3126
 6346W        W22820   5.675  11.069  13.090  0.0114  0.1852  0.2709
 6347W        W22821   2.877  14.274  15.874  0.0496  0.0066  0.3351
 6348W        W22822   2.926  16.843  12.558  0.1132  0.3595 -0.3200
 6349W        W22823  16.447  11.853  13.343 -0.0760 -0.1758 -0.0358
 6350W        W22824  13.607  16.546   6.714 -0.1286  0.0791 -0.1546
 6351W        W22825   4.467   5.884  12.416  0.1918 -0.2632 -0.2390
 6352W        W22826  15.350   3.773  11.991  0.2810  0.0613 -0.0945
 6353W        W22827   8.348   2.276   3.596  0.1161  0.0057 -0.1032
 6354W        W22828   3.497  11.728   3.553  0.0155 -0.1890 -0.2556
 6355W        W22829  11.051  13.963   4.721  0.0886 -0.1531  0.4494
 6356W        W22830   4.420  15.572  13.807 -0.0560  0.1148  0.0616
 6357W        W22831   9.215  12.472  15.612 -0.0298 -0.0276 -0.2407
 6358W        W22832  16.248   8.207   2.113 -0.2842 -0.2322  0.1423
 6359W        W22833   8.182   9.086  14.945 -0.0254 -0.1791  0.0779
 6360W        W22834   3.135  13.997   3.704 -0.0922 -0.1119  0.0727
 6361W        W22835  13.450  15.617   0.248  0.0272  0.2649 -0.0282
 6362W        W22836   2.356   8.245  16.654  0.1882 -0.0246 -0.3323
 6363W        W22837   6.728  14.160  14.059  0.0976  0.3031  0.0664
 6364W        W22838  13.524   0.886  13.708 -0.1700 -0.1965  0.0322
 6365W        W22839   9.182   7.461  13.443  0.0827 -0.2457  0.0078
 6366W        W22840   0.286   7.764   4.312 -0.1462  0.0600  0.2019
 6367W        W22841   2.978  11.526   3.572 -0.1548 -0.2651 -0.0935
 6368W        W22842   4.742  11.501   4.625  0.2205  0.0555  0.0820
 6369W        W22843   5.089  17.759  15.054  0.0622 -0.2965 -0.0125
 6370W        W22844  12.720   0.978   1.781  0.1839  0.0266  0.1577
 6371W        W22845   8.974   1.545  14.723 -0.1226 -0.0899 -0.2103
 6372W        W22846   1.142  12.501  15.369  0.2178 -0.1581 -0.0501
 6373W        W22847  12.304   1.257   1.296  0.0217  0.1145  0.1285
 6374W        W22848  16.849  10.126  14.830 -0.2332  0.2452  0.0527
 6375W        W22849   2.446  16.354   4.172  0.2075  0.0489 -0.0844
 6376W        W22850  11.899  12.947   0.907  0.0745  0.0043  0.0453
 6377W        W22851  10.292   7.981   1.795  0.0634  0.0140 -0.1046
 6378W        W22852   9.207  13.103   5.213  0.0880  0.0008 -0.2994
 6379W        W22853  13.502   5.021   6.452  0.0283  0.0937  0.0004
 6380W        W22854   7.344   9.258   5.547  0.1366 -0.1542 -0.0604
 6381W        W22855   2.646  10.538   4.422 -0.1296 -0.0575  0.2116
 6382W        W22856   0.310   5.884   2.577 -0.0046 -0.3098  0.0768
 6383W        W22857  10.081   3.034  12.950  0.1119 -0.1809  0.0315
 6384W        W22858   2.191   9.198  13.596 -0.3102 -0.2082 -0.0378
 6385W        W22859  13.195   7.334   1.143 -0.0610 -0.1699 -0.2153
 6386W        W22860   7.746   2.952   0.249  0.0156 -0.2557 -0.1181
 6387W        W22861  14.037   6.241  12.966 -0.0158  0.0192 -0.0272
 6388W        W22862   7.156   6.177   1.451 -0.2054  0.1029 -0.0011
 6389W        W22863   1.272  17.002  16.011  0.0030  0.2446 -0.0611
 6390W        W22864   5.139  11.010  15.071  0.0848  0.2420 -0.3798
 6391W        W22865  11.066  15.434  16.675  0.1382 -0.1619  0.0039
 6392W        W22866  11.686  11.984  15.989 -0.1070 -0.0597 -0.0313
 6393W        W22867   0.718  14.255   4.370 -0.1788  0.1563  0.3177
 6394W        W22868   1.479  12.583   1.127 -0.2543  0.0457  0.3428
 6395W        W22869  11.205   8.756  12.415  0.1505  0.2796 -0.0865
 6396W        W22870  13.903   9.838   6.016 -0.0166  0.0481 -0.1075
 6397W        W22871  11.417  11.138   1.137  0.2008 -0.1761 -0.1539
 6398W        W22872  18.000  14.896  12.599  0.0218 -0.2518  0.1133
 6399W        W22873   2.219   6.354   4.967  0.4035  0.2220 -0.2275
 6400W        W22874   8.342   2.296  12.361 -0.1193  0.2453 -0.2431
 6401W        W22875   5.611   6.854   0.965  0.3535 -0.2740  0.5057
 6402W        W22876   3.492  11.451   0.784  0.2051  0.4078 -0.0385
 6403W        W22877  11.488  17.103   3.038  0.0861  0.1849  0.0765
 6404W        W22878  13.172  12.837   0.700  0.1020  0.0229  0.0135
 6405W        W22879  16.955   0.936  12.687 -0.1807  0.1970 -0.0172
 6406W        W22880   3.397  16.219   3.814  0.0636  0.0763  0.2062
 6407W        W22881   7.921   8.464  13.530  0.1171 -0.1175  0.1196
 6408W        W22882   9.482  14.617  13.422 -0.2556 -0.2033  0.0564
 6409W        W22883  15.318   7.037   2.691  0.2651 -0.1590  0.1455
 6410W        W22884   0.930   6.687  11.568 -0.1007 -0.3561 -0.0127
 6411W        W22885  13.711   5.093  14.042  0.3836 -0.2291 -0.1984
 6412W        W22886   9.816   2.694   0.116  0.2939 -0.1231 -0.1961
 6413W        W22887  16.863   6.948  13.150 -0.0772 -0.3385 -0.3362
 6414W        W22888  17.133   0.877  13.168  0.1229 -0.0048 -0.2435
 6415W        W22889  15.120   0.916   0.068  0.1672 -0.0601 -0.1818
 6416W        W22890  16.949  12.500  11.349  0.0277  0.2849  0.2407
 6417W        W22891   7.153  12.331  13.810 -0.1076  0.1171 -0.1901
 6418W        W22892  11.510  12.305  15.635 -0.0817 -0.0835  0.0131
 6419W        W22893   2.766  11.785  13.627  0.4285 -0.1545 -0.5618
 6420W        W22894   5.262  12.782  12.681 -0.0441 -0.0798  0.2884
 6421W        W22895   8.226  12.081  15.171 -0.3059  0.0362  0.1905
 6422W        W22896   1.199   6.244   5.107 -0.2845  0.0854  0.0477
 6423W        W22897   5.496   6.580   1.936  0.2396 -0.3577 -0.0200
 6424W        W22898   4.941   2.092  11.743  0.0665  0.0120 -0.0739
 6425W        W22899   1.249   3.341   3.078  0.4333  0.1592 -0.0340
 6426W        W22900   8.499   5.953   5.512 -0.0763  0.0589  0.0405
 6427W        W22901   0.820  14.347  15.926  0.0552 -0.0407 -0.1993
 6428W        W22902  16.360  13.956   0.764  0.1469 -0.0079 -0.0424
 6429W        W22903  13.492  15.882   5.744  0.2913  0.2311  0.2420
 6430W        W22904   4.731  14.525  11.869  0.1904 -0.1146  0.0729
 6431W        W22905   4.474  17.043  14.172 -0.2863  0.2617  0.4415
 6432W        W22906   8.830   8.373   5.482  0.1350 -0.0349 -0.1996
 6433W        W22907  12.298   6.930   4.715  0.2968 -0.1358  0.3561
 6434W        W22908  11.128   8.460   4.184 -0.0065 -0.0588 -0.4642
 6435W        W22909   2.736   4.876  12.609 -0.0112 -0.0925 -0.1801
 6436W        W22910  11.707  15.776   0.816 -0.2798 -0.2607  0.0781
 6437W        W22911  11.324   7.057  14.004  0.0679  0.3598 -0.1845
 6438W        W22912   1.828   8.354   2.252  0.1703 -0.1831 -0.0574
 6439W        W22913  12.008   4.349  14.520  0.5312 -0.0898 -0.3707
 6440W        W22914   4.041   1.673   3.432 -0.0214 -0.0984  0.1004
 6441W        W22915   2.359   7.278   2.189 -0.0903 -0.1083  0.1640
 6442W        W22916   7.710  10.446  16.611 -0.1821  0.1753 -0.2119
 6443W        W22917   1.967   6.291   5.453 -0.0988 -0.1359 -0.0903
 6444W        W22918   3.522  13.015  11.462  0.0891  0.0414  0.2845
 6445W        W22919   7.840   5.168   6.088  0.1468 -0.1198 -0.0033
 6446W        W22920   5.099   3.903  11.631  0.1645 -0.0807  0.5902
 6447W        W22921   4.071   9.522  15.549  0.2604  0.1233  0.3807
 6448W        W22922  15.189  14.181   4.631 -0.0347 -0.0176  0.0587
 6449W        W22923  11.258   7.267   6.441  0.3386  0.2199  0.1146
 6450W        W22924   1.960   7.680   4.687  0.3982 -0.1031  0.2020
 6451W        W22925  14.351   3.645  13.652 -0.0922  0.1563  0.2422
 6452W        W22926   8.585   7.469  14.691 -0.0347 -0.0009 -0.1321
 6453W        W22927   4.295   0.772   2.008  0.2140  0.2125 -0.0214
 6454W        W22928  14.048  10.939  15.787  0.1160 -0.2554  0.0748
 6455W        W22929   0.943  13.720   2.631 -0.0857 -0.1388  0.0439
 6456W        W22930   8.385   3.774  14.927  0.1775 -0.0927  0.1538
 6457W        W22931  14.931  12.165   2.865  0.4095 -0.1239  0.2403
 6458W        W22932   7.551   9.762   5.277  0.1435 -0.0818 -0.1428
 6459W        W22933  10.262   3.108   2.155  0.0617 -0.3190 -0.1328
 6460W        W22934   3.231  11.496  15.758  0.0582 -0.0131  0.4553
 6461W        W22935   3.596   2.271   5.578  0.0211 -0.2212 -0.1032
 6462W        W22936   3.743   8.603   1.797 -0.1043 -0.1052  0.2610
 6463W        W22937  17.697   6.723  14.890 -0.2172 -0.2189 -0.1369
 6464W        W22938   2.802   1.690  14.642  0.2343  0.1665 -0.0709
 6465W        W22939   6.553   4.783  14.611  0.0479  0.2683 -0.0982
 6466W        W22940   4.025   0.428   0.398  0.2424  0.1390 -0.0412
 6467W        W22941  10.741   6.321  15.420  0.0217  0.1582 -0.0222
 6468W        W22942   4.755   0.168  15.100  0.0955 -0.1769 -0.1508
 6469W        W22943   0.282   6.537   5.712 -0.1423 -0.0085 -0.0497
 6470W        W22944  11.206  11.268  10.607  0.1286  0.1430  0.1696
 6471W        W22945  12.492  14.411   2.127 -0.3384 -0.0454  0.0759
 6472W        W22946  16.054  11.529  16.553 -0.1055  0.2209  0.0363
 6473W        W22947   3.052  15.089  16.172  0.0970 -0.0624 -0.1173
 6474W        W22948   2.747  11.864  15.874  0.0125 -0.2546  0.2161
 6475W        W22949   0.205  10.976  15.802  0.1926 -0.0319  0.1465
 6476W        W22950  10.917  14.226  14.004 -0.0095 -0.0019  0.3827
 6477W        W22951  12.792   3.980  14.356 -0.0060  0.1436  0.0497
 6478W        W22952  16.874   7.145   3.673 -0.2260  0.0534  0.0520
 6479W        W22953   9.619  16.060   3.346 -0.2338  0.0183  0.0033
 6480W        W22954   1.056  11.086  14.728  0.0523  0.2668  0.1014
 6481W        W22955  12.822   0.719   2.228 -0.3396  0.2499 -0.2519
 6482W        W22956   3.032  16.455   0.843  0.3582  0.1195 -0.0201
 6483W        W22957  12.506  10.863  14.097 -0.1322  0.2408  0.1564
 6484W        W22958  14.323   0.505  13.616  0.0616  0.0225  0.3834
 6485W        W22959   8.296   6.601  14.833 -0.0177 -0.1093  0.1841
 6486W        W22960   8.807   9.630  16.165  0.0453 -0.2624 -0.1891
 6487W        W22961  15.395   9.225  14.479 -0.1829  0.1413 -0.3265
 6488W        W22962  12.037   2.685   4.018 -0.3040 -0.0149 -0.2139
 6489W        W22963   2.986   4.407  13.945 -0.1096 -0.2416  0.0222
 6490W        W22964   3.256  11.330  12.157  0.0282  0.1392 -0.0888
 6491W        W22965  16.029  14.606   1.775  0.1501  0.0250 -0.0512
 6492W        W22966   9.837  13.237  14.024 -0.0369 -0.0562 -0.1884
 6493W        W22967  14.770  17.095   6.423 -0.0826 -0.2251  0.1097
 6494W        W22968   7.624  17.343  11.124 -0.0626 -0.0164 -0.0638
 6495W        W22969   5.278  17.611   5.860 -0.1746 -0.0610  0.1634
 6496W        W22970  12.617   1.929  15.411 -0.2228 -0.3169 -0.1666
 6497W        W22971  15.581  14.585  15.866  0.2377 -0.0556  0.0304
 6498W        W22972   4.638  13.609  15.744 -0.1214 -0.0489  0.1653
 6499W        W22973   6.489  13.600  13.291  0.3123 -0.1405  0.0831
 6500W        W22974  12.037   1.706   0.512 -0.0255  0.1088 -0.2132
 6501W        W22975   6.098   3.278   2.759  0.0422 -0.1016 -0.0085
 6502W        W22976  15.234   7.251   0.263  0.0405  0.0454  0.1259
 6503W        W22977   9.948   9.227   1.922  0.1798  0.0558  0.0812
 6504W        W22978   7.083   4.412  12.696 -0.1725  0.1141 -0.0844
 6505W        W22979   6.880   2.335   3.244  0.2703 -0.0739  0.0281
 6506W        W22980   4.188   4.794   5.993  0.0023  0.0365  0.0588
 6507W        W22981  17.490   5.996   1.884 -0.1900 -0.0047  0.2159
 6508W        W22982  12.103   8.612   4.001  0.0257  0.1207  0.0539
 6509W        W22983   9.309  14.254   0.814 -0.1718 -0.2416 -0.0849
 6510W        W22984   0.110  15.390   0.790  0.1001 -0.3601 -0.2165
 6511W        W22985   6.121   5.070  14.591  0.0556 -0.0922  0.0826
 6512W        W22986   9.805   5.728   3.296 -0.1259  0.1694  0.2439
 6513W        W22987  16.464   0.069  12.077  0.1545 -0.0214 -0.0823
 6514W        W22988   1.211   7.832   1.242  0.5969  0.1520 -0.1597
 6515W        W22989   1.070   4.871   4.923  0.1036 -0.1514  0.2216
 6516W        W22990   6.808  14.036   0.450 -0.0785 -0.0377 -0.1639
 6517W        W22991  15.162   8.515  11.456  0.1735  0.1921  0.1554
 6518W        W22992  12.815   8.907  15.618 -0.0546 -0.1039  0.3816
 6519W        W22993   8.551   3.446   5.862 -0.3286  0.0564 -0.1129
 6520W        W22994  11.398  14.624  12.143  0.1418  0.2236  0.0667
 6521W        W22995   2.752   0.450  14.834  0.0843 -0.2572  0.1400
 6522W        W22996  12.625   3.548  16.039  0.0404 -0.1925  0.0220
 6523W        W22997   9.564   8.974  14.506 -0.1088  0.1329  0.2497
 6524W        W22998  10.181   9.388  15.086 -0.0700  0.1260  0.1491
 6525W        W22999   2.674   9.756  12.403  0.0134 -0.1918  0.1478
 6526W        W23000   8.542   3.168  12.194  0.2931  0.1505 -0.3647
 6527W        W23001  11.969   4.332   2.388 -0.0172 -0.0110 -0.0452
 6528W        W23002  12.569   5.108   2.134 -0.0816 -0.1049 -0.1567
 6529W        W23003  12.598  17.168   4.944  0.2166 -0.2118 -0.3493
 6530W        W23004  10.224   0.761  14.482  0.0252 -0.0098 -0.0170
 6531W        W23005   8.240  17.865   1.983 -0.0620  0.1487  0.0035
 6532W        W23006  17.463  11.762  12.647 -0.0312 -0.2706 -0.0776
 6533W        W23007   2.102  10.731   2.855  0.2631  0.2969 -0.1362
 6534W        W23008   9.666   6.140   0.159  0.1254 -0.0227  0.2027
 6535W        W23009  13.981  14.433   1.674  0.3419  0.1166  0.0043
 6536W        W23010   5.509  15.569   4.534  0.0978  0.0952 -0.0725
 6537W        W23011   2.814   6.513   1.177  0.0011  0.0099 -0.0171
 6538W        W23012  16.123   0.436   5.241 -0.1078  0.0629  0.0077
 6539W        W23013  14.041  17.231  13.988  0.2893  0.3122 -0.2095
 6540W        W23014   2.427   5.405  13.883  0.1329  0.1573 -0.0036
 6541W        W23015  17.668   3.140  14.717 -0.0299 -0.0786  0.0019
 6542W        W23016   8.375   6.633   4.109  0.1162  0.2001  0.0191
 6543W        W23017   8.200   5.418  14.124  0.2759  0.0520 -0.1156
 6544W        W23018   7.665   5.819   3.369 -0.0627 -0.2480  0.0421
 6545W        W23019   4.013  10.553  16.271  0.3195 -0.1848 -0.1368
 6546W        W23020   1.130   8.392  11.685  0.1383  0.1027  0.3712
 6547W        W23021   1.705   6.473  12.649 -0.0732  0.0560  0.1974
 6548W        W23022   3.174   0.263   2.103  0.3731 -0.2681  0.1565
 6549W        W23023   9.324  11.283  11.981 -0.0425 -0.0152  0.1959
 6550W        W23024   3.224   0.011   4.101  0.0523 -0.1004 -0.0352
 6551W        W23025   1.778   7.234  16.143 -0.2487  0.0999 -0.0091
 6552W        W23026  12.609   6.176   0.020 -0.0212  0.0895 -0.1845
 6553W        W23027   0.358   1.382  13.295 -0.0620  0.1862  0.1844
 6554W        W23028   8.792   1.913   1.393  0.0558  0.2748  0.1014
 6555W        W23029  16.424   7.371  15.778 -0.2774  0.0639  0.1931
 6556W        W23030   7.954  14.888   4.213  0.1391  0.0660  0.1235
 6557W        W23031  17.086   4.668  14.606 -0.0368 -0.1116  0.0346
 6558W        W23032  11.271   8.168   0.924  0.0516 -0.0749  0.1271
 6559W        W23033  11.015  13.283  16.578  0.0101 -0.0026  0.3130
 6560W        W23034   1.075  15.593  14.142 -0.0459  0.0702  0.3419
 6561W        W23035  17.913  16.714   1.029 -0.0948  0.3348  0.0232
 6562W        W23036   3.108  17.473   4.681 -0.0004  0.0824  0.2804
 6563W        W23037  10.765  17.237  14.887  0.1040  0.1758  0.1005
 6564W        W23038  13.902   5.162  12.386 -0.3048  0.0898 -0.0689
 6565W        W23039   5.252   9.274   5.632 -0.0999  0.1445 -0.2523
 6566W        W23040  14.503  10.030   3.890 -0.2869  0.1233 -0.3493
 6567W        W23041   1.758   6.936  12.415 -0.0943  0.3517  0.0900
 6568W        W23042   7.213   2.381   2.033  0.2767  0.1821 -0.1031
 6569W        W23043   9.081   7.576  15.379 -0.2589  0.2238  0.1094
 6570W        W23044  11.862   0.454   3.010 -0.0295 -0.1872 -0.0926
 6571W        W23045  16.952  16.961   0.571  0.4999 -0.0884  0.0774
 6572W        W23046  16.756   5.553   2.250  0.3550  0.0471  0.0880
 6573W        W23047   5.929   0.203   0.758 -0.0237 -0.2943 -0.0437
 6574W        W23048   0.695   1.482  16.766  0.0780  0.2462 -0.1073
 6575W        W23049  16.338  10.034   3.249  0.2295  0.0527  0.0176
 6576W        W23050   9.025   8.881   5.469 -0.5587  0.0724  0.0198
 6577W        W23051  17.020   3.463   5.094 -0.0768  0.0692  0.1548
 6578W        W23052   1.492  16.272  16.423 -0.2156 -0.0331 -0.0124
 6579W        W23053   7.263   5.754   1.274  0.0212  0.0227  0.1873
 6580W        W23054   0.667   3.987  11.642 -0.4521  0.1251  0.2008
 6581W        W23055   4.837  14.934   3.732 -0.0290  0.0430  0.0328
 6582W        W23056   6.029   4.843  14.140 -0.1098 -0.0209  0.0850
 6583W        W23057   9.766  11.657  14.209  0.1912  0.1172  0.0874
 6584W        W23058  16.764  10.545   1.772  0.1997 -0.0128 -0.4606
 6585W        W23059   3.283  11.144  13.273 -0.4206 -0.1932  0.0979
 6586W        W23060   9.131  11.933   4.486  0.0894 -0.0104 -0.2907
 6587W        W23061   2.737   4.592  16.278 -0.4053  0.1362  0.0000
 6588W        W23062   8.356   8.245  14.334  0.0593 -0.0669  0.1756
 6589W        W23063   0.506   4.970   4.589 -0.1611 -0.1910 -0.1256
 6590W        W23064  17.156  11.885   1.708 -0.0410 -0.2032 -0.0086
 6591W        W23065   2.845   7.013  15.286 -0.0461 -0.1058 -0.2971
 6592W        W23066   9.173  13.498   4.196  0.0831 -0.0721 -0.0507
 6593W        W23067   9.738  10.519  15.437  0.0348  0.0816  0.1467
 6594W        W23068   6.807  13.038  13.358 -0.0652  0.0032 -0.1527
 6595W        W23069  12.653   9.652   3.672 -0.0493 -0.0041  0.0788
 6596W        W23070   9.462  10.239   0.007 -0.0210  0.0687  0.1914
 6597W        W23071   8.603   9.615  15.309  0.1539 -0.0834 -0.0212
 6598W        W23072   2.047  14.999  11.860  0.0951  0.1411 -0.1002
 6599W        W23073   9.653   6.425  13.981 -0.0850  0.5083  0.2449
 6600W        W23074  16.415  11.899   4.824 -0.0966  0.1113 -0.2577
 6601W        W23075   0.058   9.660  11.662 -0.1366 -0.3535 -0.1270
 6602W        W23076   4.317  15.933  11.617  0.2505  0.1633  0.3567
 6603W        W23077   0.397   6.104   5.441  0.0664  0.0026  0.1926
 6604W        W23078   5.445   2.273   4.409 -0.0175 -0.2484  0.0558
 6605W        W23079  11.333  17.586   5.511 -0.1193  0.0137 -0.1324
 6606W        W23080   0.670   5.587  13.368 -0.0413  0.0114 -0.0296
 6607W        W23081  13.128   9.934   0.540 -0.3333 -0.0005  0.2524
 6608W        W23082  16.685  17.369   3.060 -0.1197 -0.1003 -0.2265
 6609W        W23083   7.651   7.437   2.430  0.1503  0.0560  0.0619
 6610W        W23084   1.064   8.943   2.385  0.1770  0.3955  0.3470
 6611W        W23085   6.421   5.572   0.991  0.1273 -0.3857 -0.0047
 6612W        W23086  17.468   2.560  16.182 -0.0928  0.0561 -0.2912
 6613W        W23087   4.899   5.847  15.052 -0.3296 -0.1110  0.1818
 6614W        W23088  17.177  12.242  14.471 -0.0059  0.5680 -0.3157
 6615W        W23089  16.234  14.975  15.611  0.3565 -0.1849  0.3052
 6616W        W23090  14.602  16.450   2.187 -0.1316 -0.0010  0.1698
 6617W        W23091  13.938   5.156   1.585 -0.0479  0.2797 -0.1455
 6618W        W23092  10.406  12.984  14.757 -0.0200  0.0007  0.4034
 6619W        W23093   8.541  17.424  13.970  0.1389 -0.1545  0.0099
 6620W        W23094   2.938   8.676  14.426 -0.0220  0.1403 -0.1700
 6621W        W23095  14.957  17.920   2.419 -0.0674  0.1316  0.1508
 6622W        W23096   7.044  12.564   1.546 -0.0037 -0.1122 -0.0901
 6623W        W23097   5.905   2.064  11.595 -0.1653  0.0001 -0.0285
 6624W        W23098  13.787  13.034   1.680 -0.0329  0.1088 -0.2688
 6625W        W23099  11.607   6.956   0.538 -0.1467  0.1158  0.1568
 6626W        W23100  12.957  11.260   1.444 -0.0199 -0.3292  0.1241
 6627W        W23101   0.920  16.551  12.395  0.1996 -0.2386 -0.0641
 6628W        W23102  16.816  14.715   5.312  0.1294 -0.1083 -0.2077
 6629W        W23103  17.827   8.378   0.729  0.0303  0.3606  0.1170
 6630W        W23104  16.538   4.560   0.739  0.0965  0.1985 -0.1553
 6631W        W23105   5.284   7.055   1.905  0.4281 -0.1801  0.1188
 6632W        W23106   1.563   5.284   2.229 -0.0722 -0.2670 -0.0480
 6633W        W23107  17.316  12.521   3.783 -0.0698 -0.2069  0.2835
 6634W        W23108   8.469  16.219  14.105  0.0698 -0.0931  0.2593
 6635W        W23109  14.193  16.334   5.425  0.0482 -0.1730 -0.0579
 6636W        W23110   1.969   6.907   2.697 -0.2304 -0.1914 -0.2627
 6637W        W23111  10.858  10.064  14.264  0.3011 -0.4305  0.0856
 6638W        W23112  10.947   7.689  13.650  0.1293 -0.2455  0.2010
 6639W        W23113   2.295   9.750   2.085 -0.2501 -0.0530  0.0661
 6640W        W23114   4.283  11.496  14.141  0.0658 -0.1810 -0.0235
 6641W        W23115  17.205   7.807  14.292  0.2615 -0.0673 -0.2935
 6642W        W23116  11.891   7.833  16.421 -0.2135 -0.0458 -0.1669
 6643W        W23117   5.096  11.891  14.546  0.2136 -0.0466 -0.3103
 6644W        W23118  15.251   0.507   1.371  0.0042  0.2463 -0.0937
 6645W        W23119  16.016   4.298  16.300 -0.0205  0.0935  0.0066
 6646W        W23120   4.734  11.247  11.705 -0.0826  0.3090  0.1083
 6647W        W23121   0.864  12.689   3.347 -0.0116  0.1295  0.5015
 6648W        W23122  14.567  11.413  14.447 -0.0669 -0.0292 -0.3602
 6649W        W23123   9.251   1.838   1.208  0.0691 -0.2452 -0.2060
 6650W        W23124  14.294  11.836  14.813 -0.2257 -0.0408  0.1189
 6651W        W23125   5.303  13.406  13.313  0.2545  0.0639  0.3700
 6652W        W23126   4.128  11.940  13.870  0.0845  0.0501 -0.0654
 6653W        W23127  16.896   4.190   0.078  0.1676  0.1093 -0.3392
 6654W        W23128   4.742   2.578   4.781 -0.0083 -0.1938  0.0873
 6655W        W23129   0.643   3.960  16.580  0.0009  0.0949 -0.4522
 6656W        W23130   7.819   4.743  16.040 -0.0148 -0.1070 -0.0763
 6657W        W23131   3.216  11.921  10.443  0.0887 -0.0737  0.0300
 6658W        W23132  16.951  13.965   3.006  0.1357 -0.1865 -0.1027
 6659W        W23133  15.147   6.080   3.214  0.4082  0.0735 -0.1755
 6660W        W23134   4.815   1.896  13.935 -0.0531 -0.1177  0.0609
 6661W        W23135   6.387   8.305   1.281 -0.0451 -0.1524  0.4425
 6662W        W23136  11.020   0.613   5.325  0.2366 -0.3479  0.0075
 6663W        W23137   6.502   1.052   1.407 -0.1446  0.1207 -0.3807
 6664W        W23138   0.980   7.047  12.045 -0.0969  0.2261  0.0212
 6665W        W23139   9.162  14.554  16.336  0.1500 -0.0852 -0.0487
 6666W        W23140   5.241   9.050  14.319  0.1686  0.4060 -0.0592
 6667W        W23141  12.569  11.901  16.175  0.3207  0.0916 -0.0822
 6668W        W23142   9.990  12.683  13.262 -0.3356  0.1724  0.0658
 6669W        W23143  12.776   5.865  14.553  0.4387  0.1232  0.2904
 6670W        W23144   3.082   7.952  14.226  0.0034  0.3372  0.2330
 6671W        W23145  16.361  10.784   1.462 -0.1027  0.1920 -0.0421
 6672W        W23146  10.351  12.026   0.206  0.2757 -0.0742  0.2887
 6673W        W23147   9.039  13.598  11.822 -0.1170 -0.4429 -0.0881
 6674W        W23148  11.829  15.040   1.465 -0.0489  0.1502  0.1690
 6675W        W23149   1.939   1.933   0.657  0.0935 -0.1033  0.1146
 6676W        W23150  15.738  17.407   2.206  0.0851  0.1213  0.0333
 6677W        W23151   3.809   9.260   2.881  0.2614  0.1131 -0.0885
 6678W        W23152   9.911  14.243   4.448  0.0264  0.0638  0.0468
 6679W        W23153   8.592   8.863   4.069  0.1177  0.0852 -0.2329
 6680W        W23154  13.194  12.869   3.233  0.0427 -0.1208 -0.0779
 6681W        W23155  15.969   2.876   4.407  0.3140  0.0203  0.2559
 6682W        W23156  11.233   9.713   3.275  0.0419 -0.1614 -0.2670
 6683W        W23157   7.936  12.071   2.010 -0.0385 -0.1957 -0.1912
 6684W        W23158  16.860  16.986  14.417 -0.1367  0.2399 -0.0840
 6685W        W23159   0.453  14.323  11.498  0.3623  0.1987  0.3215
 6686W        W23160   6.798  12.488  13.477 -0.0764  0.1518  0.0363
 6687W        W23161  12.815   9.804  15.218  0.0592  0.0923  0.0289
 6688W        W23162   5.603  13.622  11.493 -0.0656 -0.0741 -0.1528
 6689W        W23163   7.524   4.821  13.156  0.0063 -0.1316 -0.1507
 6690W        W23164   4.994   5.767  12.604 -0.2069  0.0701  0.1394
 6691W        W23165   4.141   5.206   1.840 -0.0679 -0.3086 -0.1086
 6692W        W23166   3.733   4.095   2.032  0.0363  0.0773  0.1797
 6693W        W23167   3.931   2.004   3.879 -0.0341 -0.0212  0.1608
 6694W        W23168  10.089   7.206   0.073 -0.0690 -0.0314 -0.2480
 6695W        W23169  16.572   2.836   3.513  0.0050 -0.0431  0.0373
 6696W        W23170   8.030   8.767  14.497 -0.1105  0.2334 -0.2435
 6697W        W23171   4.527  12.703   2.775 -0.0725  0.1612 -0.0785
 6698W        W23172   3.733  13.521   0.209 -0.2584 -0.0438 -0.0506
 6699W        W23173  15.281  13.824   1.655 -0.4261  0.2326  0.0112
 6700W        W23174  16.638   7.671   0.236 -0.1445 -0.0066 -0.1766
 6701W        W23175  11.954  12.173   2.522 -0.0129 -0.0170 -0.0044
 6702W        W23176   4.770   9.769  15.534  0.1169 -0.0781  0.2797
 6703W        W23177   2.059   4.949  15.702  0.2706 -0.4131 -0.2362
 6704W        W23178  11.616   5.751  13.858  0.2328 -0.0556 -0.0464
 6705W        W23179  14.748   7.641   4.968  0.0185  0.3225  0.0417
 6706W        W23180  13.401  11.796  12.562 -0.0729  0.1248  0.0648
 6707W        W23181   0.529  15.338  11.840  0.0332 -0.1247  0.3045
 6708W        W23182   7.360  14.449  11.661  0.3909  0.2387 -0.0727
 6709W        W23183   7.536  14.954   1.090  0.0125  0.0017  0.1422
 6710W        W23184  15.756  13.339  16.146 -0.0484  0.0218  0.1063
 6711W        W23185   8.091   5.567   0.345 -0.0065  0.0437 -0.1579
 6712W        W23186   9.603   2.765  14.684  0.3518 -0.0990 -0.1309
 6713W        W23187  17.771   4.381  15.187 -0.2452 -0.1774 -0.0468
 6714W        W23188  17.721   1.323  12.406  0.2550 -0.2107  0.0080
 6715W        W23189  10.640  11.380   5.681 -0.0070  0.2380  0.0478
 6716W        W23190   9.659  13.727  15.210 -0.1523  0.1025  0.1382
 6717W        W23191   5.376  12.662   0.464  0.1109  0.1079  0.0685
 6718W        W23192  15.601   9.003   4.306  0.2789 -0.1021  0.1088
 6719W        W23193   6.265  13.973  12.980 -0.2919  0.3996 -0.0171
 6720W        W23194  14.285  15.143   2.274 -0.1373 -0.0932  0.1380
 6721W        W23195   4.655  14.279  16.719 -0.0952 -0.1173  0.0833
 6722W        W23196  15.217  11.463   3.124 -0.1124  0.0015  0.1061
 6723W        W23197   7.707   7.145   5.923 -0.0185 -0.0456 -0.5503
 6724W        W23198   0.599   6.001   4.333  0.1344  0.0376 -0.0861
 6725W        W23199  14.596  16.097   1.831 -0.0500 -0.0381 -0.0347
 6726W        W23200   6.412  12.543   2.518  0.0341  0.3006  0.0484
 6727W        W23201  12.105  11.443  12.773 -0.0973 -0.1121 -0.0918
 6728W        W23202   2.088  12.524   4.377  0.2690 -0.0624 -0.1391
 6729W        W23203   2.195  13.125   2.264  0.2211 -0.5629  0.0845
 6730W        W23204  13.012  16.029   5.556  0.2358 -0.2594  0.0607
 6731W        W23205  13.356   1.022   2.225  0.1164  0.1763  0.1544
 6732W        W23206  14.531   9.721  16.345  0.0567  0.6409  0.1768
 6733W        W23207  17.386   8.246  14.433  0.1485  0.0515 -0.0513
 6734W        W23208  12.437  16.189   2.087  0.4296 -0.0291  0.3841
 6735W        W23209   6.116  11.676   2.658 -0.1229  0.0006  0.0406
 6736W        W23210   1.077   5.220  14.028  0.0843 -0.2504  0.2988
 6737W        W23211   9.775   2.030   1.890 -0.0493 -0.3417  0.3737
 6738W        W23212  12.026   8.972  12.206 -0.1334  0.2151 -0.1977
 6739W        W23213   6.325  12.631  11.025 -0.2544 -0.1659 -0.0164
 6740W        W23214  13.563  10.003  12.398 -0.0027 -0.3456  0.2216
 6741W        W23215   7.937  14.548   3.276 -0.1441 -0.1323  0.2095
 6742W        W23216   1.419   4.370   4.944 -0.3343 -0.2695  0.4047
 6743W        W23217  11.117   2.003  15.420  0.1954 -0.1649 -0.0474
 6744W        W23218   2.772  16.611   4.477 -0.0740  0.0675  0.2459
 6745W        W23219   6.942   3.299  15.389 -0.1746 -0.2332  0.0847
 6746W        W23220   8.280  11.124   3.264  0.1524 -0.1374 -0.1065
 6747W        W23221  10.591   9.992   4.005 -0.0836  0.0589  0.1812
 6748W        W23222  10.686  14.442   3.312 -0.1836  0.3131  0.1828
 6749W        W23223  17.675   0.526  15.274  0.3840  0.0705  0.0565
 6750W        W23224  14.857  15.573   5.380 -0.1829  0.0435 -0.3337
 6751W        W23225  14.752  17.982  15.150  0.1782 -0.1139  0.1228
 6752W        W23226  15.464  15.203   5.682  0.0232  0.0445  0.1489
 6753W        W23227   0.429   0.211  15.692  0.3791 -0.0888 -0.2290
 6754W        W23228  12.009  11.697  12.227  0.0524 -0.0547 -0.0458
 6755W        W23229   1.146  11.773  11.064  0.2261 -0.1350 -0.1941
 6756W        W23230  12.772   2.229   1.229  0.0187  0.0903 -0.0261
 6757W        W23231   9.002   3.068  11.440 -0.3653  0.2511 -0.1652
 6758W        W23232   8.107  12.352  14.250 -0.0435 -0.1268 -0.1198
 6759W        W23233   8.697   3.810  16.303 -0.1009  0.2491  0.0522
 6760W        W23234   8.878   6.470   4.009  0.1341  0.2252 -0.2653
 6761W        W23235  15.568   5.444   4.701 -0.0090  0.4709  0.1472
 6762W        W23236   1.759  14.438  12.602  0.2366 -0.1860 -0.2182
 6763W        W23237   6.493   6.109  14.148 -0.2405 -0.1614 -0.0579
 6764W        W23238  16.075   1.758   3.207  0.1176 -0.1074 -0.2181
 6765W        W23239  13.243  13.928  11.798  0.2023  0.2359  0.2379
 6766W        W23240  12.333   7.114   2.259  0.2098 -0.1107  0.1957
 6767W        W23241   7.157   0.746  14.181 -0.0947 -0.1234  0.1424
 6768W        W23242  15.617  16.185   1.146 -0.5126 -0.1656 -0.2193
 6769W        W23243  13.480   6.319  13.764  0.3858  0.1595 -0.3046
 6770W        W23244  15.761  17.170   3.293  0.0272 -0.1308 -0.1195
 6771W        W23245   7.703   2.972   3.302  0.1935  0.1600  0.0398
 6772W        W23246   6.998   7.839  16.715 -0.1299  0.2603 -0.2041
 6773W        W23247   0.107  17.131  12.343 -0.4087  0.1366 -0.1546
 6774W        W23248  10.056  17.427   1.110 -0.0752  0.0881 -0.2988
 6775W        W23249  16.719   9.688   5.923 -0.0195 -0.0344 -0.0001
 6776W        W23250  10.103  11.617   2.100  0.1733 -0.1373 -0.0199
 6777W        W23251   7.907   6.614  15.728  0.0381 -0.0112 -0.0085
 6778W        W23252   1.089   3.101   5.721 -0.0305  0.0630  0.0349
 6779W        W23253  14.142   2.344  12.537 -0.1464  0.2015 -0.0224
 6780W        W23254   3.248  17.236  16.604 -0.0732  0.0702 -0.2584
 6781W        W23255   7.759  12.735  14.392  0.0122  0.0058  0.2531
 6782W        W23256  13.078  10.286   4.063 -0.3544 -0.1291  0.0846
 6783W        W23257  12.010  13.099  15.547 -0.0331  0.1757 -0.1631
 6784W        W23258   2.172   0.588   0.881 -0.0320 -0.2346  0.0943
 6785W        W23259   1.150   4.807  12.602  0.0645 -0.4623  0.4123
 6786W        W23260  16.372  16.889   0.937  0.0761  0.0635  0.2461
 6787W        W23261   2.339  15.188   1.147  0.0338 -0.1697 -0.0677
 6788W        W23262   9.993   8.076   3.888 -0.1157  0.0886 -0.2395
 6789W        W23263  10.092   9.037   4.953 -0.0573  0.1644 -0.0452
 6790W        W23264  14.104   4.654   5.673  0.1479 -0.0390 -0.0164
 6791W        W23265  11.041  14.619  15.283 -0.0888  0.0309  0.3263
 6792W        W23266   4.677  17.480   1.327  0.0629 -0.0900  0.2361
 6793W        W23267   6.728  13.637   5.389  0.1798  0.0297 -0.1574
 6794W        W23268   7.847  17.577  14.199  0.0449 -0.2728  0.1795
 6795W        W23269   8.237   3.491  13.515  0.2024 -0.0931  0.1846
 6796W        W23270  17.607  10.390   5.413  0.2007  0.1467  0.0861
 6797W        W23271  15.609   3.908   0.448 -0.2047 -0.0643  0.2270
 6798W        W23272  17.663   3.962  16.597 -0.1473 -0.2919 -0.3300
 6799W        W23273  13.659   9.112  16.683 -0.5546 -0.0395  0.1595
 6800W        W23274  14.681   3.545   4.508  0.0339 -0.0623  0.0473
 6801W        W23275  11.623   4.039  12.709 -0.0873 -0.0710 -0.0226
 6802W        W23276  16.955   4.054  13.480  0.2958 -0.1500  0.3576
 6803W        W23277   6.506   3.989   1.530  0.2146  0.1732 -0.1154
 6804W        W23278  11.865   3.687   1.851  0.1603 -0.0553 -0.0655
 6805W        W23279  16.505   0.386  15.800 -0.0747 -0.1574 -0.2922
 6806W        W23280   1.315   1.069  13.046 -0.1675 -0.0921 -0.0634
 6807W        W23281   3.325   4.679  14.422  0.1714  0.2188  0.1530
 6808W        W23282   5.531  11.382  15.575  0.0949  0.0001 -0.0373
 6809W        W23283   6.507   7.224  16.534 -0.1700  0.2340 -0.1488
 6810W        W23284  16.953   7.541  13.998 -0.0281 -0.0288  0.1319
 6811W        W23285   3.505  16.542  12.846 -0.2426  0.2681  0.0632
 6812W        W23286  10.734   8.171   1.663 -0.3366  0.0902 -0.1205
 6813W        W23287  13.011  11.794  12.930 -0.0008 -0.2789 -0.1020
 6814W        W23288   3.984   0.400  12.422 -0.0560  0.1054 -0.1644
 6815W        W23289   1.161  16.247   2.641  0.0908 -0.1198  0.0076
 6816W        W23290   2.918  17.019   4.754  0.1197 -0.1247 -0.0633
 6817W        W23291  12.631  11.155   6.192 -0.2793  0.1513 -0.2542
 6818W        W23292   9.274  13.453  15.851 -0.1837  0.3523 -0.2887
 6819W        W23293  12.956  17.107   1.844  0.2287 -0.2024  0.0121
 6820W        W23294  10.492  16.142   4.928  0.1419 -0.0189 -0.0349
 6821W        W23295   7.411   4.790   1.819 -0.0935 -0.0068  0.0265
 6822W        W23296  14.608  11.949   4.961  0.0259 -0.0110  0.0349
 6823W        W23297  16.923   2.340  11.709 -0.0323 -0.0520  0.4217
 6824W        W23298   2.762  10.183  12.651  0.2212 -0.1482 -0.1964
 6825W        W23299   6.750   8.148  14.603  0.3656 -0.0888  0.1210
 6826W        W23300   4.306  12.313   4.401  0.0744  0.0859 -0.3061
 6827W        W23301  14.895   7.750   1.398 -0.1819  0.0671 -0.0418
 6828W        W23302  10.479  17.384  13.241  0.2959  0.0481  0.1401
 6829W        W23303   1.223   0.323  12.053 -0.0944  0.0597  0.1343
 6830W        W23304  11.324   9.042   2.673 -0.0509  0.2376 -0.0598
 6831W        W23305  16.847  11.498   1.797 -0.3541 -0.0727  0.0763
 6832W        W23306   8.067  12.098  13.418  0.0108  0.1893  0.2956
 6833W        W23307   4.290   1.380  13.689  0.0264  0.2406  0.2949
 6834W        W23308   2.062   6.752  11.704  0.0885  0.3195 -0.0627
 6835W        W23309  15.633  12.213  12.264  0.0175  0.2434  0.2881
 6836W        W23310   5.861   7.548  13.797  0.1317  0.2670 -0.3103
 6837W        W23311  15.175   8.882   5.055 -0.1673 -0.1001  0.0002
 6838W        W23312  14.826  14.641   1.743  0.0233  0.1419  0.2582
 6839W        W23313   1.368  11.542  14.190  0.3063 -0.1045 -0.4189
 6840W        W23314   8.410   4.068  15.554  0.1377  0.3102 -0.1916
 6841W        W23315  15.179   7.693   5.765  0.1119 -0.0408 -0.2184
 6842W        W23316   3.530   3.777   4.065  0.0926  0.0783  0.0188
 6843W        W23317  10.687  15.321  13.570 -0.1894 -0.0376  0.0806
 6844W        W23318   0.648  11.855  12.019 -0.1236 -0.2630  0.0922
 6845W        W23319  13.826  13.407   2.690 -0.2346  0.1733  0.2448
 6846W        W23320  17.224  15.547  14.231 -0.3367  0.5009  0.1300
 6847W        W23321  16.385  12.575   5.382  0.0610 -0.1964 -0.1891
 6848W        W23322  13.751   2.820   2.401 -0.1913  0.1277 -0.1349
 6849W        W23323  16.907  10.917  13.059 -0.2278  0.1354  0.2096
 6850W        W23324   1.167   1.048   3.479 -0.1079 -0.3437 -0.0589
 6851W        W23325   9.548  13.877  11.828 -0.0680 -0.0897  0.2449
 6852W        W23326   5.953   6.892   2.632 -0.2433  0.0998  0.2405
 6853W        W23327   0.683   6.492   1.883  0.1796 -0.1034  0.1256
 6854W        W23328   6.184   2.231  12.858  0.0935  0.0067  0.0423
 6855W        W23329  13.343  17.907   4.267 -0.2640  0.0928 -0.1217
 6856W        W23330   0.148  15.240   5.879  0.0205 -0.1300 -0.4400
 6857W        W23331   6.042   3.651   0.807  0.0996 -0.1394  0.1099
 6858W        W23332  13.569  14.708   3.921 -0.0506  0.2861 -0.3305
 6859W        W23333   2.857   1.242  15.834  0.0110 -0.1265  0.3822
 6860W        W23334  14.034   5.990  14.974  0.0210 -0.3716  0.0382
 6861W        W23335   1.374  14.257   4.518 -0.1146  0.0228  0.1538
 6862W        W23336   4.051   5.418   3.345  0.0001  0.2051  0.2133
 6863W        W23337  12.497   9.015   4.649  0.0918 -0.0068 -0.0306
 6864W        W23338   2.290   1.069   2.756 -0.1686  0.0077  0.0799
 6865W        W23339  14.674   9.978   0.211 -0.2913  0.1398 -0.0204
 6866W        W23340  11.764  10.386  13.622 -0.3184  0.2115 -0.1085
 6867W        W23341   6.581   7.033   5.841  0.3844 -0.0723  0.0266
 6868W        W23342  14.667  10.200   2.972  0.0791 -0.0406  0.0277
 6869W        W23343   6.033  11.294  14.632  0.1337  0.1918  0.1339
 6870W        W23344  15.240   3.465   6.392  0.0974 -0.1035 -0.4009
 6871W        W23345  14.240   2.695  10.732 -0.0903 -0.0948  0.1442
 6872W        W23346   6.997   7.853  15.376  0.1475 -0.1637 -0.0672
 6873W        W23347   0.745   2.451   4.394 -0.0130  0.0187  0.1813
 6874W        W23348  11.849  16.363  15.770 -0.3440 -0.1714 -0.0056
 6875W        W23349  17.723  13.040   5.955  0.1216  0.2378  0.2006
 6876W        W23350   5.576   7.337   0.740  0.0652 -0.0874  0.0138
 6877W        W23351   0.685   4.881   0.517 -0.0797  0.0983 -0.3372
 6878W        W23352   7.328   6.014  16.335  0.0027 -0.0046 -0.0240
 6879W        W23353  11.553   2.548   2.043 -0.2985 -0.1103 -0.1605
 6880W        W23354   7.829   5.899   3.945 -0.0610 -0.0542 -0.0091
 6881W        W23355  10.842   4.312  13.378 -0.1529 -0.1752 -0.0138
 6882W        W23356  10.063   8.432   4.231  0.0417 -0.1348 -0.1782
 6883W        W23357  16.424   9.633   2.650 -0.0468  0.2149 -0.0620
 6884W        W23358  13.954  15.439   6.005 -0.2241 -0.6648  0.1409
 6885W        W23359  11.710  12.061   0.343 -0.0261 -0.2032  0.0037
 6886W        W23360   4.640   6.283   5.284  0.1872  0.3776 -0.0948
 6887W        W23361  10.420   1.160  12.829 -0.1264  0.2184  0.1403
 6888W        W23362   7.322   6.495   3.281  0.2590  0.0476 -0.0518
 6889W        W23363   7.448   5.568  15.976  0.1901 -0.0570  0.0055
 6890W        W23364   1.031   2.556   3.599 -0.4456 -0.2035 -0.0109
 6891W        W23365   0.484   3.904   2.072  0.1566 -0.1053 -0.2003
 6892W        W23366   0.697  10.526   5.707  0.1134  0.0352  0.1261
 6893W        W23367   6.236   6.192   5.863  0.0929  0.1629  0.0424
 6894W        W23368   4.211   9.449  13.732  0.1992 -0.0743  0.1609
 6895W        W23369  11.677   4.851  12.358  0.2309  0.4550 -0.1491
 6896W        W23370   1.362   2.763  13.769 -0.2598 -0.2033  0.2161
 6897W        W23371   3.414   4.623   5.632  0.2199 -0.2858 -0.1709
 6898W        W23372   9.413  16.438  13.198  0.1567  0.0938  0.0237
 6899W        W23373   5.764  10.087   5.181 -0.0722 -0.3090 -0.0307
 6900W        W23374   1.104   1.285  11.504 -0.0007 -0.1269  0.1446
 6901W        W23375  10.334   6.114   1.844  0.1402  0.0320 -0.1031
 6902W        W23376  11.918  12.223  15.332  0.2294  0.2526 -0.2009
 6903W        W23377  14.292   0.301   4.381 -0.0469 -0.0854 -0.1282
 6904W        W23378   0.256   8.926  13.827 -0.2085  0.1084  0.2160
 6905W        W23379   3.859  10.738   2.475  0.0726 -0.4015 -0.0592
 6906W        W23380   2.317   6.536   4.118  0.2313  0.3135 -0.4959
 6907W        W23381  11.621  10.800  15.979  0.0931 -0.0249 -0.1458
 6908W        W23382   7.092  15.526  14.592 -0.3161 -0.0550  0.1265
 6909W        W23383   8.463   6.616   1.308 -0.1406  0.0054  0.0097
 6910W        W23384   6.986   0.634   2.535  0.2426  0.1657  0.1453
 6911W        W23385   6.632  14.339   1.810 -0.1477  0.3411 -0.2938
 6912W        W23386  17.119   8.052  16.662  0.1199 -0.1857 -0.1824
 6913W        W23387  15.016   9.678  15.471 -0.1429  0.1679  0.1444
 6914W        W23388   7.636   6.930  12.864  0.1332 -0.1801  0.1368
 6915W        W23389  11.049   3.571  15.936 -0.0502 -0.2476 -0.2714
 6916W        W23390  15.422   0.108   1.137 -0.1902 -0.1633  0.2101
 6917W        W23391   9.950  10.836   3.382  0.3701  0.2804 -0.0405
 6918W        W23392  10.032   3.580  16.734 -0.0971  0.3080 -0.3530
 6919W        W23393   3.498  15.661  11.956 -0.0436  0.1992 -0.1540
 6920W        W23394   8.078   1.916  14.487  0.2720  0.0705  0.4231
 6921W        W23395   8.628   8.646   5.159  0.1278  0.0445  0.2040
 6922W        W23396  13.544  15.287  14.307 -0.1148 -0.1770 -0.0398
 6923W        W23397  14.627   3.404   3.645 -0.0035  0.1095 -0.1191
 6924W        W23398  14.155  17.812  15.739  0.0746 -0.0927  0.1885
 6925W        W23399  14.311  10.786   0.748  0.0744  0.3027 -0.1231
 6926W        W23400   0.879   6.270   1.477 -0.0932 -0.0226  0.0252
 6927W        W23401  11.287   0.941   3.950  0.2325  0.1748 -0.0611
 6928W        W23402   8.780   7.611  16.294  0.1312 -0.1210  0.3919
 6929W        W23403  17.369   9.512   4.513 -0.3268 -0.1017 -0.1811
 6930W        W23404   5.007   3.272  15.476 -0.0592  0.0941 -0.3244
 6931W        W23405  11.641   4.470   3.978  0.2994  0.3163  0.1125
 6932W        W23406   9.683   3.183   0.274 -0.0730 -0.0469  0.1814
 6933W        W23407   1.772   0.865  11.127  0.0452 -0.1674 -0.0796
 6934W        W23408   1.447  17.763   0.578 -0.2076 -0.1017  0.0207
 6935W        W23409   1.592   2.684  14.323 -0.1824  0.1685  0.0423
 6936W        W23410   2.417  15.145   5.172  0.1701  0.2541 -0.0639
 6937W        W23411   2.264   1.083   5.034 -0.3640  0.0345 -0.0399
 6938W        W23412  15.830   1.343   4.452  0.0762 -0.3707  0.0733
 6939W        W23413   4.844   1.819   1.151 -0.0398  0.4311  0.1465
 6940W        W23414  11.768   0.490  13.923 -0.0195 -0.0159 -0.1505
 6941W        W23415  14.541  16.027  14.790  0.0941 -0.0120 -0.1662
 6942W        W23416  16.859   9.194  12.752 -0.2227  0.0766 -0.1101
 6943W        W23417  16.392  16.432  12.350 -0.1598  0.2091  0.0798
 6944W        W23418  14.564   6.722  14.693  0.1140 -0.0990 -0.1740
 6945W        W23419   0.111  17.950   3.581 -0.2921 -0.1631 -0.2669
 6946W        W23420   4.262   6.655   5.120 -0.0097  0.1563  0.1029
 6947W        W23421   8.194   1.518  14.755  0.1535  0.0027 -0.1742
 6948W        W23422   7.899  10.974   1.401 -0.0898 -0.0381 -0.1027
 6949W        W23423  10.294  13.139  13.881 -0.0713  0.1509  0.1960
 6950W        W23424  15.747   7.060  14.439  0.1900  0.2584 -0.2946
 6951W        W23425  14.351   3.172   0.594  0.1329  0.3442  0.1496
 6952W        W23426  11.617   9.103  13.301 -0.0662 -0.3221  0.0771
 6953W        W23427   2.049  10.041   2.339 -0.0320 -0.0149  0.3187
 6954W        W23428  11.754   6.838   1.047 -0.1694  0.1558  0.1167
 6955W        W23429  15.005  11.939   6.033 -0.0807 -0.1716 -0.1180
 6956W        W23430  16.488  14.455   0.836 -0.0914  0.0448 -0.0482
 6957W        W23431   4.124  16.209  12.273  0.0055  0.0359  0.1729
 6958W        W23432   8.367   1.975  15.646  0.0650  0.1342  0.2938
 6959W        W23433  14.292   7.159  15.522 -0.0387 -0.1413  0.1411
 6960W        W23434  11.609  11.602   0.518 -0.1049 -0.0396 -0.0806
 6961W        W23435  17.462  15.348  11.736  0.1085 -0.2073  0.2013
 6962W        W23436  14.791   9.490   0.446  0.1351  0.0893 -0.1665
 6963W        W23437  10.040   7.741  14.802 -0.2491 -0.2076  0.0011
 6964W        W23438   9.381  13.596  14.266  0.0137 -0.0381  0.0057
 6965W        W23439   5.694   5.057  15.106  0.1284  0.3521 -0.1774
 6966W        W23440   9.166   2.463   4.142  0.0776 -0.2767  0.1727
 6967W        W23441   3.176  12.118   1.273  0.0058  0.0809 -0.1092
 6968W        W23442  11.805   3.293   3.383  0.3340  0.2313 -0.0146
 6969W        W23443  10.087   0.381   5.361  0.0347 -0.0880 -0.3615
 6970W        W23444   6.757  16.241  12.992 -0.2893 -0.0574  0.1084
 6971W        W23445   8.517   1.371  13.888 -0.1195  0.1868  0.2213
 6972W        W23446   6.937  12.291  15.157  0.4730  0.0084  0.2040
 6973W        W23447  12.149   8.283  13.958  0.3445  0.2900  0.0347
 6974W        W23448  17.546  16.298   2.269 -0.0352  0.0103 -0.1759
 6975W        W23449  10.035   3.767  14.544 -0.0350 -0.1919 -0.0769
 6976W        W23450  16.254   3.810   2.584 -0.1100 -0.2704  0.0968
 6977W        W23451  16.214   2.727  15.604 -0.0181 -0.1163  0.1266
 6978W        W23452  15.514  10.324   1.333  0.2671 -0.1644  0.2347
 6979W        W23453  10.318   1.848  13.328 -0.1837 -0.1181  0.0124
 6980W        W23454   2.104  13.546  13.275 -0.1603  0.1911 -0.2492
 6981W        W23455  14.321  16.789  11.806 -0.1408  0.0910  0.1638
 6982W        W23456   7.564  12.954   3.909 -0.0192  0.1225 -0.1795
 6983W        W23457   1.581   0.770   4.292  0.0250 -0.1323 -0.0487
 6984W        W23458  13.038   4.619  12.458 -0.1028 -0.0085  0.1714
 6985W        W23459   5.687  17.041  11.869  0.0675 -0.0670  0.0114
 6986W        W23460  11.107  12.288  13.687 -0.1646  0.1011  0.1860
 6987W        W23461   1.298   3.594  13.869  0.0483 -0.2055 -0.2948
 6988W        W23462   0.675  12.829   2.288  0.0648  0.3556  0.3165
 6989W        W23463  13.200   7.044  15.078 -0.0460  0.0063  0.0241
 6990W        W23464   3.896  12.402   4.671  0.2883  0.2746 -0.1894
 6991W        W23465  13.364   7.182  13.424 -0.0761  0.1703  0.1611
 6992W        W23466   8.547  10.510  10.571 -0.0273 -0.1203  0.1544
 6993W        W23467   3.763   9.100  14.826 -0.1254 -0.2648 -0.2732
 6994W        W23468  14.735   7.266  16.041 -0.0729 -0.1797  0.0384
 6995W        W23469   0.974   3.641   1.502  0.0796  0.1366  0.2130
 6996W        W23470   2.703   5.602  11.791  0.2754  0.1793 -0.0814
 6997W        W23471  14.919  17.014   3.374 -0.1106  0.0345 -0.1085
 6998W        W23472   9.651   7.776   5.279  0.0720  0.0772  0.3930
 6999W        W23473   9.018   8.579  15.395  0.0216 -0.1670 -0.0862
 7000W        W23474   0.630  14.334  15.434  0.0668 -0.0867  0.2735
 7001W        W23475   4.818  13.333  13.049 -0.1921 -0.0733  0.1125
 7002W        W23476   2.206  15.502   4.905  0.3019  0.2446 -0.3009
 7003W        W23477  15.847  15.215  15.410 -0.1299  0.2414  0.2064
 7004W        W23478  11.498   9.836   2.299  0.0669 -0.0765  0.0621
 7005W        W23479   0.466   5.132  13.392  0.0370 -0.1409 -0.0518
 7006W        W23480   6.461   4.167   5.166  0.0725  0.0484  0.1021
 7007W        W23481  13.015   5.275   4.135 -0.0166 -0.3549  0.0703
 7008W        W23482  14.487   8.010  15.565 -0.1627 -0.2553  0.3092
 7009W        W23483  14.756   3.581   1.015  0.3068 -0.2591  0.0736
 7010W        W23484   2.724   8.391  16.351  0.1138 -0.1596  0.1307
 7011W        W23485  10.463  17.423   0.251  0.1115  0.0988 -0.0679
 7012W        W23486  11.310   7.764  13.989  0.0617  0.0377  0.0931
 7013W        W23487   9.415   7.023  12.862  0.2392 -0.0531 -0.0973
 7014W        W23488   9.624   9.273   2.511  0.0561 -0.0356 -0.0571
 7015W        W23489   5.641   9.689   4.767 -0.1729 -0.2204 -0.0388
 7016W        W23490  12.385  13.048  12.215 -0.0653 -0.0658 -0.1630
 7017W        W23491  16.573  15.793  14.228  0.0222 -0.1696 -0.0773
 7018W        W23492  10.303  11.370  13.329 -0.0858  0.0811 -0.0541
 7019W        W23493  15.580   1.155  12.504  0.2124 -0.0039  0.1509
 7020W        W23494   1.448  10.249   1.732  0.0391  0.0880 -0.0174
 7021W        W23495  12.083   2.737  15.849 -0.1119 -0.0161  0.1579
 7022W        W23496  17.574  17.191  14.403  0.2479  0.3176  0.3317
 7023W        W23497  16.782   7.330   1.459 -0.0732 -0.0428 -0.0961
 7024W        W23498  17.734  10.946  16.559  0.0685 -0.1572 -0.1721
 7025W        W23499  14.938  17.533  14.268 -0.1323 -0.1735 -0.0927
 7026W        W23500  10.519  14.936   5.611  0.2757  0.3904 -0.0678
 7027W        W23501   4.742  15.009  14.614  0.0884 -0.1149 -0.2493
 7028W        W23502   1.345   4.818  13.408 -0.2921 -0.2419 -0.1018
 7029W        W23503   1.455   2.623   1.817  0.2351 -0.1477  0.1284
 7030W        W23504   4.861   8.042   1.032  0.0714  0.3393 -0.1648
 7031W        W23505   5.725   8.131  16.335 -0.0298 -0.0995 -0.2379
 7032W        W23506   1.178   4.150  15.387  0.0041 -0.1640 -0.0164
 7033W        W23507   0.955  15.275  14.690  0.0023  0.1086  0.2392
 7034W        W23508   0.649  11.112  16.242 -0.1092 -0.3035 -0.0967
 7035W        W23509   8.567  13.575   1.619 -0.2497  0.2545  0.0841
 7036W        W23510  13.303   6.820   5.091 -0.0486 -0.0365  0.3819
 7037W        W23511   2.914  14.380  13.254 -0.2577  0.0275 -0.1935
 7038W        W23512   5.021   1.597  13.250  0.0699 -0.2686 -0.0848
 7039W        W23513   0.367  12.208  13.787  0.2265  0.0616  0.1339
 7040W        W23514   5.095   9.925  16.080 -0.0566  0.0572 -0.0426
 7041W        W23515   7.938  14.600  15.180 -0.1584  0.2429  0.1461
 7042W        W23516  13.419  13.549   4.305 -0.2508 -0.0134  0.0127
 7043W        W23517  14.895  12.321  14.987  0.0686  0.2936 -0.0137
 7044W        W23518   7.677   5.548  13.624 -0.1083  0.1248  0.3188
 7045W        W23519  16.753  13.728  11.369 -0.0522  0.0497  0.0939
 7046W        W23520   3.193   3.544   4.348  0.0582  0.1251 -0.0806
 7047W        W23521  10.272  14.781  16.206 -0.0567  0.2371  0.2077
 7048W        W23522  15.277   7.418  12.756 -0.0302  0.0655 -0.1084
 7049W        W23523  14.868  10.028  16.449  0.2811 -0.1726 -0.1513
 7050W        W23524  15.324  12.405  16.364 -0.1445  0.0405 -0.0036
 7051W        W23525   6.714  12.528   0.481 -0.3465  0.0918  0.1325
 7052W        W23526   5.728   7.783  14.802 -0.0699 -0.3534  0.1547
 7053W        W23527   0.779   0.393  15.256 -0.0484 -0.1207 -0.2613
 7054W        W23528   2.334  11.799  12.168  0.1567 -0.0440  0.1623
 7055W        W23529  11.652   8.818  16.495 -0.1886  0.1398  0.1397
 7056W        W23530   2.664   2.902   4.156  0.0774  0.3814 -0.1444
 7057W        W23531   9.572   1.426   0.024 -0.1536  0.4153  0.0299
 7058W        W23532   3.000   1.160   3.079  0.1425 -0.2823  0.2369
 7059W        W23533  16.874   1.062  16.671  0.2536  0.0038  0.1058
 7060W        W23534  14.049   9.440   1.498  0.1161  0.4752  0.0891
 7061W        W23535   0.105   2.736  11.261  0.0493  0.1069  0.3194
 7062W        W23536   1.824  13.977  14.536  0.0028  0.2062  0.1509
 7063W        W23537   3.840  13.590  14.699  0.0947 -0.0140 -0.3429
 7064W        W23538   9.445  10.149  14.044  0.0662  0.0209 -0.1401
 7065W        W23539   1.741  14.100  14.087  0.0261 -0.1371  0.0049
 7066W        W23540   5.151  17.049  12.691  0.1178  0.3149 -0.0271
 7067W        W23541   8.540   9.321   4.192 -0.0939 -0.1300  0.1158
 7068W        W23542  17.974   4.654   2.987  0.0672 -0.0641  0.1375
 7069W        W23543   5.998   1.469  13.283 -0.2611  0.0299 -0.1478
 7070W        W23544  12.708   1.997   2.356  0.2312 -0.2751 -0.3303
 7071W        W23545   7.881   5.403  12.164 -0.1018 -0.0249  0.1178
 7072W        W23546   5.866  15.792   4.259 -0.3480 -0.0399 -0.1611
 7073W        W23547  12.635   8.399  13.813  0.2429 -0.3165  0.0124
 7074W        W23548   6.364  16.643   4.647  0.0464 -0.0463 -0.4449
 7075W        W23549   2.868  11.117  12.896 -0.0495  0.0571 -0.0776
 7076W        W23550  12.120   9.083  15.560 -0.0745  0.1997 -0.0472
 7077W        W23551   8.141  10.241   0.555  0.1288 -0.0567 -0.2747
 7078W        W23552  16.362   0.309  14.903 -0.1209  0.1707 -0.1369
 7079W        W23553   6.958   4.835  12.965 -0.2584  0.0132 -0.2295
 7080W        W23554  15.230  15.607  12.678  0.0776 -0.0740 -0.1627
 7081W        W23555  10.049  17.783   0.268  0.0852  0.4054 -0.2311
 7082W        W23556  13.651  10.820  11.334  0.0925 -0.0516  0.0606
 7083W        W23557  11.205   8.620  13.723  0.0293  0.0031  0.0832
 7084W        W23558   4.134  16.711   1.891  0.2871  0.0570  0.1065
 7085W        W23559  16.666  17.666  12.520 -0.0460  0.1630 -0.0599
 7086W        W23560  16.095  11.310   0.574 -0.1371  0.0676 -0.4997
 7087W        W23561  14.143   2.051  15.246  0.1824 -0.0195 -0.2807
 7088W        W23562   3.932   0.399  15.659  0.1756  0.1437 -0.1436
 7089W        W23563   1.425   6.187  13.714 -0.1176 -0.2500  0.0452
 7090W        W23564   9.494  15.879   4.851  0.0056  0.0308  0.0881
 7091W        W23565   7.218  12.961   4.257  0.2415 -0.3365 -0.3095
 7092W        W23566   5.107   8.458  15.112  0.0065  0.1036  0.1616
 7093W        W23567   8.735  16.340  13.718  0.1523 -0.0479  0.0790
 7094W        W23568  12.176   0.632   6.543 -0.0846 -0.0366 -0.2628
 7095W        W23569   4.845   9.279   4.885  0.0335  0.0776 -0.0471
 7096W        W23570   4.285  12.505   2.131  0.0432 -0.2463  0.0259
 7097W        W23571   7.079   1.108   5.388  0.1480  0.0780  0.0525
 7098W        W23572   9.279  17.383   4.898  0.4204 -0.2117 -0.1009
 7099W        W23573   2.870  13.861  13.456 -0.1087  0.4174 -0.3191
 7100W        W23574   9.639  16.144   0.534  0.0650  0.1387  0.1028
 7101W        W23575  14.086   5.568   0.756  0.3101 -0.0136 -0.2707
 7102W        W23576  10.424   7.208   2.461 -0.3279  0.2234 -0.0274
 7103W        W23577   2.552  11.372  11.734  0.1616 -0.3620  0.0012
 7104W        W23578  16.270   3.210  14.861  0.1310 -0.0776 -0.0760
 7105W        W23579   7.386  15.977   5.237  0.0953 -0.1571  0.1230
 7106W        W23580   9.330   3.837  15.657  0.0520  0.1356 -0.1677
 7107W        W23581  17.318   8.938  12.709 -0.2269 -0.3126  0.0914
 7108W        W23582   9.390  13.346   3.685  0.2763 -0.2954 -0.1631
 7109W        W23583   4.143   8.654   5.501 -0.1176  0.1022  0.0752
 7110W        W23584   3.448  12.483   0.983  0.0512  0.0098 -0.0805
 7111W        W23585   1.644   0.663  13.324  0.1906  0.0411 -0.1911
 7112W        W23586  13.825   0.142  15.734  0.3538 -0.1138 -0.3915
 7113W        W23587  14.413   5.309   6.203  0.3228  0.2799  0.0770
 7114W        W23588  12.476  14.099   0.729 -0.0077  0.0718  0.2545
 7115W        W23589   4.019   7.438  12.679 -0.2850 -0.2126 -0.2451
 7116W        W23590  15.874   9.797   6.063  0.1364  0.1150 -0.1800
 7117W        W23591  12.855   3.866   2.885 -0.2035  0.0765  0.1215
 7118W        W23592   7.385   7.639  15.161  0.4168  0.1155 -0.2717
 7119W        W23593  15.714   2.983  12.210  0.0361  0.2789 -0.0447
 7120W        W23594   0.088   2.016   4.687  0.0986 -0.0168 -0.1274
 7121W        W23595  12.824   7.058  16.548 -0.0286  0.2878  0.0034
 7122W        W23596  17.947   5.723   1.788 -0.3002  0.0724  0.0955
 7123W        W23597   3.302  12.683   3.409 -0.2659  0.3170  0.2415
 7124W        W23598   6.583  12.456  15.988 -0.1538 -0.3597 -0.0626
 7125W        W23599  14.282   3.946   0.666  0.1356  0.0300  0.0488
 7126W        W23600   6.221   4.536   2.129  0.0814 -0.0925 -0.1235
 7127W        W23601  10.846  13.642   5.113  0.2245  0.1409  0.2356
 7128W        W23602   1.364  13.263   1.017  0.1628  0.1308 -0.0314
 7129W        W23603  11.491   8.577   5.834 -0.5689  0.4184 -0.0519
 7130W        W23604  16.818   5.439  12.818 -0.0979 -0.0526 -0.0126
 7131W        W23605   2.452   9.347   5.757 -0.4004  0.2718  0.1141
 7132W        W23606  14.881   9.067  12.358  0.1468  0.0161 -0.2690
 7133W        W23607   9.596  14.430   2.785 -0.1494 -0.0800  0.0491
 7134W        W23608   8.048   9.038   1.540  0.0302  0.3052 -0.0605
 7135W        W23609  15.505  11.962  16.120 -0.0194  0.5239 -0.0618
 7136W        W23610   0.354  11.502  12.228 -0.1441 -0.1165 -0.0459
 7137W        W23611   1.661   7.121   5.352  0.4257 -0.0653 -0.1278
 7138W        W23612   4.256   0.209  13.613 -0.1598  0.4436 -0.0243
 7139W        W23613  17.051   2.461  12.768  0.2475 -0.1284  0.1911
 7140W        W23614  15.361   3.279  15.457 -0.1418 -0.1162 -0.3335
 7141W        W23615  14.096  13.166   1.333 -0.2728  0.0091 -0.0461
 7142W        W23616   6.881   3.982   1.922  0.0996 -0.1304  0.1429
 7143W        W23617   6.435   9.653  14.984 -0.2547  0.2811  0.2185
 7144W        W23618   6.438  12.534   3.120  0.1103 -0.1694 -0.0789
 7145W        W23619  15.519   4.995  11.259  0.4089  0.1752  0.2194
 7146W        W23620   7.716   3.281   2.192  0.1178  0.1085 -0.0818
 7147W        W23621   2.201  15.143   3.202  0.0972  0.3949  0.0658
 7148W        W23622  13.593  10.794  12.704 -0.2475 -0.0908 -0.0383
 7149W        W23623  14.277   1.947   2.220  0.1659  0.2877 -0.0716
 7150W        W23624  12.002   5.915   3.204 -0.0020 -0.0399 -0.1686
 7151W        W23625   5.405  12.995   6.123 -0.2637  0.2396 -0.0061
 7152W        W23626  17.557   1.198  15.934  0.0500  0.0558 -0.2117
 7153W        W23627   0.076   9.265   2.474  0.0682 -0.0216  0.3194
 7154W        W23628  16.092   1.554   0.813  0.0133  0.1247  0.1796
 7155W        W23629  10.776  15.389  14.998  0.1735  0.1242 -0.1611
 7156W        W23630  11.430   2.332  15.365 -0.2049  0.3336 -0.1304
 7157W        W23631  11.134   4.000   3.526 -0.0710  0.1831  0.1826
 7158W        W23632  15.341   7.924  15.952  0.1641 -0.0148 -0.2144
 7159W        W23633  11.372   0.486   3.341  0.1943  0.2014 -0.1065
 7160W        W23634   0.717  13.784   4.168  0.1747 -0.0291 -0.0342
 7161W        W23635   7.814   4.229  16.057 -0.1011 -0.0408 -0.1515
 7162W        W23636  13.384   0.122  15.463 -0.2577 -0.2945 -0.2780
 7163W        W23637   0.314  17.119  12.857  0.0696  0.0990 -0.1184
 7164W        W23638   6.865   1.993   1.499  0.0360 -0.0101  0.0307
 7165W        W23639  10.166  13.157   1.600  0.0061  0.2041  0.0485
 7166W        W23640  13.514   9.484  14.280 -0.2617  0.2815 -0.2135
 7167W        W23641   6.727   3.103   5.321 -0.1297  0.2363  0.1046
 7168W        W23642   9.272  11.706  13.047  0.0034 -0.0208  0.0725
 7169W        W23643  12.684  11.911   0.914 -0.0079 -0.1557 -0.0802
 7170W        W23644  12.203   9.044   4.266  0.0834 -0.1595 -0.1594
 7171W        W23645  13.565   7.231   5.229  0.0550  0.1639 -0.1739
 7172W        W23646  16.249   1.378  14.615  0.5339  0.0736  0.3679
 7173W        W23647   6.749   8.026   3.362 -0.0139  0.0844  0.0805
 7174W        W23648   5.092   2.428  13.881  0.1793 -0.1029 -0.2575
 7175W        W23649   7.832  12.038  13.943  0.1032 -0.0780  0.1635
 7176W        W23650   9.287  14.423  12.407 -0.2948 -0.0851  0.1578
 7177W        W23651   0.386   7.654  12.583  0.0247 -0.2535  0.0413
 7178W        W23652   4.328  13.718  16.121 -0.1646  0.2871  0.0875
 7179W        W23653  10.181   9.688   4.234 -0.0009  0.2154 -0.2923
 7180W        W23654  10.871  10.104   5.262  0.2489 -0.1757 -0.0020
 7181W        W23655  16.778  10.387   0.303  0.5159  0.0069  0.0607
 7182W        W23656  16.618  13.448   5.688  0.2392 -0.1082 -0.0063
 7183W        W23657  14.698   6.287   1.694 -0.2518  0.4480  0.1069
 7184W        W23658  15.447   7.246  15.494  0.3384  0.1912  0.1952
 7185W        W23659   7.190   5.295   1.376  0.0399 -0.0590 -0.1206
 7186W        W23660   0.919  12.467  11.685  0.1921 -0.1347  0.3271
 7187W        W23661   3.843  17.759   5.426  0.0576 -0.1723 -0.1448
 7188W        W23662  17.920  11.986  13.693  0.1218 -0.0904  0.0107
 7189W        W23663   4.457   5.630   2.576  0.0402  0.4593 -0.0321
 7190W        W23664  14.647  10.180   5.019 -0.0591  0.2079  0.1471
 7191W        W23665   3.681   1.423  14.623  0.1012  0.2540 -0.0079
 7192W        W23666   9.691   8.871   2.247 -0.1441  0.0858  0.0374
 7193W        W23667  14.009  15.825  16.294 -0.2056 -0.1913 -0.2382
 7194W        W23668   9.561  13.530  13.727  0.0952 -0.1466  0.0477
 7195W        W23669   2.885   9.214   1.424 -0.2546  0.2879  0.0099
 7196W        W23670   6.534   0.069  14.270 -0.0043  0.1356  0.1866
 7197W        W23671  12.817   9.282  15.980 -0.1034 -0.1158 -0.1330
 7198W        W23672  10.549   1.611   2.025  0.4182 -0.1665 -0.0692
 7199W        W23673   9.955   4.304  12.077 -0.0214 -0.0840 -0.1030
 7200W        W23674  15.698  11.944  16.606 -0.0990 -0.1617 -0.1144
 7201W        W23675   4.883   9.942   2.539  0.0704  0.1459  0.2469
 7202W        W23676   5.793  11.082  15.960  0.1078 -0.0969  0.0313
 7203W        W23677  13.270   0.512  12.861  0.1546 -0.1624 -0.1899
 7204W        W23678   9.515   6.268  12.153  0.1644  0.1216  0.0097
 7205W        W23679   1.843   3.217   5.155 -0.1413 -0.1106 -0.2757
 7206W        W23680  13.502   4.677  12.138  0.0427 -0.0173 -0.1658
 7207W        W23681   1.230   8.764   6.388  0.2257  0.1582 -0.2037
 7208W        W23682  14.419   8.408   2.539  0.0605  0.1651  0.0906
 7209W        W23683   4.215   1.231   0.004 -0.0117 -0.0634  0.1748
 7210W        W23684   5.715   8.172  15.233  0.0381  0.0228  0.3452
 7211W        W23685   0.753  15.039  13.982  0.2504 -0.1642 -0.4051
 7212W        W23686   6.241   2.470  16.371  0.2105  0.3419  0.1011
 7213W        W23687   7.394   5.557  12.570 -0.2700 -0.2912  0.2971
 7214W        W23688   6.250   3.733   5.595 -0.0605  0.0179 -0.1625
 7215W        W23689  13.995  14.565  14.187  0.2031 -0.1398 -0.2388
 7216W        W23690   9.001   9.724   5.379  0.1014  0.0942 -0.1279
 7217W        W23691  15.838   7.974  14.678  0.2660  0.1693  0.2001
 7218W        W23692  13.653  13.014   3.345  0.1622  0.0158 -0.1194
 7219W        W23693   7.371   4.169   3.225 -0.0078  0.3015  0.0042
 7220W        W23694   5.317   4.577   2.212 -0.0046  0.2026  0.0394
 7221W        W23695   5.452   3.090  15.594  0.1095  0.1273  0.3840
 7222W        W23696   1.220   5.255  15.988 -0.3056 -0.0114  0.0139
 7223W        W23697   1.654  16.779   3.756 -0.0889  0.0686  0.2096
 7224W        W23698  11.490  11.376  12.771  0.5055 -0.1571 -0.0423
 7225W        W23699   7.691  10.067   1.426  0.0610  0.0855  0.0969
 7226W        W23700  15.966  17.653   4.286 -0.1585  0.2334  0.2611
 7227W        W23701  11.018  13.188   5.165  0.1664 -0.2377  0.2374
 7228W        W23702   9.427   7.596   4.823 -0.1604 -0.1275 -0.2380
 7229W        W23703   4.074   0.304  12.935 -0.2830 -0.1182  0.2713
 7230W        W23704  13.396   2.744   5.646 -0.1004 -0.1230 -0.1763
 7231W        W23705  15.065   7.864   2.576 -0.3160  0.0460 -0.1592
 7232W        W23706   5.326   2.276  12.622 -0.0398  0.1147 -0.3558
 7233W        W23707   3.915  11.950  13.293 -0.3110  0.0724  0.1310
 7234W        W23708   1.579  16.419   4.060  0.2904  0.1574 -0.0171
 7235W        W23709  14.159  12.413  15.859 -0.3641 -0.0181  0.0704
 7236W        W23710   6.516   5.231   0.610  0.0068 -0.1879  0.1139
 7237W        W23711  10.812  13.628  11.559  0.0912  0.2616 -0.4306
 7238W        W23712  12.294  13.339  15.919  0.0297  0.2462  0.1068
 7239W        W23713  15.983   1.261   5.775  0.0094  0.3083 -0.0163
 7240W        W23714   7.895  11.562  11.605  0.0868 -0.3868  0.1662
 7241W        W23715   2.151   7.781   0.924 -0.0320  0.1822  0.1292
 7242W        W23716   8.357  11.223   5.140  0.2083  0.4287  0.1840
 7243W        W23717  17.494  17.732  12.938  0.3204  0.2217 -0.0124
 7244W        W23718   9.360   7.357   0.272 -0.0417  0.4607 -0.0428
 7245W        W23719   3.238   1.727   4.997 -0.2928 -0.1911 -0.1142
 7246W        W23720  11.694   2.526   4.904 -0.0002 -0.4408 -0.2526
 7247W        W23721  10.232  10.972  13.766  0.0258 -0.1471 -0.3148
 7248W        W23722  11.129  12.206  14.763  0.0563 -0.1531 -0.1125
 7249W        W23723   1.380  14.236   1.407  0.0899  0.1686 -0.0235
 7250W        W23724  12.500   4.930  12.464 -0.1424  0.0117  0.1684
 7251W        W23725  16.885  17.855   4.094  0.1422 -0.1241  0.1443
 7252W        W23726   7.699   9.110  10.866 -0.2992 -0.1035  0.0132
 7253W        W23727  14.006   1.688   3.368  0.0093  0.0344  0.0553
 7254W        W23728  17.858   1.451  13.352 -0.1344 -0.0370 -0.2782
 7255W        W23729   7.719  15.125  13.792 -0.0095 -0.2512 -0.0045
 7256W        W23730   1.803  11.860  11.533 -0.0863 -0.0190  0.1197
 7257W        W23731  13.479  12.410  13.360 -0.2164 -0.3445  0.0854
 7258W        W23732  10.724   1.700   4.114 -0.0587  0.3868  0.0835
 7259W        W23733   1.785   8.103   5.271  0.0777 -0.0710 -0.0417
 7260W        W23734  16.343   1.121   2.000 -0.1953  0.2764  0.0992
 7261W        W23735   9.306   3.961   3.529  0.1314 -0.1599  0.0152
 7262W        W23736   8.651  17.285  12.732 -0.3097 -0.0633  0.1192
 7263W        W23737   5.290  13.710   3.804  0.1678 -0.0856 -0.0287
 7264W        W23738   8.992   5.614  13.521  0.2216  0.1784  0.2354
 7265W        W23739   9.790   7.366   1.063 -0.1396  0.0893 -0.1724
 7266W        W23740  13.746   6.029  13.339 -0.0003 -0.1145  0.0552
 7267W        W23741  11.264   8.552   2.640  0.0116 -0.1342 -0.0835
 7268W        W23742  11.819  11.769  13.612  0.1685  0.0507  0.0903
 7269W        W23743  16.293  16.632   2.640 -0.1029  0.0339 -0.2953
 7270W        W23744   3.767  15.424   3.685  0.0345 -0.0023  0.2260
 7271W        W23745   4.521  15.866   2.857 -0.1503  0.1384 -0.1675
 7272W        W23746   3.886   4.816   2.647 -0.2213  0.0866 -0.0117
 7273W        W23747  11.233  11.072   4.520 -0.0020 -0.0153  0.2120
 7274W        W23748   0.554  10.062   4.621  0.1691 -0.0805 -0.3389
 7275W        W23749   2.282   0.098   5.740 -0.1833  0.0927  0.2424
 7276W        W23750   3.964   8.822  16.193 -0.2739  0.1772  0.1582
 7277W        W23751  17.810   8.986   2.134  0.2596  0.1680  0.0823
 7278W        W23752   5.516   4.830   3.792 -0.1965  0.1801  0.3138
 7279W        W23753   1.143  17.617  14.768 -0.2110 -0.1262 -0.0128
 7280W        W23754   4.303  14.092   4.878  0.0437  0.0810 -0.2534
 7281W        W23755   9.761  14.186  15.086  0.2590  0.0840  0.0082
 7282W        W23756   0.824  16.879   1.791  0.1106  0.0097 -0.0333
 7283W        W23757  11.664  11.499   1.475  0.0276  0.1025 -0.0217
 7284W        W23758  12.073   0.703  16.553 -0.1238 -0.0657 -0.1787
 7285W        W23759   4.705   4.686   4.576  0.0945 -0.1676  0.2549
 7286W        W23760   8.721   9.858   3.547  0.2389 -0.0007 -0.0446
 7287W        W23761  14.533  10.917   0.324  0.0158  0.0340 -0.0665
 7288W        W23762  10.326  14.052   3.334 -0.1572 -0.0134  0.0620
 7289W        W23763   5.666   1.421  12.905 -0.1689  0.1437 -0.2464
 7290W        W23764   2.642   5.141   1.518 -0.0757  0.0043 -0.0326
 7291W        W23765   9.955  15.419   1.407  0.1701  0.0015 -0.0290
 7292W        W23766  12.121  11.950   5.865 -0.1427  0.3807  0.0613
 7293W        W23767  15.690  10.054  12.347 -0.1490  0.0763  0.1668
 7294W        W23768  15.655  13.992   3.979 -0.0831  0.1198 -0.1550
 7295W        W23769  16.052  15.891   1.028 -0.0317  0.0634  0.0870
 7296W        W23770  12.980   7.263   5.118  0.0784  0.0787  0.2670
 7297W        W23771  10.773   1.213  13.730  0.3465  0.0105 -0.0548
 7298W        W23772   1.472   3.403  12.518  0.0486 -0.0823  0.2247
 7299W        W23773   8.329   1.950   4.142  0.0059  0.0232  0.2368
 7300W        W23774  15.189   7.323  13.222  0.0428  0.0213 -0.0415
 7301W        W23775  11.190   5.287   0.180  0.0144 -0.0752 -0.1980
 7302W        W23776   3.005   1.840   4.082 -0.1991 -0.3172  0.0872
 7303W        W23777   5.189   3.903  16.783  0.0117 -0.1116  0.1513
 7304W        W23778   8.249  14.241  13.780  0.0264 -0.1627 -0.1227
 7305W        W23779   9.162   4.313   3.925 -0.1075  0.0944  0.0063
 7306W        W23780   5.148   0.805   1.954 -0.0660 -0.0905 -0.0060
 7307W        W23781  12.053   0.472  13.470  0.0076 -0.1221  0.0092
 7308W        W23782  14.805   2.430   0.938  0.2733 -0.0418 -0.0580
 7309W        W23783  11.371   1.217  15.406  0.0241  0.3082 -0.1150
 7310W        W23784   4.969   0.891  14.093 -0.2523  0.1846  0.1970
 7311W        W23785   4.361   0.325   1.183  0.1347 -0.2069  0.0989
 7312W        W23786  11.761  16.025  11.958 -0.0134 -0.2951 -0.0111
 7313W        W23787  11.049   3.035   1.516  0.1767  0.2080 -0.0532
 7314W        W23788  10.614   2.088  14.983 -0.1038  0.0126  0.1007
 7315W        W23789  12.539   4.099  16.659 -0.0066  0.0348 -0.1115
 7316W        W23790   1.578   2.937  12.771 -0.1114 -0.1342  0.2727
 7317W        W23791  14.401   2.993   0.075 -0.0779  0.1373  0.0512
 7318W        W23792  17.450  12.785  12.965  0.2153  0.0366 -0.0556
 7319W        W23793  17.715  14.355   2.704 -0.0365  0.2224  0.1197
 7320W        W23794   8.989   3.251   3.985  0.1439 -0.0036 -0.0708
 7321W        W23795  11.143   3.310  13.395  0.1675  0.3389  0.1436
 7322W        W23796   8.431   0.253   0.224  0.0074  0.0019  0.0323
 7323W        W23797  11.550   7.527   1.633  0.0213 -0.1087  0.0674
 7324W        W23798   2.656   7.159  16.619 -0.3876  0.2191 -0.1260
 7325W        W23799  10.651  12.238   4.836 -0.2353  0.0151 -0.1940
 7326W        W23800   3.912   1.923   5.737 -0.1937  0.0557  0.0869
 7327W        W23801   4.862  17.533   4.543 -0.0810  0.0510  0.2002
 7328W        W23802   4.084   7.858  13.736 -0.1857  0.3912 -0.2122
 7329W        W23803   2.935   4.513   0.086  0.0663  0.0400 -0.1620
 7330W        W23804  14.794   4.911   3.654 -0.2926  0.0809  0.0411
 7331W        W23805   8.416   3.612  11.409  0.1551  0.1190  0.1210
 7332W        W23806   2.167  14.905   0.663 -0.2305 -0.0368  0.0335
 7333W        W23807  10.699  14.095   5.024 -0.0095 -0.1070  0.0710
 7334W        W23808  12.948   6.144  12.883 -0.0307  0.1549 -0.4623
 7335W        W23809   8.259  16.587   1.611  0.1300 -0.2710  0.0181
 7336W        W23810   5.093   3.420   0.931  0.3457 -0.0023 -0.1838
 7337W        W23811   4.619   5.663  15.464  0.1447  0.0342  0.0316
 7338W        W23812   6.784   3.537   1.706  0.5559 -0.0402 -0.0000
 7339W        W23813   1.935  13.382  16.711  0.1430 -0.0503 -0.1166
 7340W        W23814   7.406  15.910  16.626  0.0430  0.1568  0.1362
 7341W        W23815   9.018  11.960  16.568  0.0844  0.0240  0.0881
 7342W        W23816  13.523   0.518  13.399  0.2612  0.0614 -0.2313
 7343W        W23817  10.343   4.341  13.900 -0.0303 -0.3487 -0.1116
 7344W        W23818   9.785   8.195   5.531 -0.0236 -0.1678  0.1445
 7345W        W23819  14.035   8.600  13.338  0.2836  0.2654  0.1351
 7346W        W23820  17.348   9.131  13.942  0.1603 -0.1154  0.0860
 7347W        W23821  15.880   6.079   0.224 -0.0462 -0.1674 -0.1665
 7348W        W23822   9.688  13.946   4.785  0.2649  0.2038  0.0434
 7349W        W23823   9.024   6.304   4.466  0.0233  0.0445  0.1365
 7350W        W23824   2.700   6.449   3.234  0.2028  0.1270 -0.0390
 7351W        W23825   8.552   3.468   3.382  0.3215  0.0485  0.0143
 7352W        W23826   2.431  12.482  12.921 -0.3325 -0.3306  0.1610
 7353W        W23827   2.657  15.541   3.678 -0.1380 -0.0394 -0.0575
 7354W        W23828   5.830   6.308  13.232  0.0174  0.0106  0.0946
 7355W        W23829  12.560  10.845   4.991  0.1907 -0.1961 -0.1255
 7356W        W23830  17.233   1.553   4.826 -0.1120 -0.2325  0.2336
 7357W        W23831  12.548  15.067  11.977 -0.4716 -0.0903 -0.3676
 7358W        W23832   8.548  14.069  11.144  0.1930  0.2036  0.0762
 7359W        W23833   0.235   3.618  15.660  0.2749 -0.0437  0.0376
 7360W        W23834   4.706   5.859   1.504  0.0451  0.2898  0.0050
 7361W        W23835   3.901  17.201  12.329 -0.1781  0.1000 -0.0049
 7362W        W23836   6.182   7.961  14.991  0.1434 -0.1348 -0.1962
 7363W        W23837   6.995  16.245  16.224  0.1135  0.4259  0.0552
 7364W        W23838  16.527   6.950  11.263  0.0123  0.0944 -0.2301
 7365W        W23839  11.584   6.978  14.478  0.0248  0.0143 -0.2349
 7366W        W23840   1.907  14.905  14.263 -0.1100  0.0418  0.3719
 7367W        W23841   8.340   7.367   1.800 -0.2117  0.2433  0.0933
 7368W        W23842  14.026   9.664  12.506 -0.2224 -0.1724  0.0251
 7369W        W23843   0.739  13.439  15.325  0.0154  0.0355  0.0864
 7370W        W23844   2.892  11.393   1.345  0.1908 -0.1612 -0.1293
 7371W        W23845  10.004   2.546   4.121 -0.2419 -0.1988 -0.2978
 7372W        W23846  10.935  11.018  12.833 -0.1228 -0.1550  0.0180
 7373W        W23847   9.772   0.287   2.986 -0.0586  0.1239 -0.1458
 7374W        W23848   6.708   2.102  13.496 -0.2207 -0.0371  0.0457
 7375W        W23849  17.203  13.154   3.182 -0.1989 -0.4523  0.4168
 7376W        W23850   6.827  16.217  12.488  0.1629 -0.6309 -0.4741
 7377W        W23851  16.930   0.962   6.003  0.1515  0.0957 -0.1400
 7378W        W23852   4.176  10.965  14.885 -0.0289  0.3294 -0.0432
 7379W        W23853  11.803   8.714   5.328  0.0789 -0.0506 -0.1920
 7380W        W23854  12.456  15.961  13.624  0.2248  0.2880  0.2395
 7381W        W23855   6.940   4.171  14.529  0.1202 -0.1323 -0.0370
 7382W        W23856   2.430   6.960   1.755  0.1160 -0.2204 -0.1365
 7383W        W23857  13.669  16.184  16.419  0.1440 -0.1715 -0.2806
 7384W        W23858   2.963  10.719  13.329  0.0845  0.1199  0.1915
 7385W        W23859  13.242   3.262  14.131 -0.0193 -0.0074  0.1861
 7386W        W23860   0.066  17.120   5.706  0.0753  0.1856  0.0681
 7387W        W23861   3.213   7.098   1.235 -0.0576 -0.0385 -0.2992
 7388W        W23862   2.072   6.572  15.752  0.1010 -0.3202 -0.3139
 7389W        W23863   7.728  15.405  13.334  0.0677 -0.0051  0.0781
 7390W        W23864   3.690   8.219  15.293  0.0206 -0.1276  0.3960
 7391W        W23865  10.490   3.823  16.663 -0.2052  0.0524 -0.0062
 7392W        W23866  11.900  10.334   4.507  0.0481  0.0872 -0.2715
 7393W        W23867  15.561   7.676   2.593  0.0399 -0.1861 -0.0903
 7394W        W23868   1.929   7.417  12.326  0.1032  0.1927 -0.0090
 7395W        W23869   8.006  10.474  16.093  0.2053  0.0367  0.0604
 7396W        W23870   9.128  10.832   3.304 -0.0812  0.0225  0.1522
 7397W        W23871  12.616   9.542  14.400  0.0145 -0.0044  0.2048
 7398W        W23872   3.717   2.449  12.628 -0.0431  0.2520 -0.2362
 7399W        W23873  10.289   1.715  12.833  0.4265  0.0310 -0.0303
 7400W        W23874   9.481   3.980  13.523 -0.3605  0.3112 -0.0547
 7401W        W23875  12.457   7.265  12.289 -0.2165 -0.1098  0.1538
 7402W        W23876   7.634   9.237  12.090 -0.0594 -0.0558 -0.2832
 7403W        W23877   1.311  15.473   3.131 -0.1130 -0.1717 -0.0068
 7404W        W23878   3.687   8.068  11.445  0.1113  0.0569 -0.0091
 7405W        W23879   5.650   9.706  16.496 -0.0988 -0.2843  0.1381
 7406W        W23880   3.480   7.106  12.771 -0.0185  0.1224 -0.1500
 7407W        W23881   2.729   8.698   2.625 -0.0715 -0.1516 -0.5012
 7408W        W23882   9.613   1.463  11.126  0.0792 -0.0916  0.0127
 7409W        W23883   2.697   4.631   4.970  0.1580  0.3913 -0.1004
 7410W        W23884   1.594   3.295  13.390  0.2139  0.1983 -0.2034
 7411W        W23885   0.237  12.162  15.314 -0.2185  0.2991 -0.0191
 7412W        W23886   2.798  15.639   2.244  0.1112  0.0145 -0.1299
 7413W        W23887   9.262   3.359   4.862 -0.1749  0.1729  0.2707
 7414W        W23888   8.899   6.055   5.817  0.1592  0.1994  0.2137
 7415W        W23889  14.306   4.061  12.517 -0.1300  0.0641  0.2209
 7416W        W23890  15.374  13.430  15.628 -0.2995 -0.4060  0.0337
 7417W        W23891  11.206   0.079  11.604  0.0573  0.0996  0.3560
 7418W        W23892  10.458   1.845   2.526 -0.0134  0.0694  0.0750
 7419W        W23893  12.657   9.475   0.082  0.3329 -0.1692 -0.1341
 7420W        W23894   6.922   1.087   0.233 -0.0247  0.0566 -0.1631
 7421W        W23895   1.419   5.516  13.795  0.0974 -0.2935 -0.2455
 7422W        W23896   1.830   9.086   3.574  0.1387  0.3134 -0.0479
 7423W        W23897   1.569  12.321  13.479  0.3727 -0.0363  0.0269
 7424W        W23898  15.864  13.944   0.358  0.0941 -0.0832  0.0890
 7425W        W23899   9.517   7.673   0.706  0.0705 -0.1320 -0.3354
 7426W        W23900   6.268  10.024  12.567  0.0433 -0.2684 -0.1463
 7427W        W23901  14.973  13.092   2.308 -0.2585  0.0087  0.0061
 7428W        W23902   0.064   5.637  15.839 -0.0239 -0.0392 -0.0407
 7429W        W23903  12.223   5.034  15.182  0.4842 -0.1543 -0.1389
 7430W        W23904  15.848   0.927   2.704  0.1553 -0.0225 -0.0580
 7431W        W23905  10.363   4.027   3.599  0.0928 -0.0359  0.0630
 7432W        W23906  10.423   0.696   1.789 -0.0179 -0.1407 -0.0821
 7433W        W23907  12.206  16.996  12.908 -0.2192  0.0260  0.0757
 7434W        W23908   1.970   7.658  16.193  0.0736  0.1149  0.1690
 7435W        W23909   3.106   6.356  14.816 -0.3451 -0.0262 -0.1001
 7436W        W23910   7.130  13.096  15.567  0.0610  0.0981  0.0185
 7437W        W23911   9.806  11.077  11.887 -0.0488  0.0930 -0.1220
 7438W        W23912   5.558   6.005   3.965 -0.0405 -0.0974  0.0105
 7439W        W23913   3.755  12.585  12.196 -0.0379 -0.1657 -0.0990
 7440W        W23914  12.821  10.303   4.558 -0.1677 -0.3656  0.2534
 7441W        W23915   6.661   1.674   2.099  0.0253  0.1487 -0.2241
 7442W        W23916   2.930   1.752   0.449 -0.0811 -0.0142 -0.1702
 7443W        W23917  13.775   6.538  15.106  0.2827  0.0022  0.3280
 7444W        W23918   6.586  17.268   4.987 -0.3973  0.4344  0.0240
 7445W        W23919  16.783  10.957  13.690  0.0878  0.1671 -0.2515
 7446W        W23920   8.001   3.229  12.000  0.2088 -0.1077  0.0549
 7447W        W23921   0.847   7.655  13.812 -0.0623 -0.1008 -0.0748
 7448W        W23922   7.273  16.779  13.875 -0.2080  0.2215 -0.0081
 7449W        W23923   2.778   4.074  13.664 -0.1763 -0.0113 -0.1129
 7450W        W23924   6.861   3.384   0.552 -0.1752 -0.3046 -0.2404
 7451W        W23925   0.524  13.131  12.011  0.0926 -0.1635 -0.2079
 7452W        W23926  17.256  16.894  12.472  0.0867 -0.2820 -0.0684
 7453W        W23927   9.710  17.131   4.911 -0.5860  0.0519  0.0695
 7454W        W23928   3.629   7.631   3.844 -0.0306  0.0825 -0.1419
 7455W        W23929  12.618   6.818   5.111 -0.0741 -0.1485  0.0052
 7456W        W23930   8.589  16.709  10.808  0.4309 -0.1923  0.1294
 7457W        W23931   1.517   6.784   3.752 -0.2175  0.0038  0.0229
 7458W        W23932  14.183   1.224   2.684 -0.1688 -0.0751  0.0934
 7459W        W23933   4.434   0.482   4.575  0.1135 -0.0385 -0.2401
 7460W        W23934   4.551   0.797  14.469 -0.0572 -0.2138 -0.2724
 7461W        W23935  10.367   5.001  12.511  0.0982 -0.2756  0.1861
 7462W        W23936  11.253   1.406  12.725  0.2399  0.3319  0.1114
 7463W        W23937  10.497   5.557   0.696  0.2132 -0.1236  0.1381
 7464W        W23938   6.810   5.327  13.125 -0.0066  0.3185 -0.1297
 7465W        W23939   6.258  17.255   0.981  0.2542 -0.1185 -0.0482
 7466W        W23940   8.223  16.562   0.164  0.0676  0.0451 -0.2345
 7467W        W23941   3.890   5.222  14.925  0.3095  0.1084 -0.0147
 7468W        W23942   8.392  15.856   3.109  0.1240 -0.0778 -0.1693
 7469W        W23943  15.434  14.047   1.205 -0.0389  0.0110  0.1838
 7470W        W23944   9.685  17.055  12.653 -0.1642  0.0108 -0.0369
 7471W        W23945   3.720   3.997  14.410 -0.0388  0.0297 -0.0627
 7472W        W23946  15.088  10.194  15.626  0.1450  0.2830 -0.1708
 7473W        W23947  15.150   9.053  16.170 -0.0335  0.3764 -0.1506
 7474W        W23948   4.684  17.392   3.163  0.0139  0.0767  0.0479
 7475W        W23949  10.912  14.494   0.513 -0.2895 -0.0908  0.0317
 7476W        W23950  15.454   2.832   3.318 -0.1167 -0.0361 -0.1369
 7477W        W23951   2.418   1.387  14.736 -0.0435 -0.0971 -0.4673
 7478W        W23952   1.482  16.359   3.251  0.0196  0.1137 -0.2133
 7479W        W23953   3.280  16.092  12.916 -0.3098 -0.1757  0.1709
 7480W        W23954  12.147   8.118   1.247  0.1579 -0.2073 -0.0539
 7481W        W23955   2.047   0.722  16.360 -0.1768 -0.2470 -0.1636
 7482W        W23956  16.524   2.349   3.663  0.1382 -0.1460 -0.0965
 7483W        W23957   2.879  10.652  14.330  0.0742  0.1340  0.2227
 7484W        W23958   2.240   9.813   5.111 -0.0724  0.1061  0.0404
 7485W        W23959  15.167   0.870   5.387  0.2340 -0.1454 -0.0705
 7486W        W23960  17.907  10.337   4.935  0.0930 -0.0325  0.2664
 7487W        W23961  14.678   4.817  16.058 -0.0848 -0.2421  0.4298
 7488W        W23962   8.153   7.189   5.712 -0.0286  0.0350  0.0080
 7489W        W23963  12.081   6.566  12.833  0.0257  0.1126  0.0774
 7490W        W23964  10.231   3.852  11.929 -0.0633  0.2288 -0.1211
 7491W        W23965   9.044  13.946  14.005  0.3582  0.1594 -0.2849
 7492W        W23966   0.100   2.968   2.630 -0.4455 -0.1227 -0.2659
 7493W        W23967  13.744   7.145   4.174 -0.1933  0.1506 -0.1164
 7494W        W23968   9.519  15.114   1.846  0.1131  0.0185  0.0087
 7495W        W23969  17.666  14.364  15.140 -0.0706  0.0530 -0.1847
 7496W        W23970   5.549  12.233  16.232 -0.2876  0.0912  0.1287
 7497W        W23971  14.089   9.326  15.473 -0.1371 -0.0139 -0.0093
 7498W        W23972   7.819   4.754  11.957 -0.1361  0.4669 -0.0162
 7499W        W23973   3.738   6.504  15.897  0.2474  0.4097  0.2148
 7500W        W23974  12.437   7.311   5.037 -0.1878  0.2592  0.0865
 7501W        W23975   8.148  11.182  16.110  0.4132  0.0084 -0.2807
 7502W        W23976   2.108  14.686  15.287  0.1148  0.0824 -0.1002
 7503W        W23977  13.986   6.195  15.405 -0.1201  0.1195 -0.0424
 7504W        W23978  15.998   2.809   1.258 -0.2406 -0.2418  0.3437
 7505W        W23979  15.381   4.631   5.055 -0.0096  0.0531  0.4259
 7506W        W23980  11.913   3.356   5.204 -0.1183  0.1769  0.0794
 7507W        W23981  10.567  10.625  11.339 -0.3695  0.1971  0.3591
 7508W        W23982   7.542  10.418  15.988 -0.2893 -0.1179  0.0193
 7509W        W23983  15.411  11.338   4.060  0.0475 -0.0738 -0.1593
 7510W        W23984   5.876   5.005   4.975 -0.0665 -0.5591  0.3369
 7511W        W23985   8.346  15.864  12.958 -0.0321  0.2376 -0.2629
 7512W        W23986  11.010   6.441   0.607  0.2629 -0.0494  0.0292
 7513W        W23987  13.247  16.084   0.519 -0.0383  0.2063 -0.1065
 7514W        W23988  16.863   1.910   4.424  0.1422 -0.3424 -0.3076
 7515W        W23989  10.418  11.551  13.767 -0.3521  0.0816  0.1612
 7516W        W23990   4.410  13.906   2.015  0.2349 -0.0465 -0.1833
 7517W        W23991  17.372   7.239  15.524 -0.1036 -0.1367  0.0593
 7518W        W23992   4.924  14.864  16.738 -0.0033  0.0169 -0.4195
 7519W        W23993   6.350  10.121  15.117  0.0146 -0.0441 -0.0148
 7520W        W23994   6.395   1.457   1.218 -0.0882 -0.2155  0.2023
 7521W        W23995   6.405   4.490  16.654  0.0424  0.1161  0.0507
 7522W        W23996  12.946   4.980  16.308 -0.4025 -0.0546  0.0144
 7523W        W23997  10.914  17.207   2.223  0.0432 -0.0997 -0.0441
 7524W        W23998  17.532   7.251  12.563  0.1708 -0.0624  0.1666
 7525W        W23999   6.850   3.551   2.267 -0.4473  0.0545  0.0964
 7526W        W24000  10.197   2.694  13.378 -0.1399 -0.3405  0.0294
 7527W        W24001   1.365  17.064  14.553 -0.0733 -0.2244  0.3670
 7528W        W24002  10.270  11.313   4.820  0.0817  0.0069  0.2297
 7529W        W24003   3.208  17.859   5.476 -0.1442  0.4428  0.0563
 7530W        W24004  10.620   8.145  12.006 -0.2848  0.0393  0.1357
 7531W        W24005   3.078   4.464   1.119 -0.0523  0.0377 -0.1507
 7532W        W24006   9.518  12.103   4.716 -0.0561 -0.0297  0.0841
 7533W        W24007   3.433  11.804  14.837  0.1133  0.0948 -0.2179
 7534W        W24008   9.389  17.963  12.956  0.0539 -0.0645  0.1134
 7535W        W24009  13.891   9.111   0.763 -0.0333 -0.2102 -0.0878
 7536W        W24010   9.652  12.775   5.444  0.2928 -0.0121 -0.1308
 7537W        W24011  15.803   5.572   0.042  0.1545 -0.0061 -0.2126
 7538W        W24012  16.517   7.474   2.245 -0.1873 -0.1591  0.2293
 7539W        W24013   2.761   9.530   3.269 -0.2839 -0.3325  0.0121
 7540W        W24014  14.783   6.234   5.513 -0.1681 -0.0744 -0.0683
 7541W        W24015   1.215   5.785  11.893 -0.1946  0.0176  0.4169
 7542W        W24016   3.769   4.647   0.313 -0.0010 -0.4012 -0.2584
 7543W        W24017  13.950  16.763  13.820  0.0502  0.2088 -0.0931
 7544W        W24018   1.507   5.465   3.467  0.1922 -0.1602 -0.1014
 7545W        W24019   7.040   2.686  14.763  0.1085 -0.0411 -0.2037
 7546W        W24020   7.617  15.004  15.379  0.1785  0.3480  0.0378
 7547W        W24021  15.510  17.519  11.721 -0.3130  0.0853 -0.3943
 7548W        W24022  10.278  15.045  13.365  0.0701 -0.1224 -0.2631
 7549W        W24023   6.594   0.503   0.246 -0.1545 -0.2400 -0.3189
 7550W        W24024   6.704   5.670   4.507 -0.0971  0.0148 -0.1113
 7551W        W24025   5.194  14.985  12.662 -0.0052 -0.1752 -0.1802
 7552W        W24026  17.016  17.995  12.873 -0.1623 -0.0602 -0.3420
 7553W        W24027   0.583  14.190  12.224  0.0938 -0.0800 -0.0377
 7554W        W24028  10.429   5.273   4.145  0.1845  0.0031  0.1764
 7555W        W24029   9.811  17.065   4.035 -0.1538  0.0512  0.0774
 7556W        W24030   7.346  15.253   1.484  0.1583 -0.1155  0.4807
 7557W        W24031   9.711  15.944   4.363 -0.0635  0.0657  0.3269
 7558W        W24032   9.146  16.485  12.259 -0.0757  0.0468 -0.0554
 7559W        W24033  11.579   4.245   0.746 -0.3788  0.2835 -0.2224
 7560W        W24034   7.155  16.440   2.090 -0.0453 -0.0344 -0.2458
 7561W        W24035   9.851   5.145   5.305  0.0588  0.0736 -0.0621
 7562W        W24036  16.484   3.022  15.288  0.1215 -0.0939  0.2830
 7563W        W24037  16.897   8.803  14.025  0.0710 -0.0226  0.0882
 7564W        W24038  13.650  14.914  16.644 -0.0083 -0.2284  0.0485
 7565W        W24039  16.168   2.147  14.204 -0.2229  0.1936  0.1197
 7566W        W24040  15.618  17.287   1.224 -0.3104  0.1052 -0.1696
 7567W        W24041   7.202  10.302   0.526 -0.0529 -0.0602  0.1842
 7568W        W24042   9.977  15.284   3.911 -0.0384 -0.1699 -0.0385
 7569W        W24043   4.153   0.980   4.709 -0.2868 -0.1205  0.0597
 7570W        W24044  16.802   9.839   1.396 -0.1535  0.2067  0.3919
 7571W        W24045  15.123   9.576  14.748 -0.0927  0.0849 -0.3898
 7572W        W24046   9.716   8.446   3.125  0.1332  0.1132  0.1076
 7573W        W24047  17.793   8.984   1.156  0.2088  0.0668 -0.0424
 7574W        W24048  13.240   0.522  14.422  0.3580  0.0155  0.1547
 7575W        W24049  10.719   9.166   0.670 -0.0060  0.1073  0.0282
 7576W        W24050  14.346  13.736  16.635 -0.2923  0.0476 -0.1152
 7577W        W24051  13.137   1.129  16.692  0.1312 -0.1907  0.0753
 7578W        W24052   5.766   4.593   1.199  0.2432  0.0686 -0.0780
 7579W        W24053  16.214   3.605  14.529 -0.2551 -0.0499 -0.1424
 7580W        W24054  17.444   6.974   0.461 -0.1215 -0.2388  0.0413
 7581W        W24055  17.521  14.624   1.724 -0.0074  0.0467 -0.0828
 7582W        W24056  10.866  14.378   1.469 -0.1753  0.1042  0.1204
 7583W        W24057   1.625   4.005  15.573 -0.1564 -0.2887 -0.1985
 7584W        W24058   6.780  16.699   3.602 -0.1529  0.0726  0.0408
 7585W        W24059   9.212  10.918   0.664  0.1096  0.2241  0.0671
 7586W        W24060   0.004   4.419  14.415  0.1613  0.1836  0.2222
 7587W        W24061   1.791  17.927  14.358  0.3660  0.1458 -0.0577
 7588W        W24062  12.159   9.486   3.568 -0.0120  0.4076  0.0309
 7589W        W24063   6.537   8.110   5.154 -0.1366 -0.0220 -0.1406
 7590W        W24064   0.388   0.729   4.995  0.1652 -0.0769  0.0369
 7591W        W24065   5.925  15.472   0.609  0.3663 -0.1937 -0.0228
 7592W        W24066   8.887   4.320   1.654 -0.0061  0.1215  0.1106
 7593W        W24067   1.860   7.220  15.235  0.0520  0.0651 -0.2287
 7594W        W24068   8.533  11.135   4.098 -0.2121  0.2613  0.0783
 7595W        W24069  14.179   2.635   0.332  0.2361  0.0931  0.0904
 7596W        W24070   5.117   2.545   2.198  0.0942  0.0365 -0.2213
 7597W        W24071   3.960  13.365   3.894  0.0908  0.3032  0.0905
 7598W        W24072   3.484  15.012  11.768 -0.4934  0.1754  0.1673
 7599W        W24073   5.020  10.643   0.138  0.2478  0.2855 -0.1679
 7600W        W24074   7.472   2.196  12.803  0.0837  0.0495  0.2635
 7601W        W24075   8.197  16.559  12.091 -0.0734 -0.3490 -0.2125
 7602W        W24076  10.243  13.883  12.033  0.0063 -0.0177  0.1207
 7603W        W24077   4.924   9.394  14.299  0.0759 -0.0988 -0.1494
 7604W        W24078  17.115   4.248  11.601  0.1806  0.0211 -0.2230
 7605W        W24079   7.512   5.481   2.960 -0.1591 -0.0374 -0.2615
 7606W        W24080   9.473  15.121   0.502 -0.0409  0.0458 -0.2238
 7607W        W24081   1.909   0.701   0.045  0.0089 -0.2901 -0.0209
 7608W        W24082   1.932  15.182   3.762 -0.0044  0.0774 -0.1490
 7609W        W24083  12.224   3.287   4.604  0.1335 -0.0490  0.0082
 7610W        W24084   9.740   0.470  12.221 -0.1778 -0.0224 -0.1522
 7611W        W24085   6.865  10.643  16.612  0.0277  0.0579 -0.0746
 7612W        W24086   6.009   8.348  16.758 -0.0979  0.1572  0.0952
 7613W        W24087   7.725   0.216   2.171 -0.2675 -0.6363  0.0720
 7614W        W24088   0.569   4.601   2.209 -0.0792 -0.0228  0.1151
 7615W        W24089   8.255  13.280  12.604 -0.0265  0.0168  0.1642
 7616W        W24090  13.322   9.039   4.357 -0.1509  0.3000  0.4127
 7617W        W24091   1.845   7.161   0.096 -0.3455  0.0586  0.2059
 7618W        W24092   0.906  10.655  16.365 -0.1333  0.2705  0.0524
 7619W        W24093  14.246   4.782   4.384 -0.0103 -0.0212 -0.0441
 7620W        W24094  12.217  16.280  16.495  0.0097 -0.3890 -0.0610
 7621W        W24095  10.400  17.327  15.287  0.0599 -0.0406 -0.0701
 7622W        W24096  15.893   0.216   1.132 -0.0477 -0.0543 -0.0593
 7623W        W24097   5.678   6.352   1.065  0.1155 -0.1124  0.1271
 7624W        W24098  12.954   5.606  16.345  0.2861 -0.1193  0.2617
 7625W        W24099  17.257  14.829   0.223 -0.1899 -0.1578 -0.0164
 7626W        W24100   5.250  11.427   4.410 -0.1195 -0.0485 -0.1053
 7627W        W24101   7.614  15.057  15.856 -0.2092  0.0645  0.1071
 7628W        W24102   5.282   8.142   1.364 -0.1688 -0.0108  0.0057
 7629W        W24103  13.667   9.305   6.173  0.1923 -0.1265  0.2418
 7630W        W24104  12.529   6.440  15.534 -0.1193 -0.0647 -0.1504
 7631W        W24105  15.187   6.212  16.222 -0.1103 -0.1608  0.1052
 7632W        W24106   9.116  11.084  15.837  0.0924  0.0121 -0.1789
 7633W        W24107   4.003   3.204  11.102 -0.1939 -0.0438 -0.0009
 7634W        W24108  11.820   2.609  12.578  0.2383  0.4034  0.0753
 7635W        W24109   8.886   7.588   4.805 -0.2039 -0.1119  0.0217
 7636W        W24110   2.065   1.385   5.748  0.1047 -0.2491  0.1138
 7637W        W24111   9.565   4.869   3.827 -0.0515  0.3793  0.2191
 7638W        W24112  13.986   4.858   2.584 -0.0940 -0.1080 -0.0922
 7639W        W24113   0.096   4.561  13.339  0.0213  0.2509  0.0239
 7640W        W24114   6.526   3.006   3.632 -0.0557 -0.2339  0.1006
 7641W        W24115   2.863  12.913   3.377 -0.0966  0.1314 -0.0374
 7642W        W24116  13.660  16.794   6.268  0.0686  0.3363  0.3633
 7643W        W24117  17.531  12.402  13.673  0.0353 -0.1366 -0.1885
 7644W        W24118   7.348   1.677  13.938 -0.1995 -0.2180 -0.3741
 7645W        W24119  13.703   8.491  13.718  0.2258 -0.1183  0.0116
 7646W        W24120   0.292   4.138  13.427  0.1100  0.0467  0.0414
 7647W        W24121  16.402  14.020  11.437 -0.1857  0.0355  0.3111
 7648W        W24122   9.151  10.055   0.402  0.0842  0.2883 -0.2571
 7649W        W24123   1.199  16.363   4.687  0.2578 -0.1006  0.1070
 7650W        W24124   1.568   5.343  15.286 -0.3738 -0.1538 -0.0190
 7651W        W24125  12.531   4.179   4.140  0.0070 -0.3575  0.1916
 7652W        W24126   6.835   3.260  12.265  0.0070  0.1094  0.1777
 7653W        W24127   1.310   6.730   6.262 -0.0552 -0.2312  0.1116
 7654W        W24128  11.959  12.666  14.171 -0.0302 -0.0411 -0.1955
 7655W        W24129  15.309   0.533  15.731  0.2231 -0.1081 -0.1155
 7656W        W24130   7.785   6.795   5.581 -0.0423  0.0996 -0.1319
 7657W        W24131   2.898  16.449  12.108  0.0153  0.2173  0.1368
 7658W        W24132   6.314   1.353   2.495 -0.1434  0.1935 -0.2986
 7659W        W24133   8.036  10.488   4.878  0.1036  0.1245 -0.0917
 7660W        W24134  12.562  17.416  13.109 -0.0082 -0.0552  0.0711
 7661W        W24135   7.810   5.525   4.292 -0.3344  0.1151 -0.2388
 7662W        W24136   7.543   5.059  16.352 -0.2147  0.5125 -0.2667
 7663W        W24137  14.917  12.523  13.842 -0.0944 -0.0944 -0.1509
 7664W        W24138  15.470  10.274  11.046 -0.3186 -0.1919 -0.1293
 7665W        W24139  12.292   6.719   0.937 -0.0002  0.2174 -0.0472
 7666W        W24140  11.572   9.510   3.606 -0.0563  0.0537  0.1239
 7667W        W24141   5.763  16.720   3.925 -0.1105 -0.3522 -0.2527
 7668W        W24142  10.267  14.319   1.876 -0.0372 -0.2489  0.1127
 7669W        W24143   9.448   1.943   0.281  0.2218  0.1715 -0.3700
 7670W        W24144  16.726  12.189  13.172 -0.1348 -0.2033  0.0499
 7671W        W24145   1.859   8.684   2.633  0.0580 -0.3409  0.1746
 7672W        W24146   8.816   4.444   0.171 -0.0527 -0.0683  0.1272
 7673W        W24147   4.038  15.737  12.444  0.1981 -0.2147 -0.4598
 7674W        W24148   4.541  15.041  13.916  0.0312  0.0579 -0.0143
 7675W        W24149   8.774  11.804   0.263  0.1193  0.0528  0.1959
 7676W        W24150   4.007   3.242  13.832  0.1178  0.2584 -0.2477
 7677W        W24151   1.140   6.562   3.165 -0.0465 -0.2571 -0.1065
 7678W        W24152  17.541   6.247  12.571  0.1964 -0.0061 -0.1169
 7679W        W24153  10.798  13.633  12.721 -0.3322 -0.1781  0.0454
 7680W        W24154  13.660  10.205   4.765 -0.1347  0.1118  0.0662
 7681W        W24155  10.500   4.114  14.924  0.2915  0.2453 -0.1307
 7682W        W24156   7.554   2.117   2.599  0.0238 -0.2077  0.1920
 7683W        W24157  16.056  11.749   5.145 -0.1614 -0.2735  0.1175
 7684W        W24158   9.195   2.168   3.409  0.2550  0.0365 -0.1450
 7685W        W24159  17.558  16.814   1.539  0.0470 -0.3015  0.0587
 7686W        W24160   5.702  12.220   5.378  0.4261  0.0056  0.1239
 7687W        W24161   4.574  14.573  16.277  0.1453 -0.0090 -0.1823
 7688W        W24162  12.689  15.383   5.662 -0.0554 -0.1733  0.2545
 7689W        W24163  12.568  13.697  12.749 -0.3757  0.0945  0.0676
 7690W        W24164   6.657  13.911   2.663 -0.1634 -0.0805 -0.3908
 7691W        W24165   1.255  17.264   5.543 -0.2367 -0.1522 -0.2493
 7692W        W24166   5.099   1.438   5.275  0.1610 -0.2950  0.1117
 7693W        W24167  15.613   7.235   2.297  0.2363 -0.0968  0.1110
 7694W        W24168  11.974  17.858  13.779 -0.3469 -0.0030  0.0737
 7695W        W24169  15.160  14.929  16.132 -0.1608  0.0168  0.1598
 7696W        W24170  11.828   5.302  12.560 -0.0446 -0.0005  0.1616
 7697W        W24171   8.888  13.224   6.174 -0.1320  0.2445 -0.2305
 7698W        W24172   8.828  13.011  14.100 -0.0106 -0.1033  0.1183
 7699W        W24173   3.759   9.175   1.487 -0.0497  0.1871 -0.2248
 7700W        W24174  13.233  15.257   1.796  0.1009  0.2457  0.0420
 7701W        W24175   5.726  14.118   2.033  0.3931 -0.1347  0.2436
 7702W        W24176  14.475  15.616   0.133  0.3126 -0.1665 -0.2954
 7703W        W24177   3.397  17.599  14.134 -0.1027  0.0906 -0.2817
 7704W        W24178   2.174  10.229  15.133  0.0089 -0.0704 -0.0164
 7705W        W24179   8.912  10.556  14.567  0.0231 -0.0539 -0.2074
 7706W        W24180  11.699  14.956   4.944  0.2119  0.2111  0.0254
 7707W        W24181   4.147   4.692  12.058  0.0012 -0.5214  0.3825
 7708W        W24182  16.892  17.074   5.991 -0.1991  0.0311  0.0031
 7709W        W24183  12.825   5.519   3.468 -0.1893  0.2569  0.3398
 7710W        W24184   8.658   5.229  11.652 -0.2082 -0.0426 -0.0974
 7711W        W24185  16.214  17.247  13.922  0.0063  0.0035  0.0873
 7712W        W24186  13.376  11.204  15.638 -0.0867  0.3786 -0.1976
 7713W        W24187  13.275   1.019  15.649 -0.3255 -0.1683 -0.0340
 7714W        W24188   6.051   9.595   5.805  0.0297 -0.2426  0.0374
 7715W        W24189   5.740  12.138   2.894  0.1511  0.0070 -0.0455
 7716W        W24190   7.295   3.379  10.424  0.0779  0.1249 -0.1935
 7717W        W24191   5.582   1.828   2.917  0.1520 -0.2395 -0.3061
 7718W        W24192   9.787   2.067   1.329  0.0773  0.1915  0.0452
 7719W        W24193   4.565   1.142  14.901 -0.0885  0.1686 -0.1714
 7720W        W24194  17.957  12.779  16.588  0.1003 -0.1047 -0.2525
 7721W        W24195  15.258  14.443   4.186  0.0535 -0.3750 -0.0160
 7722W        W24196   7.748   2.464   2.298 -0.0308 -0.0079  0.0017
 7723W        W24197   8.232   2.506   2.599  0.1261 -0.2602  0.1084
 7724W        W24198   3.193   1.256  14.494 -0.0300  0.0982 -0.2353
 7725W        W24199   2.467  14.703  13.245  0.1774  0.0881  0.0242
 7726W        W24200   0.714   9.974   1.944 -0.2227  0.0312 -0.0339
 7727W        W24201   2.354  12.549  13.469  0.0780  0.1726  0.3513
 7728W        W24202   6.191  16.962  11.988 -0.2683  0.2106 -0.0911
 7729W        W24203  15.084  12.749  11.870 -0.0174  0.0921 -0.3622
 7730W        W24204  11.098   8.859  16.747 -0.0885  0.1120 -0.1316
 7731W        W24205   0.487  14.749   0.140  0.1014  0.0351 -0.0963
 7732W        W24206  13.669   4.290  16.115 -0.0226 -0.3874 -0.2268
 7733W        W24207   5.460  11.048   3.478  0.4157 -0.3931 -0.3884
 7734W        W24208  13.959  11.483   3.169 -0.0135 -0.4382 -0.0334
 7735W        W24209   7.968   5.310   1.757  0.1721 -0.2138  0.1742
 7736W        W24210  10.072   9.384   1.452 -0.4059  0.0980  0.0104
 7737W        W24211   7.263  17.636  16.297  0.0705  0.2004  0.4092
 7738W        W24212  10.237  16.876   4.319  0.2735  0.0174 -0.1014
 7739W        W24213   4.118   3.561  15.252 -0.1683 -0.2386 -0.0420
 7740W        W24214  16.116  12.781  14.802 -0.0272  0.0554  0.4305
 7741W        W24215   0.183   2.624  15.397  0.1391 -0.0794 -0.1566
 7742W        W24216  13.187   6.169  13.378 -0.2889  0.0812 -0.2540
 7743W        W24217   7.348   3.485  16.313 -0.1808  0.0826 -0.1070
 7744W        W24218  14.301   4.774   3.854  0.1846  0.1454  0.0050
 7745W        W24219   3.246  14.279   5.889  0.0670 -0.2471  0.1080
 7746W        W24220   6.458   0.975  16.288  0.1249 -0.1080 -0.0292
 7747W        W24221  13.972   5.293  14.522 -0.0123  0.0946  0.0345
 7748W        W24222  14.170  16.734   2.551  0.1324  0.0712  0.0244
 7749W        W24223  12.050   5.442  14.972  0.0519 -0.2389  0.1915
 7750W        W24224  16.475  15.849  12.841 -0.2962 -0.3579 -0.2506
 7751W        W24225  17.670   3.507   1.989  0.0863  0.2093 -0.3065
 7752W        W24226   3.300   7.495   2.974 -0.1562  0.1704 -0.0055
 7753W        W24227   9.994  10.663   5.561  0.3347  0.1149  0.1726
 7754W        W24228  17.804   4.303   2.627 -0.1734 -0.1071 -0.1907
 7755W        W24229   8.566  11.672   0.699  0.2308 -0.0888  0.0566
 7756W        W24230  10.928  16.238   0.323 -0.1078 -0.1120  0.1264
 7757W        W24231  14.793   1.042  11.987  0.1324 -0.1937  0.3659
 7758W        W24232  10.905  15.749   0.347 -0.1267  0.1121  0.1634
 7759W        W24233   9.887   0.978  16.745 -0.2493 -0.1144 -0.0444
 7760W        W24234  15.619  10.812  15.628 -0.1368 -0.1143 -0.0025
 7761W        W24235  15.086   2.227  14.818 -0.0238 -0.0864  0.1446
 7762W        W24236   9.324   9.182   4.691  0.1675  0.0592  0.0337
 7763W        W24237   5.774  16.861  13.776  0.2069  0.3332  0.0521
 7764W        W24238  11.214  12.931   3.368  0.1121  0.0869 -0.0671
 7765W        W24239  13.528   2.229   4.784  0.2565 -0.2472 -0.2011
 7766W        W24240  12.767   1.805  11.685 -0.2040  0.0931 -0.2144
 7767W        W24241   0.697  17.828  16.609  0.1473 -0.1903 -0.0575
 7768W        W24242   0.162   4.093  15.354 -0.2789 -0.0275 -0.0240
 7769W        W24243   7.558   2.658   4.879 -0.0427 -0.2522 -0.0652
 7770W        W24244   7.077  14.246   3.774  0.1069  0.3246 -0.1394
 7771W        W24245   4.531  10.478  12.200  0.0339 -0.1934 -0.0977
 7772W        W24246   1.344   2.347  16.137 -0.1274 -0.1491  0.2664
 7773W        W24247  10.957  16.061   1.968  0.1990  0.0603  0.2346
 7774W        W24248   2.290  15.664   2.463  0.0108  0.1627  0.1072
 7775W        W24249  16.454  16.196   4.030  0.0475  0.1192 -0.2951
 7776W        W24250   6.380  11.739   3.624  0.0175  0.0038  0.1376
 7777W        W24251   6.147  14.350  11.614  0.1935 -0.4614  0.2479
 7778W        W24252   8.027   7.980  13.224 -0.1188 -0.2860 -0.0302
 7779W        W24253   6.081   4.875   0.048  0.3533 -0.4481  0.0326
 7780W        W24254   5.451  15.915   5.095 -0.5783  0.0060  0.1078
 7781W        W24255  15.151  11.024   3.354  0.1045 -0.0313  0.0683
 7782W        W24256  15.040   1.351   1.543 -0.0388 -0.3173 -0.2007
 7783W        W24257  11.599   9.015  12.396 -0.4480 -0.1541  0.1022
 7784W        W24258  16.256   6.746   1.700  0.0237  0.0350  0.0636
 7785W        W24259  13.898  10.685  16.313 -0.0094 -0.1921 -0.2815
 7786W        W24260   9.699   4.035   1.095  0.0626  0.1067  0.0294
 7787W        W24261  11.572  15.860  14.911 -0.2744 -0.0980 -0.0364
 7788W        W24262  16.658  17.290   5.364 -0.1816 -0.0551 -0.1774
 7789W        W24263  16.438   3.945  13.261  0.0731 -0.3108 -0.0593
 7790W        W24264   5.669   6.673  13.621 -0.0060 -0.1970  0.1251
 7791W        W24265   2.225  13.104  13.474  0.0279  0.1865  0.0254
 7792W        W24266  12.464   1.943   0.671  0.0782 -0.2623  0.3374
 7793W        W24267   9.975  17.111  13.494 -0.0677  0.0467  0.1634
 7794W        W24268  15.741  17.983  15.303 -0.2097  0.2949 -0.0854
 7795W        W24269   6.668   9.431  13.291  0.0449 -0.0657  0.2031
 7796W        W24270  16.438  11.603  12.446  0.1473  0.4322 -0.1221
 7797W        W24271   7.629   2.605   1.778  0.0983 -0.3057 -0.3656
 7798W        W24272  12.235   0.248  12.014  0.0272  0.1481  0.1049
 7799W        W24273   9.903  14.779  11.882 -0.0492  0.3409 -0.0937
 7800W        W24274   3.450  10.792   0.060 -0.1995  0.0922  0.1409
 7801W        W24275  10.503   0.507   2.793 -0.1447 -0.1847 -0.3314
 7802W        W24276   4.505  16.905   0.869  0.0007 -0.0849  0.0096
 7803W        W24277  17.206  11.677  14.556  0.1806 -0.0919  0.2594
 7804W        W24278   4.310  10.046  12.636 -0.0473 -0.1282  0.0251
 7805W        W24279  15.534   8.902  14.866 -0.1356  0.1226 -0.1094
 7806W        W24280  10.695   3.062  16.161  0.1992  0.2801  0.1803
 7807W        W24281   4.167   8.264   1.519 -0.0806  0.3645 -0.2300
 7808W        W24282   1.776   4.870   2.483 -0.0829 -0.2882  0.5341
 7809W        W24283  16.038   4.634   4.680 -0.0516  0.1395  0.0247
 7810W        W24284   7.222   5.657   3.378 -0.1379 -0.0543 -0.1494
 7811W        W24285  12.438  12.703   5.736 -0.3670 -0.0629  0.1671
 7812W        W24286  16.032   6.054   1.253  0.3375 -0.3726 -0.1063
 7813W        W24287  13.316  13.883  13.720 -0.1333 -0.0226 -0.1117
 7814W        W24288  12.693  13.575  11.884  0.1107 -0.3125  0.3232
 7815W        W24289   3.882  14.217  13.815  0.1073  0.1833 -0.0523
 7816W        W24290   1.714   9.337  15.325  0.0917  0.0117  0.0180
 7817W        W24291  14.462   5.960  12.218  0.0395 -0.1295  0.5129
 7818W        W24292   0.430   7.398  13.025  0.1968 -0.2233  0.2368
 7819W        W24293   2.377  15.957   2.053 -0.2813 -0.0979  0.0781
 7820W        W24294   2.947  16.569  16.126  0.2537 -0.1676 -0.1394
 7821W        W24295   5.431   5.139   4.693  0.2073  0.0867  0.1807
 7822W        W24296  10.119   5.749   6.503 -0.2484  0.4385 -0.1090
 7823W        W24297   5.333   3.882  16.049  0.2254 -0.0312  0.2848
 7824W        W24298   6.544   1.921  13.031  0.1140 -0.1344  0.2181
 7825W        W24299   2.814  10.993   0.131 -0.0437 -0.3574 -0.1857
 7826W        W24300   7.841   7.174  13.812  0.0080  0.1623  0.3484
 7827W        W24301   1.783  17.050  14.814 -0.0663  0.0428  0.0374
 7828W        W24302  13.478   7.648  16.695  0.2326 -0.0551 -0.1732
 7829W        W24303  12.989  13.757  16.343  0.3603  0.3003 -0.2579
 7830W        W24304  17.664   6.442   0.698  0.1792  0.0903  0.0966
 7831W        W24305   1.633   6.891  12.899 -0.4833 -0.0139 -0.0700
 7832W        W24306  11.796   9.582  16.786  0.1585  0.0299  0.0608
 7833W        W24307  14.081   5.710  13.051  0.0930  0.0316 -0.0706
 7834W        W24308  14.398   2.683   1.836  0.0837  0.0731  0.3175
 7835W        W24309  15.235   7.114  15.935 -0.0100 -0.1208 -0.1598
 7836W        W24310  11.223   8.744   3.110  0.1835  0.0897 -0.1932
 7837W        W24311  10.478  16.778  14.787  0.0181  0.1079 -0.0269
 7838W        W24312  10.162   8.649  15.713 -0.0391  0.0341  0.2506
 7839W        W24313   4.109  12.546  15.378  0.4716 -0.1049 -0.0250
 7840W        W24314   0.364  13.493  15.777  0.0980  0.1069 -0.0702
 7841W        W24315   8.511   4.649  14.860 -0.3181 -0.0733 -0.2281
 7842W        W24316  17.788   7.350   3.707  0.0823  0.0201  0.0961
 7843W        W24317   0.294   5.298  12.604  0.0619 -0.0912 -0.3036
 7844W        W24318   8.384  14.560   3.129 -0.1717  0.1281  0.0016
 7845W        W24319  12.185   4.136  13.263 -0.1653  0.0123 -0.1419
 7846W        W24320   7.705   1.034   0.896 -0.4810  0.0445 -0.3769
 7847W        W24321  12.543  10.152  14.997 -0.0038  0.1355 -0.0048
 7848W        W24322  10.422   0.075  15.828  0.0287 -0.0882  0.0638
 7849W        W24323  11.793   9.808   3.283 -0.0194 -0.0298 -0.0301
 7850W        W24324  17.823  12.790  14.694 -0.2777 -0.2939  0.0094
 7851W        W24325  16.277  14.573   2.958  0.1709  0.0287 -0.1900
 7852W        W24326   6.099  11.638   2.106  0.0808  0.0224  0.2642
 7853W        W24327  14.038   7.210   2.041  0.0924  0.2293 -0.0455
 7854W        W24328  14.943  17.341   2.236  0.3875 -0.1246 -0.0747
 7855W        W24329   5.231  14.730  10.689  0.0959  0.1240 -0.2028
 7856W        W24330   6.049  12.264   3.253  0.2212 -0.2416  0.2370
 7857W        W24331  10.516  14.755  12.176 -0.3423 -0.2001 -0.1765
 7858W        W24332   2.508  11.664  13.122  0.0601  0.1314  0.1043
 7859W        W24333   2.284   1.566   5.202 -0.0540 -0.2248  0.1905
 7860W        W24334  15.449  16.764   0.463  0.2449  0.0039  0.3097
 7861W        W24335   2.695  17.350   3.154  0.4939  0.0344  0.4085
 7862W        W24336  17.380   2.895  12.916 -0.1831  0.2890  0.1880
 7863W        W24337   7.126   1.742   1.848 -0.1444 -0.1871 -0.0302
 7864W        W24338  13.517   3.951  15.737  0.0906 -0.0830  0.2384
 7865W        W24339   8.063  14.338  15.659 -0.1446 -0.3058 -0.4156
 7866W        W24340  17.208  12.640   3.288 -0.3862  0.1756 -0.0878
 7867W        W24341   5.470  10.602  12.961  0.1524  0.0947  0.0283
 7868W        W24342   0.237   0.269   5.541  0.2443  0.0527 -0.2461
 7869W        W24343  11.074  10.729  15.891  0.0688 -0.0570 -0.1410
 7870W        W24344  14.843   2.274  16.551  0.0615  0.0915  0.0028
 7871W        W24345  17.811   7.851   4.407  0.3320  0.1240 -0.0835
 7872W        W24346  11.394   6.185  14.025 -0.1359 -0.1880 -0.1657
 7873W        W24347  14.641   5.021  12.870  0.2124  0.0195  0.1329
 7874W        W24348  11.911  17.022   4.497 -0.2710  0.0975  0.0989
 7875W        W24349   4.476   8.843   1.973  0.0590 -0.3658  0.0155
 7876W        W24350   5.816   3.019   0.177  0.0904  0.1287 -0.0669
 7877W        W24351  14.456  14.521  14.397 -0.0745 -0.1712  0.0500
 7878W        W24352   9.368  12.695  16.303  0.0042  0.1462  0.3853
 7879W        W24353   8.760  14.417  13.907  0.2684  0.1735  0.2829
 7880W        W24354   4.851  17.180   4.974 -0.0548 -0.0254 -0.2205
 7881W        W24355  14.805  16.225  13.253 -0.3851 -0.0873 -0.1199
 7882W        W24356  15.618   8.915  13.479 -0.1020  0.1228 -0.0390
 7883W        W24357   6.253   3.144  15.474 -0.0678  0.0200 -0.1342
 7884W        W24358   5.393   5.454   1.265 -0.0041  0.2100  0.0517
 7885W        W24359  14.673   9.210  13.613  0.2423  0.1943  0.0201
 7886W        W24360   2.898  14.362   3.984 -0.1700  0.3561  0.0367
 7887W        W24361   5.294  14.268   2.237  0.2673  0.0269  0.1648
 7888W        W24362  13.745   9.835  15.963  0.4423 -0.0175 -0.0831
 7889W        W24363   4.877   2.690  13.500 -0.2234  0.0799  0.3889
 7890W        W24364   9.484   6.595  13.052 -0.1127 -0.0664 -0.2018
 7891W        W24365  14.734   4.353  15.674  0.0790  0.0302 -0.0046
 7892W        W24366   1.940   5.128   3.472  0.1765  0.0812  0.0746
 7893W        W24367  13.821   7.563  13.649 -0.4281  0.2065 -0.2242
 7894W        W24368   9.834   3.317  15.187  0.0251 -0.0503 -0.2211
 7895W        W24369  11.568  15.805   5.040  0.3091 -0.0679  0.0527
 7896W        W24370   4.887  10.241   5.109 -0.1450  0.1805 -0.2077
 7897W        W24371   3.382   8.002   2.837 -0.3807 -0.2287 -0.0512
 7898W        W24372  13.583  14.859   5.421 -0.1256  0.0077 -0.1970
 7899W        W24373   9.503   7.019   4.766 -0.0830  0.0752 -0.0339
 7900W        W24374   0.365   8.754   2.814 -0.3304  0.0331 -0.0132
 7901W        W24375   3.117   2.012  11.826  0.4780 -0.2094 -0.0244
 7902W        W24376  12.625  11.490   1.786  0.0769  0.0104  0.1801
 7903W        W24377  16.844   2.943  14.335 -0.1763  0.0498  0.1368
 7904W        W24378   5.805   2.503   4.912 -0.1306 -0.2365  0.1924
 7905W        W24379   2.269  13.110  12.112  0.1689 -0.1879 -0.0566
 7906W        W24380   1.091  14.983   5.782 -0.3755 -0.3582  0.1951
 7907W        W24381  10.717  10.020  12.741 -0.0272 -0.0088  0.2884
 7908W        W24382   5.001  16.151   2.689 -0.2596  0.3326  0.1783
 7909W        W24383  17.309  14.824  12.998 -0.0473  0.0746 -0.3117
 7910W        W24384   1.636  17.542  14.754  0.0480  0.2318  0.2085
 7911W        W24385   8.932   0.613  14.001 -0.0799  0.1554 -0.0587
 7912W        W24386  13.121   7.364  16.771  0.2584 -0.0924 -0.0855
 7913W        W24387  15.031   1.677   4.945 -0.1968  0.0342 -0.1905
 7914W        W24388   7.609  13.597   0.387  0.0584  0.0494  0.2695
 7915W        W24389  14.614  13.977  11.303 -0.3259  0.1425 -0.0785
 7916W        W24390  15.495   9.587  12.216 -0.0348  0.1148  0.0159
 7917W        W24391   1.478  12.389   2.492  0.0866  0.1491 -0.4705
 7918W        W24392   1.571   3.574  11.674 -0.2513  0.3150  0.0262
 7919W        W24393  13.303   6.052  15.635 -0.2370 -0.1359  0.0099
 7920W        W24394  15.360   8.782   1.552  0.2193  0.0604  0.0720
 7921W        W24395   4.336  17.216  15.943  0.0564 -0.1096 -0.0099
 7922W        W24396   4.957  14.888  14.113 -0.1637 -0.3088  0.0236
 7923W        W24397   4.808   6.392   5.758 -0.0646  0.1049  0.0421
 7924W        W24398   4.254   0.261  11.798  0.1345  0.1683  0.0956
 7925W        W24399   9.496   2.571   4.589 -0.2463 -0.0445  0.1340
 7926W        W24400   7.160  10.075   1.447 -0.0626 -0.0669 -0.0071
 7927W        W24401   0.002   2.525   2.368 -0.2472 -0.2724  0.3927
 7928W        W24402   3.107   0.924   0.402  0.1203 -0.0038 -0.3138
 7929W        W24403   5.577  15.790  12.034  0.3126  0.0628  0.1543
 7930W        W24404   4.475   7.734  15.592  0.0766  0.3705  0.0933
 7931W        W24405  11.091   1.645  16.254  0.2358  0.1721 -0.0639
 7932W        W24406  14.366   9.168  14.701  0.0272 -0.2846 -0.0535
 7933W        W24407  13.625   3.571   3.458  0.0703 -0.1103  0.0966
 7934W        W24408   5.509   0.931   4.755  0.0119 -0.5083 -0.2256
 7935W        W24409   6.796   3.031  11.380 -0.0991 -0.2442 -0.2240
 7936W        W24410  15.371  16.234   4.319 -0.0476 -0.2207 -0.0925
 7937W        W24411   8.721  15.174   4.669 -0.1242  0.0380 -0.1688
 7938W        W24412   5.120   1.218  16.753 -0.4820  0.2225 -0.0858
 7939W        W24413   0.491  10.862  14.501 -0.1020 -0.1907  0.1622
 7940W        W24414  11.699  16.336  14.048 -0.0022  0.0444 -0.0380
 7941W        W24415   5.977  10.309  13.287 -0.1007  0.1257  0.0386
 7942W        W24416  14.389   8.162   0.536  0.2419 -0.0122  0.0258
 7943W        W24417  12.950  15.840  13.303 -0.1969 -0.1247 -0.2993
 7944W        W24418  16.778  17.711  15.414 -0.1713  0.2299 -0.1620
 7945W        W24419   2.065   2.223   0.180 -0.2047 -0.1450 -0.0360
 7946W        W24420  14.845   9.186   2.143  0.1120 -0.3015 -0.1338
 7947W        W24421   0.362   7.755   2.190 -0.0460 -0.0994 -0.2144
 7948W        W24422   3.533  14.269  14.170  0.0214 -0.2006  0.0977
 7949W        W24423  12.489  11.836  12.079  0.2135 -0.2058 -0.2228
 7950W        W24424  12.137   0.328   3.912  0.0672  0.0997  0.1553
 7951W        W24425  10.947  15.661  13.137  0.0242  0.2722 -0.4079
 7952W        W24426   3.391   0.520  16.411 -0.1817  0.4234  0.1701
 7953W        W24427   8.047   2.565   4.841  0.1918  0.1056 -0.1657
 7954W        W24428   0.486   7.616   0.580  0.0537 -0.1466 -0.0025
 7955W        W24429   0.764  13.810  15.641 -0.0666  0.1968  0.0624
 7956W        W24430   1.264   6.630  15.632  0.1460 -0.0611  0.1666
 7957W        W24431   0.463  17.644  11.845 -0.3751 -0.0549  0.2492
 7958W        W24432   9.714  13.751   3.499  0.1661  0.0870  0.0428
 7959W        W24433   8.419  10.212  11.849  0.0370  0.1643  0.0607
 7960W        W24434   1.073   5.299  11.904 -0.1961  0.1123 -0.2953
 7961W        W24435   3.621   9.348   0.503  0.0575 -0.0100  0.0953
 7962W        W24436   8.233   1.515  12.907  0.1446 -0.2936 -0.0241
 7963W        W24437   3.554  11.755   1.685 -0.3199  0.0001 -0.0675
 7964W        W24438   8.920   9.179   2.396 -0.0335 -0.1018 -0.0840
 7965W        W24439   2.033   1.821  13.037 -0.3512 -0.0674 -0.0847
 7966W        W24440  11.488   6.777   3.835  0.1242  0.1061 -0.0729
 7967W        W24441   8.635  15.082  15.675 -0.0692 -0.0407 -0.0998
 7968W        W24442  16.915   8.851  11.630 -0.0938  0.0867  0.0148
 7969W        W24443   1.025  17.703   5.582  0.0355 -0.0106  0.0916
 7970W        W24444   0.868  17.946  15.621 -0.0727  0.2489  0.1643
 7971W        W24445  10.078  12.998   2.937 -0.1704 -0.0902  0.1710
 7972W        W24446   0.841   8.362  13.261  0.2193  0.2940 -0.1155
 7973W        W24447  16.336   2.265  12.245  0.0757 -0.4290 -0.0728
 7974W        W24448   6.282   9.968   5.056 -0.1051 -0.0201  0.3075
 7975W        W24449  14.795  11.812  13.146  0.0840  0.2635  0.0946
 7976W        W24450   3.473  10.855  12.395  0.0603  0.1844  0.0412
 7977W        W24451   3.279  17.077  13.889  0.2866 -0.0144  0.3023
 7978W        W24452   2.504   0.521  13.659  0.0963  0.1737 -0.1448
 7979W        W24453   0.901   8.083   3.617  0.1041  0.2022 -0.0412
 7980W        W24454   3.535   6.049   2.306 -0.1815  0.1174  0.0763
 7981W        W24455   9.966   0.909  14.965  0.0095 -0.0149  0.0716
 7982W        W24456   7.324   1.576   6.157 -0.2464 -0.2553 -0.0733
 7983W        W24457  14.920   5.329   0.602  0.1716 -0.2679 -0.0201
 7984W        W24458   7.108  16.264   2.983 -0.2206  0.1450  0.0790
 7985W        W24459  12.156  17.377   3.660 -0.1168  0.1683  0.4615
 7986W        W24460   6.973   8.726   3.864 -0.1351 -0.0116 -0.1801
 7987W        W24461   6.202  14.096   0.745  0.2539  0.1592  0.0835
 7988W        W24462  14.898   6.118  12.503  0.0761 -0.2902  0.1121
 7989W        W24463   5.039   7.387   2.330  0.1354  0.0763  0.1326
 7990W        W24464  12.267   6.633   3.697 -0.1338 -0.2182 -0.0824
 7991W        W24465   5.200  16.359   0.679  0.0219 -0.2048  0.0938
 7992W        W24466   9.050   6.907  14.470  0.1677  0.1074 -0.3794
 7993W        W24467   6.369   3.958   2.063 -0.3352 -0.3318 -0.1676
 7994W        W24468   8.714  11.398  12.351  0.1405  0.2778  0.2002
 7995W        W24469  15.430   7.039   3.181  0.3286 -0.1129 -0.2128
 7996W        W24470   8.301  12.734   5.469 -0.1176  0.2066 -0.0564
 7997W        W24471  12.251  11.051  13.095  0.1701 -0.1688 -0.1588
 7998W        W24472  14.621  13.516   3.252  0.1064  0.0367 -0.4947
 7999W        W24473   6.441   0.100  14.736  0.2032  0.0443 -0.1850
 8000W        W24474  13.764  13.757   4.017 -0.1360 -0.0334  0.0915
 8001W        W24475  15.211   7.135   4.461 -0.2094 -0.0898 -0.0280
 8002W        W24476   7.441  14.600  13.529  0.3580 -0.0092 -0.1055
 8003W        W24477  14.744  11.855   3.168  0.1176 -0.1951 -0.2671
 8004W        W24478   3.978   6.842   0.027  0.0369  0.0370  0.2654
 8005W        W24479  17.325   9.669   1.801  0.3413 -0.1410  0.2151
 8006W        W24480  14.251  14.957   1.005  0.0500  0.0414 -0.1811
 8007W        W24481  13.164   1.328  13.744 -0.1473 -0.3774 -0.1654
 8008W        W24482   9.475   8.778  12.206 -0.1966 -0.0340  0.1512
 8009W        W24483  16.690   9.286  15.358  0.0257  0.1690  0.1687
 8010W        W24484  13.068  13.091   4.315 -0.0763 -0.2210 -0.1215
 8011W        W24485  15.736  10.486  12.059 -0.1979  0.1581  0.0353
 8012W        W24486   0.997   9.591   5.390 -0.2504 -0.2651  0.0470
 8013W        W24487  13.333  13.387  13.187 -0.0256  0.1456  0.1879
 8014W        W24488  17.815  10.750   4.644  0.0648  0.0478  0.4172
 8015W        W24489  11.978   7.286   0.192  0.0186 -0.2084 -0.0991
 8016W        W24490  16.437   9.218  14.765  0.0114  0.0546  0.2625
 8017W        W24491   5.924   5.574  12.692 -0.2182  0.2000 -0.0315
 8018W        W24492   2.708   8.026   3.748  0.2602  0.1594 -0.3766
 8019W        W24493  10.837   8.608   3.792  0.0287 -0.2301 -0.1006
 8020W        W24494   2.504  10.958   4.851 -0.0697 -0.4187 -0.1430
 8021W        W24495   8.677   7.828  15.221 -0.3430  0.0967  0.4212
 8022W        W24496   4.786   0.530  13.139 -0.3629  0.2028  0.0762
 8023W        W24497   0.528  10.380  14.683  0.2088 -0.2101  0.1071
 8024W        W24498  10.107   1.342   2.381 -0.1550 -0.2037  0.1656
 8025W        W24499   9.441  15.008  14.286 -0.0018 -0.0284 -0.0964
 8026W        W24500   8.449  11.669   4.025  0.0899  0.1589  0.0736
 8027W        W24501   0.498  10.378  12.505 -0.2572  0.3668 -0.0729
 8028W        W24502   7.958   7.634   5.906  0.0285 -0.1656  0.4540
 8029W        W24503  11.392   7.134   4.667 -0.0783 -0.1049 -0.0726
 8030W        W24504   5.220   8.661   4.730  0.1309  0.0116 -0.0321
 8031W        W24505   6.368  11.706  13.351  0.1202  0.0267 -0.1482
 8032W        W24506   3.455   3.806   1.742 -0.1174 -0.1803 -0.1242
 8033W        W24507   7.286   5.045   2.798  0.2721  0.1347 -0.1611
 8034W        W24508   0.902  13.127   3.532  0.0320 -0.2351  0.1409
 8035W        W24509  16.600   5.812  15.129  0.0508 -0.0598  0.1033
 8036W        W24510   1.452   9.925   3.072 -0.1902  0.1383 -0.0820
 8037W        W24511  11.195  12.742  16.532  0.4028 -0.2471  0.2430
 8038W        W24512  14.534  16.216   4.619 -0.0961  0.0047 -0.4764
 8039W        W24513   4.430  15.257   0.121  0.0401  0.1407  0.2701
 8040W        W24514  17.808  10.117  15.978  0.0393 -0.0347  0.1727
 8041W        W24515  12.175  10.075  15.934 -0.0795  0.0561 -0.2391
 8042W        W24516   9.098   3.871  16.609 -0.1048 -0.2664 -0.0131
 8043W        W24517  11.336   9.940   3.696 -0.0166 -0.1836  0.0436
 8044W        W24518  15.317  12.331   2.144  0.0282  0.1642  0.1369
 8045W        W24519  12.534  15.943   5.755 -0.1165  0.1653 -0.1909
 8046W        W24520  15.116   3.847   1.387 -0.0859  0.1225  0.4108
 8047W        W24521   1.988  14.241  13.475  0.3103  0.2097 -0.0824
 8048W        W24522   4.190  11.021   3.727 -0.2704 -0.2345  0.1649
 8049W        W24523  14.574  14.575  13.861  0.1711 -0.1735 -0.2896
 8050W        W24524  14.961  10.745  11.634 -0.3384  0.0476 -0.0502
 8051W        W24525   2.649  16.152   3.796  0.0516 -0.3477 -0.3112
 8052W        W24526  14.566   7.802   0.878 -0.1161 -0.2200  0.0422
 8053W        W24527   0.361  15.810  14.918 -0.0664 -0.1719 -0.2219
 8054W        W24528  15.367  14.235  13.333 -0.2134  0.1246 -0.3855
 8055W        W24529   0.205  13.597   2.540  0.0096 -0.2331  0.3062
 8056W        W24530   5.869   7.440   2.964 -0.0796 -0.1849  0.1532
 8057W        W24531  17.130  10.100   0.472 -0.0634 -0.0885 -0.0871
 8058W        W24532  15.022  17.458   2.723  0.0535  0.1262  0.2285
 8059W        W24533  17.001   2.207   3.622  0.2627 -0.1171 -0.0872
 8060W        W24534   4.117  15.029  14.243  0.2314  0.2431  0.2279
 8061W        W24535   7.605  17.080   3.902 -0.1726 -0.0409 -0.2850
 8062W        W24536   9.228  11.528  16.086  0.0035  0.0213  0.1328
 8063W        W24537   8.602   2.920  14.954 -0.0065 -0.3167 -0.0589
 8064W        W24538   1.747   0.739   5.426  0.0188  0.1676 -0.1500
 8065W        W24539   3.929  15.718  16.189 -0.2606  0.0002 -0.1409
 8066W        W24540   1.910  17.174   4.814 -0.0145 -0.0471  0.0220
 8067W        W24541   4.055  13.390  12.332  0.0464 -0.0077 -0.2543
 8068W        W24542   6.809   1.289  16.200 -0.0213  0.2090 -0.4375
 8069W        W24543   5.278  12.726  11.398  0.2482  0.3303  0.1776
 8070W        W24544  11.554   1.894  16.252  0.2547 -0.1559 -0.0594
 8071W        W24545   8.917  16.862  12.506 -0.0374  0.0582  0.0173
 8072W        W24546   7.787   0.921   0.369  0.2393  0.0443 -0.2006
 8073W        W24547   6.758  15.173   0.134 -0.0627  0.1790  0.0147
 8074W        W24548  13.054  10.715   1.328 -0.0733 -0.1499 -0.0832
 8075W        W24549  15.441   5.328  13.508 -0.1201 -0.1682  0.0749
 8076W        W24550   8.719  11.301  15.279 -0.0661 -0.0737  0.1747
 8077W        W24551  11.962  10.297   5.574  0.0126  0.0505 -0.1243
 8078W        W24552  14.276  10.362   4.217 -0.1382  0.1845 -0.0360
 8079W        W24553  11.091   9.748   4.668 -0.0287 -0.1331 -0.0035
 8080W        W24554   0.566   3.486   1.824 -0.0161  0.1003  0.2179
 8081W        W24555   8.612   4.024  13.699 -0.0452  0.6790 -0.0925
 8082W        W24556  10.597  12.736  14.308  0.0973 -0.1581 -0.2966
 8083W        W24557  13.684  17.931   1.558 -0.2744 -0.1258 -0.2341
 8084W        W24558   9.851  11.543  16.600 -0.0805 -0.0599  0.0728
 8085W        W24559   8.226   1.507  11.041 -0.1089  0.0869 -0.1081
 8086W        W24560  15.248  14.649  13.033 -0.0304 -0.3498 -0.2057
 8087W        W24561  13.671   0.964  16.095  0.2590  0.3616 -0.1597
 8088W        W24562  17.358   7.380   3.317 -0.2559 -0.4623 -0.2337
 8089W        W24563   8.208  14.370   4.106  0.0065  0.0519  0.3476
 8090W        W24564   2.186   7.340  16.557  0.1580  0.1411 -0.2398
 8091W        W24565   8.112  13.479  13.690 -0.0554  0.2123 -0.3017
 8092W        W24566  10.565  14.999  11.763 -0.0127  0.0750 -0.0067
 8093W        W24567   7.745  16.948  15.440  0.0465  0.3119 -0.2061
 8094W        W24568   4.950  15.040  13.077  0.1309 -0.1337 -0.0244
 8095W        W24569  17.923   2.027  12.026 -0.1195 -0.1636  0.3597
 8096W        W24570   2.782   3.075   3.664 -0.0321  0.1882  0.4145
 8097W        W24571   6.401   6.956   4.244  0.0015 -0.2354  0.1657
 8098W        W24572   9.999  14.412   5.782  0.3466 -0.0230  0.0218
 8099W        W24573  13.407  12.870  12.916  0.0224  0.0239 -0.0993
 8100W        W24574   9.119   5.228  11.369 -0.1995 -0.1073  0.0994
 8101W        W24575  11.124  17.645  12.767  0.1303  0.0446 -0.0449
 8102W        W24576   1.779  16.072  10.589  0.1600  0.3774 -0.2350
 8103W        W24577   6.103   5.397   0.113 -0.4602  0.1000 -0.1384
 8104W        W24578  11.390   4.913   1.664  0.1459 -0.0154 -0.1795
 8105W        W24579   0.381   7.516  16.349  0.0730 -0.0084 -0.2162
 8106W        W24580   5.028  12.439  16.160 -0.1915 -0.1294  0.2453
 8107W        W24581  11.999  15.453  14.897 -0.1889  0.0997  0.1084
 8108W        W24582  16.478   8.666   2.458 -0.2895  0.3184 -0.2582
 8109W        W24583   7.293  13.180  13.356 -0.0428 -0.0637 -0.0172
 8110W        W24584  11.813   3.087  13.691  0.3059 -0.2523 -0.0980
 8111W        W24585   3.899  15.586  14.746  0.0396 -0.2027 -0.0238
 8112W        W24586  13.513   1.687  15.397  0.2608  0.1243 -0.0183
 8113W        W24587  12.731   3.343   4.666 -0.2752 -0.0251 -0.1939
 8114W        W24588   2.626   4.396   6.361 -0.0294 -0.1277  0.1720
 8115W        W24589  10.008   5.319  16.300  0.2181 -0.1721 -0.1266
 8116W        W24590   8.615  17.783  12.459 -0.1504  0.1601  0.2171
 8117W        W24591  10.592  13.988   5.554  0.3706 -0.1825 -0.0288
 8118W        W24592  15.066  15.248   2.980  0.2079 -0.2057 -0.2972
 8119W        W24593  11.793   3.001   4.354 -0.0705 -0.3705  0.1246
 8120W        W24594   4.451   3.309   5.825  0.1990  0.0451  0.1756
 8121W        W24595   8.124   0.306  15.555  0.0031  0.1586  0.3029
 8122W        W24596   7.254   0.826   4.050  0.2065  0.1693 -0.0318
 8123W        W24597  11.582   5.092   5.032 -0.2605 -0.3044  0.1341
 8124W        W24598   2.295   6.244  16.744 -0.0815  0.0508 -0.1429
 8125W        W24599   2.988   6.506   4.582 -0.3922  0.0580  0.2072
 8126W        W24600   1.884  15.775   3.980  0.1881 -0.4057 -0.0024
 8127W        W24601  14.869   9.288  14.437 -0.0674  0.0048  0.0499
 8128W        W24602   0.872   2.172   3.192  0.1427  0.0855  0.1288
 8129W        W24603  15.377   0.431  16.604  0.4331  0.2543  0.2775
 8130W        W24604  17.883   5.012  14.841 -0.2384  0.1182 -0.1084
 8131W        W24605   2.840   7.327   1.454  0.0157 -0.0901 -0.0991
 8132W        W24606   6.701  15.712  13.541  0.0021  0.0249  0.4490
 8133W        W24607  13.826  15.960   1.526  0.0837 -0.1867 -0.1862
 8134W        W24608   8.422   9.293   0.555 -0.2573  0.0707 -0.1178
 8135W        W24609   0.094  11.654   1.376  0.5727  0.1145  0.1552
 8136W        W24610   1.564  16.325   1.585  0.0721 -0.0765 -0.3627
 8137W        W24611  16.699  13.579  12.316  0.0238  0.0853 -0.2707
 8138W        W24612   5.184   0.743   3.117 -0.2260 -0.2046  0.0379
 8139W        W24613   6.184   9.760  15.434  0.1812 -0.0550 -0.0628
 8140W        W24614  10.593   5.758   1.214 -0.0061 -0.0134 -0.1762
 8141W        W24615  11.820   4.681   2.712 -0.1142 -0.2156  0.0014
 8142W        W24616   3.542  13.974   1.526 -0.0287 -0.3973 -0.2848
 8143W        W24617  10.751   3.037  14.862  0.1870  0.1601  0.2282
 8144W        W24618  11.667   4.302  12.193  0.4052  0.0252 -0.2770
 8145W        W24619   8.130   1.331  15.738 -0.0942 -0.1250  0.1324
 8146W        W24620  10.484  11.626  11.623 -0.1728 -0.0603  0.0577
 8147W        W24621   1.948   4.360  15.533  0.4282 -0.0919 -0.4778
 8148W        W24622  14.566   6.428   2.621  0.0095  0.1626  0.1448
 8149W        W24623  15.695   0.624  12.353  0.0357  0.2263  0.1564
 8150W        W24624   3.522   9.807  14.095  0.1035 -0.3350  0.0205
 8151W        W24625   2.840  15.282   1.200 -0.0211  0.2798  0.2103
 8152W        W24626   9.940  11.334   4.339  0.1411 -0.0500  0.0609
 8153W        W24627  13.172   6.710  16.565 -0.0646 -0.1833 -0.3645
 8154W        W24628  14.531   8.925  15.074  0.0919  0.1654 -0.0332
 8155W        W24629   1.534   7.944  16.634 -0.0989  0.0790 -0.1728
 8156W        W24630   5.787  15.364   2.416  0.1397 -0.2307 -0.1007
 8157W        W24631  17.169  14.150   1.552 -0.1080 -0.0396  0.1559
 8158W        W24632   7.191   8.114   0.303  0.0934  0.1415 -0.0197
 8159W        W24633  13.101   7.319  14.158  0.0617  0.0521 -0.3288
 8160W        W24634   0.679  12.595  13.892 -0.2388 -0.1940 -0.2582
 8161W        W24635   5.517   1.556  15.545  0.7287 -0.3006  0.0819
 8162W        W24636   1.938   0.023  12.571  0.0814  0.0713  0.2718
 8163W        W24637  12.834  12.678  12.230  0.3688 -0.0119  0.0647
 8164W        W24638   6.615  11.132   5.029 -0.2469  0.0444  0.2052
 8165W        W24639  12.967   9.815   2.362  0.2240  0.1031 -0.1352
 8166W        W24640   3.498   6.490  12.895  0.3932  0.2696  0.0688
 8167W        W24641  14.617   2.650   2.687  0.3127  0.2963 -0.0791
 8168W        W24642  16.917  13.761  14.572 -0.0088  0.0173 -0.0328
 8169W        W24643   9.933   6.073   3.682 -0.1994  0.1147 -0.2038
 8170W        W24644   6.474  11.822  12.803 -0.0777  0.0016  0.0389
 8171W        W24645  10.005   1.806   0.397 -0.0249 -0.1898  0.0454
 8172W        W24646  17.020   2.447  12.203  0.2024 -0.0496 -0.1146
 8173W        W24647  16.661   7.187  13.537 -0.3372  0.1825  0.0388
 8174W        W24648  10.553   4.695  14.738 -0.0218 -0.1796 -0.2670
 8175W        W24649  11.242  12.390   5.528 -0.0196  0.0231 -0.1853
 8176W        W24650   0.096  13.450   2.072  0.0870 -0.1305  0.1322
 8177W        W24651  14.583  17.948  15.675 -0.1230 -0.0932  0.0468
 8178W        W24652   1.748  12.898   1.427  0.2075  0.1183  0.1167
 8179W        W24653  14.351   4.541  16.737  0.0224  0.0203 -0.2018
 8180W        W24654  14.480  14.631   4.565 -0.0510 -0.1368  0.1049
 8181W        W24655  17.689  16.309   1.291 -0.3021  0.0532  0.1666
 8182W        W24656   4.716   1.241  11.567 -0.1137  0.0175 -0.2542
 8183W        W24657  13.815  12.603  15.221 -0.2343  0.0269 -0.1522
 8184W        W24658   4.934  13.144  15.740  0.3156  0.1341  0.0985
 8185W        W24659  15.702   7.795   5.731 -0.3683 -0.0376 -0.0247
 8186W        W24660   3.389  15.995   4.858 -0.3809  0.2249  0.0108
 8187W        W24661   3.062   0.579  12.328 -0.1524  0.0033 -0.1649
 8188W        W24662  12.720   3.130   2.176 -0.1593 -0.2440  0.1791
 8189W        W24663   6.952   3.783  15.229  0.0315  0.0873 -0.0245
 8190W        W24664  13.919   6.605   4.242  0.0046 -0.0346 -0.0735
 8191W        W24665  13.059  14.459  11.738 -0.0876  0.0711 -0.2144
 8192W        W24666   4.537  17.794  11.840 -0.0236 -0.0215  0.3968
 8193W        W24667  14.762   3.219   4.147  0.1757 -0.1475 -0.1476
 8194W        W24668   6.346   0.188   1.004  0.1142 -0.0251 -0.1174
 8195W        W24669   7.618  17.044  12.933 -0.2315  0.2382 -0.2115
 8196W        W24670  12.235  10.241  10.530 -0.2458  0.0889 -0.1224
 8197W        W24671   7.737   8.464  15.648 -0.0360 -0.2233  0.1148
 8198W        W24672   0.705  16.924   1.338 -0.0127 -0.0969  0.0598
 8199W        W24673  13.972  11.865   2.791 -0.0815 -0.3004 -0.0868
 8200W        W24674   4.546   0.609   3.901  0.2664  0.5732 -0.2393
 8201W        W24675  12.171   4.427   3.895 -0.0717  0.0423  0.1111
 8202W        W24676  10.553   5.357   4.680  0.0025 -0.0734 -0.1156
 8203W        W24677   4.062  13.021  13.607  0.1608  0.0630 -0.2501
 8204W        W24678   2.625  12.398   5.097  0.1101  0.0699  0.0787
 8205W        W24679   2.050   5.499  14.757 -0.0302  0.1882 -0.0837
 8206W        W24680   1.494  12.196  15.553  0.2962 -0.2020 -0.0457
 8207W        W24681   7.760   6.203   2.130 -0.2269  0.0074 -0.2695
 8208W        W24682  16.143  15.397   1.899 -0.0231  0.0450 -0.1521
 8209W        W24683   8.217   0.877   0.698  0.2162  0.1040 -0.0532
 8210W        W24684   3.807   1.460   5.711 -0.1388 -0.1846  0.2531
 8211W        W24685  12.929   1.173   2.413 -0.0407 -0.0458  0.1215
 8212W        W24686   0.241  11.295  15.442 -0.0537 -0.1535  0.0970
 8213W        W24687  14.885  16.084  12.114 -0.0159 -0.0695  0.0583
 8214W        W24688   3.926  13.869   5.131  0.2358 -0.0908 -0.2985
 8215W        W24689  17.503  15.200  16.120 -0.0317  0.2131 -0.3534
 8216W        W24690  17.719  15.087  12.205  0.2334 -0.2999 -0.1458
 8217W        W24691   9.236   0.241   0.127 -0.1832 -0.4995  0.2532
 8218W        W24692  13.832  14.783  15.201  0.2614  0.0123 -0.1441
 8219W        W24693   9.427   2.333  14.923  0.2066  0.0372 -0.3237
 8220W        W24694  15.595   4.953  14.893  0.0279  0.0925 -0.0159
 8221W        W24695   5.160  15.341  14.771  0.1790 -0.2130 -0.1319
 8222W        W24696  13.045  11.623   3.603 -0.0180 -0.1724  0.0472
 8223W        W24697  11.746  13.089   4.111  0.0818  0.1702  0.0942
 8224W        W24698  10.770   6.421  10.831 -0.0917 -0.0401 -0.3650
 8225W        W24699   8.271  11.989  16.378 -0.0927 -0.0885 -0.2446
 8226W        W24700   6.569   1.051   2.029  0.1043  0.0599 -0.0543
 8227W        W24701  11.870  11.268  12.024 -0.1365  0.1458 -0.3597
 8228W        W24702  15.635   4.548   4.426  0.3151 -0.1550 -0.0584
 8229W        W24703   7.549   6.388  15.495  0.1296  0.1245  0.0376
 8230W        W24704   1.459  14.611  14.127 -0.0519  0.0802 -0.1061
 8231W        W24705   2.668   2.062  14.324 -0.1734  0.0276  0.1285
 8232W        W24706  17.749  16.955   2.742  0.0273 -0.0907 -0.3842
 8233W        W24707  13.032   6.966   4.218 -0.1059 -0.2083  0.4072
 8234W        W24708  12.545  15.546  16.644 -0.2558  0.0941 -0.0639
 8235W        W24709  13.422  14.049  16.440 -0.3225  0.0155  0.1344
 8236W        W24710   8.974  14.833  14.097  0.0275  0.0024 -0.1118
 8237W        W24711   4.542  16.168  13.207 -0.1712  0.0878  0.4045
 8238W        W24712  16.659  13.040   5.222 -0.1098 -0.0284  0.2211
 8239W        W24713   0.766  14.976  15.080 -0.3672 -0.0659  0.1517
 8240W        W24714   5.042   7.197  12.598  0.0604 -0.1358 -0.0799
 8241W        W24715  11.525   3.777   5.185 -0.0434  0.2951  0.0723
 8242W        W24716  12.812   3.008  13.974  0.3120 -0.2184 -0.1196
 8243W        W24717  14.568   3.874  15.499  0.2070  0.0308  0.3476
 8244W        W24718  10.088  12.372   6.039  0.0774 -0.0430 -0.0388
 8245W        W24719   8.201   2.387  14.716 -0.0856  0.2346 -0.0351
 8246W        W24720   2.662  16.883  15.889  0.0673 -0.0213  0.1038
 8247W        W24721   0.326   5.019   4.129 -0.0935  0.0495  0.0596
 8248W        W24722   5.299   8.605  13.298  0.0510 -0.3892 -0.0087
 8249W        W24723   1.960  12.126  11.029  0.0254 -0.1934 -0.3487
 8250W        W24724  13.036  12.350   3.091  0.2326 -0.1849 -0.2337
 8251W        W24725  14.062   1.442  10.689 -0.0971  0.1524 -0.0710
 8252W        W24726   5.105   9.699   4.764  0.0521  0.0641  0.0750
 8253W        W24727   6.586   4.388  13.002 -0.0743 -0.0076  0.0773
 8254W        W24728   7.481   6.562   2.810 -0.0920  0.2843 -0.1716
 8255W        W24729  13.281   5.412  16.706  0.0694  0.1606 -0.0184
 8256W        W24730  16.755   6.840  12.569  0.2430 -0.1949 -0.0611
 8257W        W24731   2.356  17.735   3.920  0.1172  0.0566  0.2521
 8258W        W24732   2.557   4.261   5.419 -0.0145  0.0421  0.0397
 8259W        W24733   0.369   8.665  15.366 -0.0708  0.0503 -0.2754
 8260W        W24734  15.689   9.951   1.035  0.0890  0.0404 -0.2825
 8261W        W24735   8.713  12.669  12.189  0.1088 -0.3087  0.1502
 8262W        W24736   7.763  10.200  13.499 -0.1692 -0.1122  0.0705
 8263W        W24737  10.601   3.693   1.502 -0.2824  0.2229 -0.3078
 8264W        W24738  16.571  11.527   3.496 -0.0065  0.1662 -0.0185
 8265W        W24739   2.271  17.543   3.426 -0.0410 -0.0973  0.0175
 8266W        W24740   4.634   9.369   1.998 -0.0650 -0.0481 -0.0762
 8267W        W24741   6.403  11.020  13.901  0.0752 -0.1288  0.0742
 8268W        W24742  12.934   0.402   4.271 -0.2791  0.0133 -0.0581
 8269W        W24743   0.781  14.209   3.303 -0.1384  0.0981  0.1527
 8270W        W24744  11.779   1.720   4.981 -0.1999  0.1242 -0.1463
 8271W        W24745   3.422  10.414   4.958 -0.1636 -0.0954 -0.0544
 8272W        W24746  14.851  11.527   2.716 -0.2733 -0.0443  0.1864
 8273W        W24747   6.757  14.937   0.604 -0.2756  0.2654  0.1246
 8274W        W24748  17.269  12.370  15.290 -0.1579  0.0823  0.0655
 8275W        W24749  11.147  13.386   3.691 -0.0350  0.4010  0.0984
 8276W        W24750  16.599  15.617  11.905  0.0026  0.0614 -0.1726
 8277W        W24751   3.448   0.427   4.312 -0.0720  0.2833 -0.1488
 8278W        W24752  12.625   3.910  13.453 -0.0951 -0.0736  0.0829
 8279W        W24753  15.494   4.769   3.416  0.1077  0.0322 -0.1435
 8280W        W24754   0.728  11.223   2.900  0.0735 -0.4594  0.5560
 8281W        W24755  10.199   0.483  12.982 -0.0312  0.0794 -0.1339
 8282W        W24756  13.531   1.745  12.005 -0.0815 -0.0547 -0.0966
 8283W        W24757  15.190  11.722   0.785  0.1043  0.4523 -0.3395
 8284W        W24758  15.543  17.914   2.033  0.3240 -0.0092  0.4227
 8285W        W24759  16.117   4.304   3.280 -0.1829  0.1851 -0.2074
 8286W        W24760   2.737   1.368  14.278  0.1127 -0.0963  0.1821
 8287W        W24761  14.961   2.982   1.684  0.0041  0.0467 -0.0490
 8288W        W24762   1.931  11.161  12.823 -0.3272 -0.0284 -0.0114
 8289W        W24763   4.318  17.849   0.934 -0.1010 -0.1094 -0.1471
 8290W        W24764  17.280  11.726  13.098 -0.2892 -0.1994 -0.0712
 8291W        W24765   1.548  16.323  14.552 -0.1787  0.0243  0.0582
 8292W        W24766  11.629  12.554   2.568  0.3823 -0.1696 -0.1278
 8293W        W24767   4.857   1.145   2.922  0.1023  0.1931  0.1373
 8294W        W24768   0.898  15.088   4.765 -0.3912 -0.0836 -0.0622
 8295W        W24769   7.695   4.217  13.276  0.1511 -0.2297  0.2202
 8296W        W24770  10.004  11.905   4.185  0.1463 -0.0292 -0.2485
 8297W        W24771   3.742  16.161  15.629 -0.1573  0.0476 -0.0294
 8298W        W24772   6.092   2.458   1.304  0.1401 -0.2535  0.3253
 8299W        W24773   3.217  11.095   0.420 -0.1040  0.1327  0.4406
 8300W        W24774  13.244   1.410  11.790  0.0139  0.1238 -0.0849
 8301W        W24775   5.191   7.465   2.876 -0.1380 -0.1025 -0.0994
 8302W        W24776  15.430   8.111   4.645 -0.0009  0.2235 -0.0525
 8303W        W24777   3.153   3.188   5.357  0.0345  0.0330 -0.2532
 8304W        W24778   8.482   9.883   0.570  0.0984  0.2233  0.0650
 8305W        W24779   1.395   9.514  15.726 -0.1466  0.1344  0.3870
 8306W        W24780  17.689   8.591   1.772  0.0815 -0.0036 -0.2129
 8307W        W24781   4.075  11.924  16.341  0.0298  0.4242  0.4085
 8308W        W24782   1.843  15.867  12.256  0.2308  0.0243 -0.0835
 8309W        W24783   5.962  17.879   2.260 -0.1189  0.0082 -0.2612
 8310W        W24784   0.448  10.173  11.946  0.4346  0.0058  0.0470
 8311W        W24785  12.145  14.622  16.679  0.0602 -0.0986 -0.2042
 8312W        W24786  10.998  10.611  14.070 -0.5019  0.1682 -0.0027
 8313W        W24787  11.083  10.347   5.933 -0.1212  0.6376  0.0010
 8314W        W24788   2.602   0.760   0.347 -0.1042  0.2021  0.1924
 8315W        W24789  10.067  15.889   4.843 -0.0137 -0.0538 -0.2162
 8316W        W24790   1.011  16.291  15.667  0.3987  0.1930 -0.1560
 8317W        W24791   5.205   1.045   5.675 -0.0536  0.0537 -0.3206
 8318W        W24792  16.180   6.459   5.311 -0.0308  0.1134 -0.1174
 8319W        W24793  10.829  14.079  12.521 -0.0232 -0.0084 -0.0920
 8320W        W24794   0.150  11.412  16.570 -0.1249 -0.6103  0.1176
 8321W        W24795  12.459   0.534  15.690 -0.0154  0.2638 -0.0504
 8322W        W24796  15.165  13.560   4.646  0.0117  0.0985 -0.2023
 8323W        W24797  12.873   2.196  15.039 -0.1998 -0.1896  0.1704
 8324W        W24798  15.870  17.976   2.413  0.0297  0.3771  0.2042
 8325W        W24799  14.308  10.538  15.582  0.0814 -0.3769  0.0206
 8326W        W24800   9.074   6.101  13.172  0.1456  0.0374 -0.2077
 8327W        W24801   5.642  13.871  14.523 -0.0096 -0.3274  0.0365
 8328W        W24802  17.439   3.012   1.821 -0.0425  0.0555 -0.1092
 8329W        W24803  15.324  11.076   2.822  0.4521 -0.1648  0.1845
 8330W        W24804   7.183  11.848   1.480 -0.0654  0.2131 -0.0429
 8331W        W24805   0.792   5.261  12.985 -0.0722  0.3616  0.3908
 8332W        W24806  13.493   9.400   0.741  0.0383  0.1865  0.0996
 8333W        W24807   7.669  11.512   1.054 -0.0938 -0.1459 -0.0964
 8334W        W24808   4.497   2.384  16.315 -0.2235  0.3309 -0.0151
 8335W        W24809   3.283  16.153   1.110 -0.1141 -0.0695 -0.0161
 8336W        W24810  13.733   0.580   4.500 -0.1157 -0.0939  0.2811
 8337W        W24811  10.170  12.754   1.003 -0.1430 -0.0178 -0.0742
 8338W        W24812  14.094  10.051   2.870  0.3323 -0.0603  0.0779
 8339W        W24813  12.289   5.917   2.529  0.2712  0.0632  0.3766
 8340W        W24814  11.648   0.086   0.481  0.1452  0.0248  0.1335
 8341W        W24815  15.642  11.824  12.770 -0.2381 -0.0578 -0.1403
 8342W        W24816   1.180  16.473  16.104 -0.0857  0.0334  0.1364
 8343W        W24817  14.240  15.789   2.959  0.0015  0.1582 -0.0341
 8344W        W24818  10.120  13.522   1.960  0.0847 -0.2982 -0.2783
 8345W        W24819   2.379  14.676   1.889 -0.0710  0.0044  0.2170
 8346W        W24820   9.268  13.909   3.867  0.1360 -0.1048 -0.1576
 8347W        W24821   5.001  12.232   0.867  0.0437 -0.0811 -0.1222
 8348W        W24822   5.540   9.170  14.649  0.1424 -0.0136  0.0830
 8349W        W24823  15.955  11.786  16.129  0.1110  0.2331  0.1680
 8350W        W24824  13.518  13.047   2.859  0.2522  0.0246 -0.0126
 8351W        W24825   7.144  14.149   0.059 -0.1793 -0.2062 -0.2241
 8352W        W24826  10.771  17.885  15.507 -0.4569 -0.0464  0.2004
 8353W        W24827  14.556   8.258   5.068 -0.0521  0.2377  0.1518
 8354W        W24828   3.534   0.176  10.690 -0.1635 -0.0149 -0.1585
 8355W        W24829   3.921   5.304  10.565  0.0371 -0.1340 -0.1743
 8356W        W24830   5.161   9.049   2.437 -0.0934 -0.1132  0.1060
 8357W        W24831   9.027   8.205   4.137 -0.2410 -0.0070  0.1268
 8358W        W24832   1.972   4.220  14.584  0.0015 -0.3480 -0.0415
 8359W        W24833  11.077  16.750   2.231  0.0072 -0.1251  0.1413
 8360W        W24834  16.211   8.450   0.118 -0.1105  0.2905 -0.0759
 8361W        W24835   2.314   8.789   5.106 -0.1827  0.0111 -0.1778
 8362W        W24836   8.266   2.298   5.318  0.1995  0.1111  0.0518
 8363W        W24837   2.643   4.983  13.707 -0.0342 -0.4263 -0.0453
 8364W        W24838  10.010   8.018  13.990 -0.0021 -0.1769 -0.0091
 8365W        W24839   8.097   5.033  15.658 -0.0940 -0.0678 -0.0385
 8366W        W24840   9.506  10.876   5.425  0.0533  0.1775 -0.1207
 8367W        W24841   8.927   2.832   1.881 -0.0341  0.0239  0.1093
 8368W        W24842   2.044   8.303  11.824 -0.1231  0.0838 -0.0972
 8369W        W24843  16.447   7.118   3.411  0.0110 -0.0418  0.2121
 8370W        W24844  15.692   7.909  13.552 -0.2313 -0.0422 -0.0176
 8371W        W24845   8.380   4.166   0.412 -0.0242 -0.2420  0.0739
 8372W        W24846  14.106   1.856   0.689  0.3179 -0.0248  0.0357
 8373W        W24847  15.767   1.433  14.895  0.1315  0.2478  0.0587
 8374W        W24848  14.314  10.321  15.116  0.2928  0.0612  0.2248
 8375W        W24849   1.695  17.046  13.596 -0.1883 -0.1206 -0.1810
 8376W        W24850   9.190   3.018   0.533 -0.3716  0.3086  0.1088
 8377W        W24851   7.711  14.239  13.758 -0.2035 -0.0622  0.1439
 8378W        W24852  14.933  12.010   0.266 -0.1142  0.2290 -0.0985
 8379W        W24853   2.843  10.426  16.246  0.0359 -0.4629 -0.2909
 8380W        W24854  10.791   0.306  13.337  0.0760  0.1082 -0.2103
 8381W        W24855  12.481   9.926  14.058 -0.1513  0.1268 -0.2265
 8382W        W24856  12.129   6.521   5.015  0.2035  0.1113 -0.1177
 8383W        W24857  17.887  15.225  14.768  0.1332 -0.2183 -0.3813
 8384W        W24858   9.565  13.425   0.550 -0.1268  0.0051 -0.2949
 8385W        W24859  11.479  10.215  12.237 -0.0347  0.2877  0.2088
 8386W        W24860   7.235  15.599  13.985  0.0009 -0.0581  0.1062
 8387W        W24861  13.623   4.973   2.113  0.0046 -0.1976  0.1028
 8388W        W24862   5.997   7.543  11.525  0.0663 -0.3532 -0.0063
 8389W        W24863  15.265  15.455  11.082  0.1487 -0.3761  0.3988
 8390W        W24864  17.239  13.300  16.100  0.0410 -0.0327 -0.0442
 8391W        W24865   4.584   0.936   3.268  0.3155 -0.0511 -0.2796
 8392W        W24866   2.765   0.559   3.403 -0.0514  0.1293  0.2043
 8393W        W24867   9.688   9.608   2.906  0.1894 -0.3675 -0.2192
 8394W        W24868   8.446   4.157   5.528  0.0621 -0.4332 -0.1323
 8395W        W24869   9.485  16.654   2.170 -0.0288  0.0482 -0.0749
 8396W        W24870   8.419   3.087  11.536  0.1277 -0.1830 -0.0123
 8397W        W24871   3.452   9.195  11.922  0.2049  0.1555 -0.0201
 8398W        W24872   1.973   8.546  12.266 -0.0177 -0.3861  0.3083
 8399W        W24873  16.255   4.052  12.695  0.4217 -0.1490 -0.0239
 8400W        W24874  14.970   3.169  11.699  0.1262  0.0812  0.0233
 8401W        W24875  12.372  16.251   4.819  0.2061 -0.0261  0.1604
 8402W        W24876   0.059  17.216  14.193  0.1765 -0.1740 -0.1791
 8403W        W24877   4.940   4.916  13.451  0.0032  0.1329 -0.0204
 8404W        W24878  13.013   5.543   1.291  0.0578 -0.0152  0.1113
 8405W        W24879  13.431  11.407   5.324 -0.1594  0.2137  0.1291
 8406W        W24880   2.785   8.000   0.354  0.3602 -0.1016  0.0737
 8407W        W24881  15.283   3.925  12.771 -0.0402  0.2579  0.2617
 8408W        W24882  11.266   1.704  13.660  0.1559  0.1689 -0.2940
 8409W        W24883   1.726   4.110   2.892  0.0223 -0.0101  0.2127
 8410W        W24884   1.637  14.834  12.070 -0.0161  0.1074  0.1063
 8411W        W24885   8.874   9.748  13.477 -0.0380 -0.1641  0.0464
 8412W        W24886   8.228   5.511   2.116  0.1899 -0.3394  0.1813
 8413W        W24887   5.990   1.960   1.441  0.2032 -0.1701  0.1898
 8414W        W24888   2.458   2.858   1.753 -0.0356  0.2613 -0.1483
 8415W        W24889   9.060  15.918   1.409 -0.2148 -0.0313  0.2001
 8416W        W24890  14.173   3.771  12.050  0.0266  0.2174 -0.2650
 8417W        W24891  17.747  16.128   3.800 -0.2903  0.0032 -0.1304
 8418W        W24892  15.297  16.736  16.764  0.1442  0.0350  0.1452
 8419W        W24893  11.794   5.149   3.745 -0.1520  0.3241 -0.0180
 8420W        W24894  17.467  14.697  12.453  0.1672 -0.0759 -0.1465
 8421W        W24895   3.299   3.980  13.880 -0.1541  0.0068  0.2511
 8422W        W24896   5.138   7.150  15.207  0.1399  0.2954 -0.0242
 8423W        W24897  13.351  12.671   2.149  0.1702  0.4348 -0.1555
 8424W        W24898   1.168   7.960  12.365 -0.0870 -0.1829 -0.0254
 8425W        W24899   4.518  17.846  12.674 -0.2715 -0.0340 -0.2735
 8426W        W24900  14.432   3.520   0.056  0.2845  0.2465 -0.0026
 8427W        W24901   7.773   6.137   2.649 -0.3543 -0.2056  0.4080
 8428W        W24902  14.653  10.034  14.828 -0.0535 -0.0896  0.0040
 8429W        W24903  15.005   5.080  16.775 -0.4035 -0.0285  0.0050
 8430W        W24904   6.178   5.059   5.408  0.0661 -0.0619 -0.1882
 8431W        W24905   3.053   9.533  12.124  0.0090 -0.1864  0.1080
 8432W        W24906  15.925   3.049   3.500 -0.4099 -0.2433 -0.0359
 8433W        W24907   5.294   5.244  12.194 -0.1002 -0.3417  0.1555
 8434W        W24908  13.332  12.209   1.446 -0.0728 -0.0255 -0.2067
 8435W        W24909  10.987   3.503  14.629 -0.0160 -0.1814 -0.0573
 8436W        W24910   4.289   0.423  16.034  0.2880  0.0940  0.0040
 8437W        W24911   5.791   8.291  14.695  0.0494  0.2076  0.1077
 8438W        W24912  15.427   1.755   4.650 -0.2018 -0.2191  0.0070
 8439W        W24913   0.307   5.872   1.240 -0.0438 -0.0697  0.2755
 8440W        W24914   3.313   1.744   4.511 -0.0794  0.4416  0.0729
 8441W        W24915  14.170   5.552  16.641 -0.1294  0.1007  0.0849
 8442W        W24916  17.927  11.426   2.665  0.0656  0.0940 -0.0379
 8443W        W24917   1.644   0.505  16.503  0.0451 -0.0811  0.0446
 8444W        W24918   3.148   8.512  16.548  0.0398  0.2266  0.2430
 8445W        W24919  14.705  17.040  12.004 -0.0924  0.2930  0.2022
 8446W        W24920  16.534   3.442   2.438 -0.0660 -0.0500  0.1914
 8447W        W24921   9.572   4.252  11.738 -0.2129 -0.2919 -0.0848
 8448W        W24922   9.527   6.053  16.440 -0.3255  0.0302  0.0417
 8449W        W24923  10.364  12.960  13.379 -0.2746 -0.1780  0.2838
 8450W        W24924   6.131  15.600   2.680  0.0328 -0.0946  0.1193
 8451W        W24925   0.692   2.982   1.761  0.0298  0.0173 -0.2118
 8452W        W24926  16.566   9.268   6.209 -0.0079 -0.0981 -0.3079
 8453W        W24927  12.995   2.140  16.501  0.0181 -0.1905  0.0623
 8454W        W24928   4.218  15.040  13.053  0.2087  0.2401  0.0330
 8455W        W24929   5.704   5.837   1.318 -0.2241  0.2019  0.1575
 8456W        W24930  15.633   8.516  15.170 -0.2814 -0.2699 -0.1490
 8457W        W24931   9.991   7.429   2.101  0.0310 -0.0396  0.1583
 8458W        W24932  11.501  11.555  12.250 -0.3377  0.0708  0.2128
 8459W        W24933   2.866  13.101   5.576 -0.0837 -0.2609  0.3337
 8460W        W24934   3.753   0.138  14.811 -0.0499 -0.0289 -0.1251
 8461W        W24935   0.356   2.735  14.414 -0.1183  0.0090 -0.0411
 8462W        W24936  14.366  15.555   4.487  0.1412  0.1606 -0.0431
 8463W        W24937  14.389   0.259   2.021  0.1762  0.1817 -0.0058
 8464W        W24938  17.193   8.015  13.183  0.2701  0.2335 -0.1122
 8465W        W24939   6.423  11.874  15.974  0.1903 -0.0367 -0.2400
 8466W        W24940   7.342  11.270   3.460  0.1430  0.1547 -0.3053
 8467W        W24941   5.978   4.929   3.422 -0.0349  0.2520 -0.1670
 8468W        W24942  14.315  16.016   0.331 -0.1068 -0.1849  0.1894
 8469W        W24943  11.416  14.199  15.510  0.3027  0.1145  0.1074
 8470W        W24944   9.006  16.661   5.332 -0.0491  0.0365  0.0222
 8471W        W24945  14.949  17.733  14.727  0.0403 -0.0432 -0.0566
 8472W        W24946  15.433   5.051  14.432  0.2347 -0.1069 -0.0170
 8473W        W24947   8.733  13.540  14.849 -0.1550  0.2695 -0.2140
 8474W        W24948  17.498   4.131   5.406  0.0583 -0.2348 -0.3373
 8475W        W24949   4.926   7.966   3.065  0.0774  0.0649 -0.3681
 8476W        W24950   9.557   1.110   1.355  0.2249  0.2243  0.0948
 8477W        W24951  17.858   6.516   3.020 -0.0813  0.0981  0.3061
 8478W        W24952  11.516   1.071   0.904  0.2055  0.2753 -0.0396
 8479W        W24953  15.581   7.058   4.155  0.0661 -0.0015  0.1867
 8480W        W24954   2.015   8.172   1.228  0.0491 -0.1318  0.1113
 8481W        W24955  17.885  13.814   3.420 -0.1189  0.1089 -0.2055
 8482W        W24956   8.116  10.063  14.351 -0.2884 -0.0742 -0.1780
 8483W        W24957   8.688  16.223   1.628  0.2317  0.1472  0.1350
 8484W        W24958  10.113   4.342   1.486 -0.0574  0.2085  0.1440
 8485W        W24959  11.670  10.552  12.534 -0.0914  0.2785  0.2019
 8486W        W24960   7.262  10.692   4.463  0.1127 -0.4499 -0.1301
 8487W        W24961   8.052   7.552   0.339 -0.0369 -0.1512  0.1315
 8488W        W24962  16.528  10.173   2.143  0.1725 -0.1249  0.0010
 8489W        W24963  14.265   4.260   1.566  0.1049  0.0084  0.1367
 8490W        W24964  13.564  15.668  14.988  0.0723  0.0661 -0.2980
 8491W        W24965  17.815   1.673   0.713 -0.0122 -0.2257  0.1922
 8492W        W24966   1.116  11.225  15.601 -0.0367 -0.0307 -0.0207
 8493W        W24967   3.850   5.425  11.973  0.1487  0.2872  0.0951
 8494W        W24968  14.251  15.924   5.138 -0.1506  0.2256  0.2010
 8495W        W24969   1.320  16.958  12.610 -0.0856 -0.0109  0.1555
 8496W        W24970  12.051  14.557   0.858 -0.1451  0.2788 -0.1758
 8497W        W24971  13.177   2.715  13.794  0.2045 -0.2708 -0.0616
 8498W        W24972   8.999   3.585   2.138 -0.1083 -0.3084  0.0906
 8499W        W24973   3.745   1.592   2.068 -0.1740  0.1671 -0.0414
 8500W        W24974  11.311  13.822  13.633  0.0991  0.2393  0.0597
 8501W        W24975   7.610   8.887  15.867  0.1106  0.1266  0.0786
 8502W        W24976  11.494  12.567  13.917  0.0280 -0.2173 -0.1766
 8503W        W24977  13.014   8.576   3.279  0.2184 -0.2153  0.0018
 8504W        W24978  10.601  12.828  12.344  0.0444  0.2664 -0.0949
 8505W        W24979  15.176   1.369  12.769 -0.0988  0.1103 -0.0829
 8506W        W24980   7.874  11.385   2.495 -0.2221 -0.0764  0.2655
 8507W        W24981  13.878  13.280   3.829  0.3270 -0.1743 -0.0378
 8508W        W24982   4.798   1.662   3.870  0.1493  0.1656 -0.4749
 8509W        W24983  16.277   1.152   2.494 -0.2336  0.2500  0.1771
 8510W        W24984  17.951  16.049  13.121 -0.1756 -0.1033  0.1360
 8511W        W24985   8.332   8.815  13.617 -0.0885 -0.1922  0.0293
 8512W        W24986   6.886  12.042   3.739 -0.0869  0.0893  0.0892
 8513W        W24987  13.648  16.445  14.797 -0.0546  0.1863 -0.0232
 8514W        W24988   1.402  15.919  12.456 -0.2005 -0.0551  0.0191
 8515W        W24989  17.578  10.862   0.255 -0.0356  0.0005 -0.2224
 8516W        W24990   7.123  14.883   2.438  0.0647 -0.4626  0.0400
 8517W        W24991  16.673  16.631   1.871 -0.2849  0.1004 -0.1816
 8518W        W24992   5.759   8.272   5.922 -0.0491  0.1966  0.0526
 8519W        W24993  12.196   1.585   5.274 -0.0850 -0.0974  0.0952
 8520W        W24994  17.920  13.927  15.885  0.1361 -0.1540  0.1772
 8521W        W24995   0.869   0.697   5.211  0.3280 -0.3096  0.1004
 8522W        W24996  10.674   8.917   3.248 -0.2181  0.1932  0.1381
 8523W        W24997  11.122   9.360   5.709 -0.1449  0.0756 -0.0693
 8524W        W24998   9.295  17.052   5.253  0.0844  0.2289 -0.0184
 8525W        W24999  13.681  17.652  15.495 -0.1182  0.1938  0.1244
 8526W        W25000  15.202   3.182  12.212 -0.2951 -0.0703  0.1369
 8527W        W25001   4.312  16.787   3.223  0.1081 -0.1204  0.1358
 8528W        W25002   6.857   9.082   1.655 -0.0437 -0.2771 -0.2394
 8529W        W25003  16.351   8.120   0.532 -0.1296 -0.0976  0.1809
 8530W        W25004   8.123   3.882   1.660  0.1326  0.1056  0.2096
 8531W        W25005  17.815  15.882  15.815 -0.1712 -0.0829  0.3874
 8532W        W25006  10.431  10.046   3.156  0.2461 -0.0785 -0.0074
 8533W        W25007   3.836  11.512  14.083  0.1470  0.2496 -0.2075
 8534W        W25008   0.130  11.933  14.172  0.1998  0.0754 -0.2329
 8535W        W25009   7.822  15.925  16.357 -0.0265 -0.2063 -0.2301
 8536W        W25010  11.454   6.546   1.411  0.0339  0.6149 -0.1293
 8537W        W25011  11.057  10.545  13.041 -0.2769 -0.2350  0.2132
 8538W        W25012   5.252  17.114   5.328  0.0388 -0.0773 -0.1619
 8539W        W25013   3.511   6.175   0.300  0.2487 -0.2477 -0.1560
 8540W        W25014   5.729   2.721  16.154  0.1030  0.0026 -0.3542
 8541W        W25015   9.883   4.086   3.606  0.2934  0.1775  0.0768
 8542W        W25016  12.666  14.327  12.531  0.1361 -0.1713 -0.0409
 8543W        W25017   2.304  14.699   2.899  0.0498  0.0129 -0.1711
 8544W        W25018  16.799   8.457   0.847 -0.0338 -0.1727 -0.2439
 8545W        W25019  16.838   4.450  13.106  0.0474  0.0428 -0.1535
 8546W        W25020  17.012   2.769   2.961  0.0330 -0.2226 -0.0458
 8547W        W25021   5.215  16.905  15.885  0.2171  0.1292 -0.1200
 8548W        W25022  11.046  12.569  15.468 -0.0724 -0.0021  0.1063
 8549W        W25023   5.236   1.479  14.038  0.1783 -0.1563  0.0627
 8550W        W25024   9.055   3.472   3.558 -0.0843  0.2437 -0.4219
 8551W        W25025   8.309  13.062   0.915 -0.2361  0.3075 -0.3025
 8552W        W25026   7.989   0.456   0.476  0.1345 -0.2086  0.2686
 8553W        W25027   8.168  16.240  12.563  0.2129  0.0136  0.3311
 8554W        W25028   3.053   3.530   1.869  0.1080 -0.2960 -0.0626
 8555W        W25029  13.481   2.102  13.340 -0.0454  0.1790 -0.0615
 8556W        W25030  17.476   2.244  14.517  0.0234 -0.2091  0.0252
 8557W        W25031  14.583   4.314  16.186  0.0035  0.0323  0.0365
 8558W        W25032   3.905   8.950   0.002  0.2044  0.0634  0.4024
 8559W        W25033   4.948  12.968  13.406 -0.1467 -0.0107 -0.0325
 8560W        W25034   3.263   2.745   1.850  0.1195  0.1377 -0.2016
 8561W        W25035   9.679  16.863  13.147 -0.0758 -0.1335  0.1458
 8562W        W25036   6.944  11.425  14.119 -0.1934 -0.0407  0.0139
 8563W        W25037   2.184   4.761   5.002  0.2267 -0.2225 -0.4867
 8564W        W25038   9.872  10.399  14.318  0.1896  0.2168 -0.0475
 8565W        W25039  15.049   9.692  11.728  0.1091 -0.0035 -0.2317
 8566W        W25040  14.182   5.987  16.384  0.2839 -0.1916 -0.1603
 8567W        W25041   6.934  16.651  16.526  0.2373  0.2269 -0.1596
 8568W        W25042   2.524   0.614   4.307 -0.0115  0.1451  0.0161
 8569W        W25043  17.681  15.476   4.275 -0.2420  0.1190  0.0408
 8570W        W25044  14.908   5.625   2.280 -0.1131 -0.0799 -0.1432
 8571W        W25045   5.399  11.042  12.625  0.0727 -0.1795 -0.1974
 8572W        W25046   4.964  13.186  12.591 -0.0009 -0.1266 -0.0484
 8573W        W25047  11.409   2.308  12.572 -0.3854  0.0169  0.0059
 8574W        W25048   4.360  12.107  14.288  0.3256 -0.1929 -0.2461
 8575W        W25049  11.305   8.350  12.749  0.1013  0.0833 -0.0537
 8576W        W25050   1.668  13.589   0.883  0.0935  0.3452 -0.3634
 8577W        W25051   5.136   6.599   3.484 -0.0167  0.3828 -0.0967
 8578W        W25052   1.050   0.736  16.641  0.1233  0.0203  0.0161
 8579W        W25053   4.888  17.731  12.974  0.0710  0.1277  0.0217
 8580W        W25054  10.488   2.497   5.173  0.3222  0.0232  0.0209
 8581W        W25055  12.421  11.263   0.115 -0.0917  0.0243  0.0587
 8582W        W25056  16.887   3.995  15.752 -0.0128 -0.1306  0.2925
 8583W        W25057   5.774  10.228   1.621  0.2839  0.1418  0.2791
 8584W        W25058   2.960  17.282  13.391 -0.2415  0.0517  0.1372
 8585W        W25059   8.398   5.785  15.470  0.1951  0.0867 -0.0436
 8586W        W25060   7.110  15.660  15.112  0.0482  0.0110  0.0480
 8587W        W25061   3.481  15.275   4.675 -0.1586 -0.0821  0.3926
 8588W        W25062   6.999  13.578   0.707 -0.0979 -0.1646 -0.4077
 8589W        W25063  13.823   6.755  13.022  0.0257 -0.0102  0.3975
 8590W        W25064   5.178   5.070  14.645  0.1212  0.3275 -0.1318
 8591W        W25065  13.766   4.636  16.595 -0.1622 -0.3098 -0.0292
 8592W        W25066   8.080  10.469  15.149 -0.2057 -0.0760 -0.0218
 8593W        W25067  15.270  15.376  12.178  0.0322 -0.1779  0.0618
 8594W        W25068  13.161  17.295  13.287 -0.4400  0.2674  0.2594
 8595W        W25069  10.922  12.920   3.004  0.1995 -0.0552 -0.1010
 8596W        W25070  13.118  16.846   1.142  0.0306  0.1119  0.0836
 8597W        W25071   3.121  17.189   0.300 -0.0181  0.1713  0.0333
 8598W        W25072   3.825   0.015  14.102 -0.0449  0.0430 -0.1932
 8599W        W25073   9.490   8.678   5.596 -0.0021  0.1572 -0.1267
 8600W        W25074   9.453  14.248   0.172  0.2689 -0.3118  0.1025
 8601W        W25075  10.628  13.333  12.336 -0.1087  0.0322 -0.2062
 8602W        W25076  11.124  12.268  14.165  0.0727  0.1696 -0.1104
 8603W        W25077  14.876  12.930   0.525 -0.1459 -0.1492  0.0752
 8604W        W25078   0.037  13.175   1.585 -0.0082 -0.0858  0.0830
 8605W        W25079  14.863  15.418  16.613 -0.1338 -0.2013  0.3000
 8606W        W25080   0.034   7.964  14.947  0.0212  0.0556  0.0535
 8607W        W25081   2.528   4.277   2.020  0.0317 -0.0319  0.1477
 8608W        W25082   7.206   9.832   3.165  0.0134 -0.0268  0.5452
 8609W        W25083   4.863   8.261   4.902 -0.0688  0.0735  0.0712
 8610W        W25084   1.099   9.795  14.199  0.0284 -0.6781 -0.0152
 8611W        W25085  17.651   4.857  15.383 -0.3413  0.3085 -0.0835
 8612W        W25086  14.976   6.680  16.745  0.0634  0.1520 -0.3419
 8613W        W25087   8.780  16.573  11.936 -0.1104 -0.1388 -0.0053
 8614W        W25088   6.460  11.581  14.783  0.0392  0.2374  0.0797
 8615W        W25089  17.221   9.496   3.451  0.1093 -0.1443 -0.0998
 8616W        W25090  12.709  14.307  15.811  0.0388 -0.1877  0.2301
 8617W        W25091   8.457   7.220   0.362 -0.1954  0.0297 -0.0142
 8618W        W25092  15.664   5.735   5.509 -0.3140 -0.0252  0.1402
 8619W        W25093   6.276  13.898   5.379  0.1107  0.0952  0.3009
 8620W        W25094   4.490  12.213  11.715 -0.0335  0.0743 -0.1310
 8621W        W25095   3.468   0.355   1.269  0.0503 -0.1231 -0.0096
 8622W        W25096   7.436   3.565   3.929 -0.2404 -0.3337  0.1729
 8623W        W25097  14.908  10.684   4.799 -0.1428  0.0094  0.0284
 8624W        W25098  10.554   0.822  13.987 -0.2757  0.0751  0.0169
 8625W        W25099  11.502   0.886   4.439  0.1204 -0.1294 -0.0917
 8626W        W25100  10.224   6.110   1.298 -0.1934 -0.0400  0.2820
 8627W        W25101   3.893  15.575   5.344 -0.1824  0.2210 -0.3203
 8628W        W25102   9.593   4.882   0.807 -0.0575 -0.0196 -0.0360
 8629W        W25103   0.914  13.429   1.739 -0.4483  0.1008 -0.1276
 8630W        W25104   8.091   6.536  14.363  0.0461  0.2190 -0.2274
 8631W        W25105  10.847   4.520   4.724  0.3327 -0.0221  0.0387
 8632W        W25106   2.759   2.656  13.671 -0.0403 -0.1187  0.0518
 8633W        W25107  14.463   9.348  14.186 -0.1678  0.1053 -0.0556
 8634W        W25108  15.095  10.104   5.268  0.1101 -0.0679  0.2887
 8635W        W25109  15.093  15.339  14.320  0.3867  0.1119 -0.2430
 8636W        W25110  16.384   5.225   6.220  0.1199 -0.1148  0.1340
 8637W        W25111  13.485  16.397   3.062 -0.3235 -0.0091 -0.2284
 8638W        W25112  12.844   8.185   4.780 -0.0668  0.0108 -0.1946
 8639W        W25113   5.349  10.200   3.033  0.0674  0.1799 -0.0222
 8640W        W25114  17.366   5.480   1.872 -0.1686  0.1214  0.2077
 8641W        W25115  12.968  15.204  15.226  0.1881 -0.2432 -0.1844
 8642W        W25116  17.131  11.168   0.419  0.3132 -0.1295 -0.1341
 8643W        W25117   4.401   8.542  11.154  0.1618  0.0185  0.0133
 8644W        W25118  10.312   5.993   3.326 -0.1192 -0.3053 -0.2173
 8645W        W25119  12.439  13.665   3.390 -0.0226 -0.0893 -0.1338
 8646W        W25120  15.256   1.639   0.774 -0.1619 -0.1099  0.1449
 8647W        W25121   2.941  11.274  11.233 -0.1817  0.1249  0.2656
 8648W        W25122   0.230   2.496   0.860 -0.2084 -0.1167 -0.1550
 8649W        W25123  14.234   8.971   3.266  0.1853 -0.1392  0.0330
 8650W        W25124  12.077  15.103  15.647 -0.0413 -0.2257  0.2540
 8651W        W25125  10.024   8.696   5.338 -0.1443 -0.0490  0.3443
 8652W        W25126  15.571   0.181  13.980  0.2204  0.2259 -0.1636
 8653W        W25127   2.698   5.808   0.163 -0.1407  0.0272 -0.3521
 8654W        W25128   8.863  15.577   2.349  0.1138  0.0894 -0.1531
 8655W        W25129  10.138  13.800   3.710 -0.0171  0.1224  0.2203
 8656W        W25130   6.510  12.098  14.895  0.0075  0.1201 -0.3259
 8657W        W25131  12.393   3.725  14.908  0.1278  0.0130  0.0471
 8658W        W25132   1.422   6.088  14.602 -0.0124  0.2047  0.1807
 8659W        W25133   9.848   5.712  11.704  0.1780  0.0470 -0.0569
 8660W        W25134  15.692  17.926   3.877 -0.0760  0.4897  0.2148
 8661W        W25135  13.647   4.291   1.671 -0.2354 -0.0006  0.0551
 8662W        W25136  17.982   4.863  16.397  0.0627 -0.2246  0.0101
 8663W        W25137   8.910   2.585  16.710  0.1836 -0.0592 -0.3442
 8664W        W25138  17.490  12.958   3.551 -0.1475 -0.0050 -0.2223
 8665W        W25139  11.717  11.220   4.223 -0.1761  0.1983 -0.0930
 8666W        W25140   3.617  16.446   5.073  0.0155  0.1046 -0.0439
 8667W        W25141  12.621   5.964   0.592 -0.0814  0.1743  0.2878
 8668W        W25142   9.937   4.626  12.887 -0.0965 -0.0109  0.0386
 8669W        W25143   1.557   0.037   3.075 -0.3718  0.0720  0.1109
 8670W        W25144  12.997  11.037  14.025 -0.2041 -0.2206  0.0080
 8671W        W25145   0.430   9.219   3.012 -0.0620  0.1654 -0.0056
 8672W        W25146   3.499  16.071  14.746 -0.1480  0.3274 -0.1527
 8673W        W25147   1.924  13.456   5.483 -0.0230  0.2218  0.2315
 8674W        W25148  14.370   5.606  11.806 -0.2560 -0.0049 -0.0212
 8675W        W25149  10.251   2.700   3.638 -0.2066 -0.1025  0.2096
 8676W        W25150   9.026   0.688  11.247 -0.4191  0.1583 -0.1080
 8677W        W25151  17.780   6.785  13.040 -0.0046  0.0740 -0.2847
 8678W        W25152   2.416   4.014   3.643 -0.0979 -0.0060 -0.1006
 8679W        W25153   7.398  17.344  12.458  0.1935  0.1596  0.1609
 8680W        W25154   9.969   5.566  13.843  0.1193 -0.0126 -0.2932
 8681W        W25155   8.568   4.946  14.452 -0.1913 -0.0577  0.1815
 8682W        W25156  11.491  15.233  16.378  0.4125 -0.0538 -0.1259
 8683W        W25157   8.896  11.075   0.265 -0.1548 -0.5188 -0.0044
 8684W        W25158   0.961  11.196   0.266  0.1274  0.0219 -0.2322
 8685W        W25159  12.579   7.731   4.823  0.0450  0.1778  0.0640
 8686W        W25160  15.597  10.798   0.780 -0.0581  0.0320 -0.0252
 8687W        W25161   2.800  11.743  11.250  0.0940  0.0639 -0.0362
 8688W        W25162  13.868   0.761   1.269 -0.1218 -0.2883 -0.0829
 8689W        W25163  15.389  10.124  14.297 -0.1074  0.0884  0.2525
 8690W        W25164   5.578  14.377   1.268 -0.3297  0.0007 -0.0165
 8691W        W25165  11.363   6.772   5.601  0.1510 -0.0201 -0.4439
 8692W        W25166  10.827   3.198  12.310 -0.2109 -0.2796 -0.3079
 8693W        W25167   1.332  13.416   0.571  0.0092 -0.0896 -0.0576
 8694W        W25168   9.431   8.211  12.564  0.0688  0.0343  0.0153
 8695W        W25169  11.946  16.027   2.232  0.2954 -0.2059 -0.0381
 8696W        W25170  10.445   3.474  14.751  0.1224 -0.1123  0.1286
 8697W        W25171   5.136  14.688   4.521 -0.0460  0.0036 -0.1113
 8698W        W25172  11.394   3.674   5.845 -0.1036  0.0780  0.0596
 8699W        W25173   0.828  11.978   2.373  0.1097  0.0980  0.1430
 8700W        W25174   8.452   3.507   1.532 -0.1542  0.0083 -0.3138
 8701W        W25175   2.684   5.259  10.597 -0.0621  0.0391 -0.1111
 8702W        W25176   6.256  15.215  14.747 -0.0552 -0.2146 -0.4647
 8703W        W25177  15.158   0.796  16.322  0.2260 -0.0452 -0.0411
 8704W        W25178  17.979  16.965  14.749  0.1089  0.1735 -0.1919
 8705W        W25179   5.118  14.739   3.065 -0.0287  0.0004 -0.0196
 8706W        W25180  10.291   9.864  11.881  0.0041 -0.0453 -0.0485
 8707W        W25181   7.020  13.438  10.975  0.2631 -0.1431  0.2969
 8708W        W25182   2.136  12.306  16.540 -0.0383  0.2179 -0.2689
 8709W        W25183  10.951  10.057  13.754  0.4512  0.3718  0.1334
 8710W        W25184  10.748  13.280   0.205 -0.2543 -0.3969  0.0299
 8711W        W25185   4.713  17.955   0.685 -0.2239 -0.1515  0.0398
 8712W        W25186   3.884   5.769  14.752  0.0346  0.2197 -0.2644
 8713W        W25187  16.569  13.838   4.861  0.0597 -0.0792 -0.0564
 8714W        W25188   0.329  10.145  16.690 -0.0934  0.0395  0.3393
 8715W        W25189  11.368  10.541   3.530  0.0338 -0.1375 -0.1604
 8716W        W25190   7.055   2.987  13.759 -0.0561 -0.1056 -0.3865
 8717W        W25191  10.910   4.000  12.958  0.0476  0.0015 -0.1180
 8718W        W25192   8.535  10.379  14.193  0.0876  0.0845 -0.1709
 8719W        W25193  16.484  17.449   4.932  0.1243  0.0710 -0.0656
 8720W        W25194  14.052   7.642  15.550  0.0098  0.0809 -0.2657
 8721W        W25195   9.041  12.821   5.858  0.2875 -0.1270 -0.1633
 8722W        W25196   8.438   9.825   2.037 -0.0917  0.1557 -0.1453
 8723W        W25197  11.708   4.502  16.516 -0.1205 -0.1347 -0.3245
 8724W        W25198   8.919   5.734  12.129  0.2036  0.0426 -0.0585
 8725W        W25199   9.460   0.707  14.869 -0.0743 -0.0478  0.0660
 8726W        W25200  13.649   4.963  14.692  0.0591  0.0516 -0.0230
 8727W        W25201   6.372   3.581  14.116  0.0005  0.0981 -0.2058
 8728W        W25202  12.476  13.179  16.372  0.2678  0.4125  0.2221
 8729W        W25203  12.976   1.059  11.528  0.0599 -0.0603 -0.0619
 8730W        W25204   6.065   4.349  15.421 -0.1638 -0.0832 -0.1021
 8731W        W25205   4.328  15.077   4.603  0.0774  0.1215 -0.1996
 8732W        W25206   8.272   4.820   1.484 -0.0165 -0.3489 -0.0254
 8733W        W25207  10.285   4.516  15.119  0.0764 -0.0875  0.4182
 8734W        W25208   5.034   4.432  14.670  0.2916 -0.1153 -0.1847
 8735W        W25209  12.746   5.857   1.704 -0.0721 -0.1779  0.1510
 8736W        W25210  14.626   1.073   0.381 -0.4088  0.1528 -0.2883
 8737W        W25211   5.670  15.148  16.120  0.3954  0.1735  0.3496
 8738W        W25212  12.474   1.390  16.160  0.0073 -0.0944 -0.0172
 8739W        W25213  10.449   8.432   0.455  0.0257 -0.2003 -0.0942
 8740W        W25214  16.597  16.730  15.268  0.0745 -0.0454  0.0796
 8741W        W25215  17.959   1.090  12.769  0.0384  0.0117 -0.1552
 8742W        W25216  16.549   6.360   1.709 -0.3361  0.0249  0.0607
 8743W        W25217   8.302   7.866  15.618  0.2570  0.1281 -0.1114
 8744W        W25218  13.300  17.811   3.384 -0.1448 -0.1813 -0.0680
 8745W        W25219   3.011  14.561   0.818  0.0621  0.1100  0.0768
 8746W        W25220   1.390   7.934   3.067  0.2779 -0.2271  0.0503
 8747W        W25221   4.181   8.461  15.025 -0.0403  0.1358 -0.0496
 8748W        W25222   6.623   6.272   1.519 -0.0353 -0.3853  0.0659
 8749W        W25223  15.197   3.915   4.427  0.1377 -0.0050  0.1307
 8750W        W25224   5.065  15.519  15.286  0.1809 -0.1207 -0.0229
 8751W        W25225  17.980  11.204   1.218  0.1615 -0.0335  0.3801
 8752W        W25226   3.694  17.543   3.183 -0.0617  0.0090  0.1107
 8753W        W25227  11.382   7.359   2.613 -0.0841  0.0232  0.2362
 8754W        W25228  14.124  12.527   3.289 -0.2098 -0.3693 -0.3083
 8755W        W25229   1.943  17.491   3.053  0.0597  0.0949 -0.1892
 8756W        W25230   3.824   6.629   3.530 -0.2041  0.2386  0.1375
 8757W        W25231   7.905   7.526  15.926  0.0693 -0.0058  0.1197
 8758W        W25232   4.331   2.863  11.793 -0.0041  0.3670 -0.2076
 8759W        W25233   2.062   9.457   5.481  0.0834  0.0061 -0.0102
 8760W        W25234  15.790   4.494   2.833  0.0528 -0.1665  0.0155
 8761W        W25235   3.359  13.453  11.197 -0.1814  0.1563  0.1839
 8762W        W25236   7.582  13.274  15.596  0.0293  0.0413 -0.0186
 8763W        W25237   1.479   3.637   2.747 -0.0495  0.0209  0.1172
 8764W        W25238   6.821   4.479   5.015 -0.0043 -0.0535 -0.0177
 8765W        W25239  12.484  13.415  13.545  0.3802  0.0669  0.1162
 8766W        W25240   7.543  11.292   1.552  0.0679  0.0079  0.1815
 8767W        W25241  15.025   4.109   2.495 -0.0987 -0.1150 -0.2204
 8768W        W25242  10.400   4.535   3.413  0.1093  0.0999  0.0981
 8769W        W25243  11.146   6.120   0.181  0.1326  0.0227  0.2359
 8770W        W25244   3.997   5.373   1.368 -0.1124 -0.1920 -0.2389
 8771W        W25245   6.458  11.415   2.413 -0.0391  0.2078  0.2684
 8772W        W25246  10.178  12.032   5.659 -0.1574 -0.0662  0.1486
 8773W        W25247  17.390   3.136  11.951  0.2339  0.1906  0.0080
 8774W        W25248  12.488   3.901  12.468  0.0486  0.0385 -0.1956
 8775W        W25249  12.540   8.774   3.948  0.1577 -0.0333  0.1160
 8776W        W25250  13.114  17.586  14.761 -0.2041  0.0775  0.2014
 8777W        W25251   3.369   9.178  15.013 -0.2499 -0.0790  0.0022
 8778W        W25252  14.228   3.094   3.451 -0.1700 -0.0717  0.0109
 8779W        W25253  12.124   9.621  15.244 -0.0409 -0.2354 -0.1721
 8780W        W25254   8.257  11.360   1.188  0.0933  0.3721  0.0130
 8781W        W25255   0.714   9.604  13.364  0.3457 -0.0410 -0.2435
 8782W        W25256   2.350   9.390  12.727  0.2008 -0.2409  0.2505
 8783W        W25257  14.016  10.771  14.023  0.0479 -0.3050 -0.0394
 8784W        W25258   5.238   6.290  15.117 -0.0305 -0.0241 -0.0966
 8785W        W25259   7.199   9.380  13.157 -0.1048 -0.0922 -0.1443
 8786W        W25260   4.906   4.682   1.839 -0.0009 -0.1853  0.3470
 8787W        W25261   7.210  12.130  11.503  0.0929  0.1134 -0.3314
 8788W        W25262  16.292  14.007  13.044 -0.2944 -0.1674 -0.0228
 8789W        W25263  10.229   7.674  15.728  0.0950 -0.2910  0.1040
 8790W        W25264  14.428  10.512   4.712 -0.2910 -0.1052  0.0586
 8791W        W25265  10.830   0.804  15.095  0.4353 -0.2584 -0.0461
 8792W        W25266   3.750   3.253   0.296 -0.1436  0.0432 -0.0666
 8793W        W25267  13.395  14.605   0.212  0.4730 -0.2163  0.0015
 8794W        W25268  16.508  13.768  16.420 -0.0690 -0.2818  0.1676
 8795W        W25269  14.225  17.048   3.966  0.0079  0.0671 -0.0849
 8796W        W25270  14.204   4.153  10.901 -0.0955  0.0348 -0.0546
 8797W        W25271   6.601  12.289  11.425 -0.1217  0.0793 -0.1899
 8798W        W25272   7.247   1.490   2.478 -0.2859 -0.0775  0.0913
 8799W        W25273   2.203   2.631   4.377  0.1808  0.0847  0.1129
 8800W        W25274   2.679  15.457  15.335 -0.1857 -0.1096  0.2059
 8801W        W25275  10.650   7.376   4.996 -0.0544  0.3626  0.0430
 8802W        W25276  17.781  16.019   5.680 -0.2777  0.1030 -0.1541
 8803W        W25277  11.332  12.918  11.230 -0.2972 -0.2832 -0.0648
 8804W        W25278   6.310  16.099   5.127  0.1411 -0.0384 -0.1543
 8805W        W25279   6.160   7.516  16.263 -0.1979  0.3638 -0.2031
 8806W        W25280  15.081  15.213   0.293  0.1509 -0.2131  0.0764
 8807W        W25281   4.156   1.744  11.174 -0.1024 -0.1153 -0.1665
 8808W        W25282   9.515   4.618  15.242 -0.1764  0.1559  0.0991
 8809W        W25283   5.376   2.082  14.077 -0.0081 -0.0821 -0.0514
 8810W        W25284   6.401   6.248   3.726 -0.2044  0.0145 -0.2464
 8811W        W25285   9.045  16.235  15.182  0.1913  0.0419  0.3952
 8812W        W25286  11.678  16.537  12.786 -0.0820  0.0153 -0.0611
 8813W        W25287  14.314  13.614  12.855  0.1826 -0.3326  0.2570
 8814W        W25288   4.443  17.529  12.283  0.0144 -0.0428  0.0481
 8815W        W25289  13.328   8.407  16.356 -0.3647 -0.0507 -0.1684
 8816W        W25290  17.081   7.860   6.136 -0.1736 -0.1042 -0.0997
 8817W        W25291   9.387   5.704  11.954  0.2180  0.1408  0.0895
 8818W        W25292  17.669  13.090  12.238 -0.0466  0.2666 -0.1499
 8819W        W25293  13.687  17.528   3.280 -0.1112 -0.1233  0.0595
 8820W        W25294   1.956  13.418  16.230 -0.0951 -0.0464 -0.2460
 8821W        W25295  16.248  17.564   6.241 -0.3003  0.3123 -0.1422
 8822W        W25296  12.136  11.464  13.353  0.0604  0.0600  0.0015
 8823W        W25297   3.016   4.135  15.285 -0.0799 -0.1065  0.2717
 8824W        W25298   4.188   3.280   4.492  0.2837  0.0769 -0.1844
 8825W        W25299  17.775   5.481   4.001  0.1874 -0.2245  0.0478
 8826W        W25300   2.977  10.778   4.826 -0.3680  0.2860  0.0209
 8827W        W25301   4.095  16.401  13.489 -0.2303  0.2321  0.0692
 8828W        W25302  15.293   2.411  12.220  0.0077 -0.1164 -0.0378
 8829W        W25303   7.469   8.911  12.548 -0.1168  0.1641 -0.1521
 8830W        W25304  11.631  16.888   3.507  0.1681  0.0676  0.1408
 8831W        W25305   3.703  10.431  15.250 -0.0939  0.1070  0.0103
 8832W        W25306   0.695   7.927  14.215  0.0991 -0.0517 -0.1428
 8833W        W25307   4.891   3.465   0.086  0.0214 -0.0159  0.2365
 8834W        W25308   5.767  17.899  13.583 -0.2390  0.0945  0.2437
 8835W        W25309  13.833  11.635   5.173  0.0115  0.1812 -0.0423
 8836W        W25310   4.451  16.199   5.231 -0.0528 -0.0239 -0.2817
 8837W        W25311   0.172  11.356  12.905  0.0062 -0.2519 -0.1901
 8838W        W25312   7.774  11.959  15.198 -0.2965  0.1762 -0.1910
 8839W        W25313  14.723  13.629   3.897  0.0446  0.0275 -0.0599
 8840W        W25314   9.784   2.603   2.847  0.0465  0.1574 -0.3497
 8841W        W25315  12.475  14.432   1.120 -0.1884  0.0318 -0.0002
 8842W        W25316   5.267   7.342  12.116 -0.1183 -0.2509  0.1028
 8843W        W25317   5.995  15.754   1.705 -0.3401  0.1265  0.1963
 8844W        W25318   8.610   6.291   2.680  0.3661  0.2022 -0.2951
 8845W        W25319   9.141  10.994   4.756  0.1281  0.1870 -0.5396
 8846W        W25320   5.836  15.902   1.015  0.0744  0.2295 -0.0555
 8847W        W25321   4.334   4.065  12.477 -0.0837 -0.2340 -0.0086
 8848W        W25322  16.171   1.142  15.084  0.0694  0.1833 -0.1359
 8849W        W25323   7.682   1.249  14.045  0.0172  0.2495  0.0910
 8850W        W25324   3.679  15.186   5.748 -0.3676 -0.1628 -0.0565
 8851W        W25325  13.444  15.620   0.745 -0.1149 -0.1241 -0.0514
 8852W        W25326   0.648   9.501  15.113  0.0360  0.0250 -0.1390
 8853W        W25327   9.399   1.731   5.320 -0.0929 -0.0026  0.3931
 8854W        W25328  17.361   4.305   0.132  0.1371  0.1017  0.1791
 8855W        W25329  14.897  13.997   0.585 -0.3537 -0.1175 -0.0150
 8856W        W25330  13.961   7.139  12.210  0.2862  0.3877 -0.0759
 8857W        W25331  16.552   9.204   0.300  0.2042  0.2988  0.0930
 8858W        W25332  13.675  13.444  14.662 -0.1972 -0.1042 -0.0349
 8859W        W25333  13.494   0.079   5.145 -0.0480  0.2000  0.1581
 8860W        W25334   9.871   3.822  13.279  0.0077  0.1072  0.1148
 8861W        W25335  11.757   8.821   2.387 -0.2034  0.3023  0.0111
 8862W        W25336   1.429   0.599  12.768 -0.0828 -0.2857 -0.6924
 8863W        W25337  16.330   1.978   0.809 -0.2694 -0.2094  0.0531
 8864W        W25338  11.448  16.869   5.771  0.1768 -0.0233  0.0974
 8865W        W25339  17.588  11.954   0.989 -0.1697 -0.0463 -0.0617
 8866W        W25340   8.023   7.375   5.172  0.2397  0.0270 -0.2863
 8867W        W25341  10.643   2.076  13.006 -0.1189  0.0376 -0.3060
 8868W        W25342  17.250   6.459   4.837 -0.0333  0.1510 -0.2776
 8869W        W25343  16.789  16.184  14.637 -0.1133 -0.1153 -0.1144
 8870W        W25344  13.573   2.344  13.753  0.2160 -0.2266  0.2105
 8871W        W25345   8.349  10.043  15.183 -0.2384  0.3381  0.0229
 8872W        W25346   1.594   7.225  13.329  0.0574 -0.3072 -0.1865
 8873W        W25347  14.411  16.831  12.811  0.0627  0.0024 -0.3174
 8874W        W25348   8.794  10.949   2.489  0.2835 -0.2881 -0.2013
 8875W        W25349  13.986   9.891  16.425 -0.0027  0.2291  0.0776
 8876W        W25350  14.268   5.090  16.689  0.2689 -0.2595 -0.0431
 8877W        W25351  13.080  17.146   5.117  0.1222  0.1919  0.2609
 8878W        W25352   4.922  15.795  13.173 -0.3661  0.0213 -0.2064
 8879W        W25353   6.450  17.866   5.071 -0.1756  0.1502 -0.0473
 8880W        W25354  12.678   4.988  11.884 -0.0608 -0.0668 -0.1757
 8881W        W25355  12.800   7.274   3.119 -0.1858 -0.2249  0.0991
 8882W        W25356  11.761  13.554   4.454 -0.1768  0.0385 -0.0612
 8883W        W25357  15.511  13.272  11.312 -0.0131  0.1245 -0.0600
 8884W        W25358   8.670   3.470   0.150 -0.1087  0.1197 -0.1419
 8885W        W25359   6.769  14.078  12.665 -0.0251 -0.0145  0.2030
 8886W        W25360   2.807   4.938  13.189  0.2705 -0.0625  0.1656
 8887W        W25361   0.815   3.695  12.031  0.0636  0.3006  0.2779
 8888W        W25362  17.417  15.704  12.657  0.0469  0.2961 -0.2111
 8889W        W25363   6.353   5.267   4.837 -0.3207  0.0887 -0.1901
 8890W        W25364   6.472   6.925   0.733  0.0019  0.1170 -0.0030
 8891W        W25365   1.312  16.544  13.307 -0.0091  0.1099  0.2025
 8892W        W25366  10.341  16.411   2.658 -0.0968  0.3976 -0.1598
 8893W        W25367   2.237   7.360  11.381  0.1059  0.0968  0.3838
 8894W        W25368  12.832   7.879  13.649  0.0934 -0.1134  0.1829
 8895W        W25369  10.213   2.359   2.801  0.1322  0.1406  0.1980
 8896W        W25370   8.580  10.278   0.249 -0.0349 -0.0018  0.1022
 8897W        W25371  12.353  11.488   2.320  0.0257 -0.3859 -0.0404
 8898W        W25372   3.496   7.460   0.994 -0.0653 -0.1493  0.0573
 8899W        W25373   4.945   2.556   0.930  0.0256 -0.0081  0.2471
 8900W        W25374   7.415  14.373  14.615 -0.3422  0.0988  0.0886
 8901W        W25375  10.031  11.108  14.975  0.1925 -0.2414 -0.0952
 8902W        W25376  16.229   9.471   5.907 -0.0633 -0.1690 -0.4055
 8903W        W25377   6.767  10.192   0.147 -0.1724  0.0632 -0.0375
 8904W        W25378  10.722   7.435   4.089 -0.0268  0.1095 -0.1383
 8905W        W25379   8.312  17.229   2.817 -0.0403  0.3872  0.1116
 8906W        W25380   2.807   7.383   3.056 -0.1819 -0.2952 -0.0696
 8907W        W25381   2.109   0.834   4.086 -0.2322  0.1359  0.0681
 8908W        W25382   2.229   4.604   0.777 -0.1364 -0.2270 -0.0715
 8909W        W25383  11.229   6.452  13.171 -0.1503  0.1268 -0.0311
 8910W        W25384  14.247   5.211  16.170 -0.2151 -0.1363  0.0250
 8911W        W25385  17.356  12.806  13.473  0.1075  0.1131  0.2294
 8912W        W25386   6.076  10.012   5.569 -0.1752  0.2892 -0.1848
 8913W        W25387  16.828  13.002  11.470 -0.0650 -0.0203  0.3828
 8914W        W25388   8.703  12.266  11.727 -0.1057 -0.2245  0.0091
 8915W        W25389   6.110   7.676  12.007 -0.2572  0.1299 -0.0737
 8916W        W25390   0.998  12.293  11.252  0.2055  0.4885  0.2234
 8917W        W25391   6.719   8.957  14.137  0.3618 -0.0011  0.0364
 8918W        W25392   3.038   0.495   3.866 -0.1857 -0.1521  0.0891
 8919W        W25393  15.160  15.566  13.507 -0.5107  0.1320 -0.0572
 8920W        W25394   9.582   7.620  14.880  0.1293 -0.0891  0.0957
 8921W        W25395   4.562  17.873   2.012 -0.0802  0.1703  0.0688
 8922W        W25396  14.693   9.535  15.105  0.0021 -0.0085 -0.2523
 8923W        W25397  16.361  16.318   1.579 -0.0108 -0.0012 -0.2412
 8924W        W25398   8.488   2.096  11.075  0.2601 -0.1038  0.1142
 8925W        W25399   5.578   3.914  14.172  0.1573 -0.3138  0.0736
 8926W        W25400   5.077  12.223   4.116  0.1524  0.2035  0.1041
 8927W        W25401   4.077   4.575  13.532 -0.0956  0.1519  0.2210
 8928W        W25402   0.724  17.617   4.192 -0.0304 -0.3462  0.0421
 8929W        W25403  12.440   3.384   5.072  0.0214 -0.1443 -0.0288
 8930W        W25404   1.849  10.727  13.059  0.0865 -0.1576  0.0217
 8931W        W25405   9.179  16.437  14.623 -0.1523 -0.0241  0.3919
 8932W        W25406   3.798   4.463  14.209  0.1037 -0.1251 -0.0838
 8933W        W25407   4.359   9.567  12.989  0.0601 -0.3350  0.2208
 8934W        W25408   9.345   4.284   4.410  0.2832 -0.1294 -0.0570
 8935W        W25409   0.509   1.774  16.257 -0.1804 -0.1908 -0.1910
 8936W        W25410  10.775   6.372  12.512 -0.1186  0.0387 -0.0111
 8937W        W25411   3.266  12.116  12.861 -0.3411  0.1755  0.2343
 8938W        W25412  10.096  17.380   0.637  0.2048 -0.1473  0.3507
 8939W        W25413  13.875  12.282   0.275 -0.0601  0.1856  0.0168
 8940W        W25414  13.094   8.784  14.484 -0.2226  0.4027  0.2117
 8941W        W25415   8.185  13.209   2.530  0.2770  0.2488  0.1046
 8942W        W25416   4.992  17.357   2.635  0.0131  0.1116  0.0008
 8943W        W25417  17.368  15.957  14.969 -0.3985 -0.1125 -0.0960
 8944W        W25418  11.595   1.278  13.327  0.3122  0.0065  0.0921
 8945W        W25419   8.778   2.349  13.214  0.3268 -0.1327 -0.0961
 8946W        W25420  11.939  17.928   3.158  0.1471 -0.0204 -0.0995
 8947W        W25421  17.862   7.388   5.883 -0.3114  0.0851 -0.1463
 8948W        W25422  15.661   4.364   0.215  0.2109 -0.1354 -0.1373
 8949W        W25423  14.519   4.061   2.507  0.2060  0.3000  0.2067
 8950W        W25424   9.808   8.381  12.290  0.2261  0.0772  0.1885
 8951W        W25425  14.638   3.298  15.552 -0.1031 -0.0384 -0.1095
 8952W        W25426  16.234  14.742   4.909 -0.2780  0.2158 -0.2752
 8953W        W25427   5.523  17.884   3.228  0.2301  0.1564  0.2220
 8954W        W25428   6.750   3.565   5.549  0.2110  0.0057  0.1972
 8955W        W25429   6.108  17.845  12.156 -0.1722 -0.0374 -0.1900
 8956W        W25430   3.123   2.638  15.973  0.1014 -0.3584 -0.0925
 8957W        W25431  13.217  11.357  16.426  0.0526  0.0453  0.3144
 8958W        W25432  12.815  15.268  16.301 -0.1329 -0.1163 -0.2359
 8959W        W25433   0.900   9.685  16.634  0.0106  0.0904  0.1117
 8960W        W25434   3.594   9.427  16.721 -0.0669  0.0010  0.0569
 8961W        W25435   2.275   4.512  15.971 -0.0687 -0.1270  0.0620
 8962W        W25436   1.974  14.474   3.941 -0.3524 -0.1649 -0.2643
 8963W        W25437   5.839   2.157   0.061  0.0987  0.1693 -0.0536
 8964W        W25438   8.207   1.522  13.474  0.3260 -0.0980  0.0804
 8965W        W25439  11.507   8.254  13.822 -0.2065  0.2525  0.0132
 8966W        W25440  12.616  14.502  11.994 -0.3618 -0.2760 -0.1346
 8967W        W25441   0.138   1.591   2.460  0.0137 -0.1926  0.1690
 8968W        W25442   8.831   9.073   0.768 -0.3391 -0.0509  0.1891
 8969W        W25443   9.494   3.886   4.705 -0.0356 -0.0885 -0.0634
 8970W        W25444  17.412   5.173   0.627 -0.0246  0.0572  0.1484
 8971W        W25445   1.388   8.515   4.703 -0.2878 -0.1162 -0.0529
 8972W        W25446  13.528   2.908  13.425  0.3605 -0.0852 -0.0964
 8973W        W25447  13.037   4.286   4.362 -0.1166 -0.0257 -0.2213
 8974W        W25448   2.964  13.985   1.949 -0.1562 -0.1991 -0.2933
 8975W        W25449   8.991  13.762   1.344 -0.2177 -0.1983 -0.4088
 8976W        W25450   8.547  15.409   3.198  0.1447  0.1868  0.1847
 8977W        W25451   0.240   3.651   0.790  0.1704  0.2520 -0.3702
 8978W        W25452  10.403  12.101  15.580  0.1601 -0.4132  0.3707
 8979W        W25453   4.962   4.257  13.593 -0.0937 -0.0213  0.1862
 8980W        W25454  10.600   8.331   4.433 -0.0802 -0.1092 -0.1322
 8981W        W25455  12.144   4.513   0.075 -0.3602  0.2150 -0.0578
 8982W        W25456  17.209   1.009   1.649 -0.0548 -0.1012  0.0738
 8983W        W25457   8.035   8.930  16.301 -0.1361 -0.1788  0.1649
 8984W        W25458   1.882  10.300  12.095  0.2297 -0.3240 -0.1469
 8985W        W25459   8.222   2.742   1.265 -0.2853 -0.0070 -0.0683
 8986W        W25460   5.055   1.085   4.965  0.0408  0.1768 -0.3669
 8987W        W25461  17.531  17.242  15.898  0.0643  0.1471 -0.0316
 8988W        W25462  12.549  11.484  12.972 -0.0910 -0.1322  0.0343
 8989W        W25463   6.232  11.954   4.624  0.1842  0.0132  0.1241
 8990W        W25464   8.584  11.020  14.881  0.0837  0.0745 -0.2942
 8991W        W25465   3.120  14.257   0.443  0.1452  0.0683  0.0182
 8992W        W25466   2.545  17.463   5.325 -0.2080 -0.1947 -0.1954
 8993W        W25467  16.648  14.911  15.075  0.1787 -0.0232 -0.3844
 8994W        W25468   7.136   2.581  11.883  0.2285 -0.0714  0.5273
 8995W        W25469   2.027  11.090  10.931 -0.0779 -0.0274 -0.0784
 8996W        W25470   5.836  12.677  16.616 -0.0047  0.2730  0.1472
 8997W        W25471  17.043   0.156   2.716  0.1182  0.1809  0.3736
 8998W        W25472  13.106   9.819  12.661  0.1743 -0.0928 -0.0765
 8999W        W25473   7.644  11.468   5.304 -0.3286  0.1224 -0.2217
 9000W        W25474   5.220   5.434  15.154 -0.2748  0.2484  0.3176
 9001W        W25475  10.739   6.333  13.143 -0.0461 -0.0571 -0.2563
 9002W        W25476   2.495  13.290  14.809 -0.0153  0.2174 -0.0260
 9003W        W25477   7.115   7.987  14.228 -0.0684 -0.1282  0.1500
 9004W        W25478  17.328  13.142  14.838 -0.1593  0.0234 -0.2552
 9005W        W25479  16.018   7.053  15.748  0.0356  0.0239  0.1217
 9006W        W25480  16.105   9.008   3.434 -0.4565  0.1795 -0.1211
 9007W        W25481   8.815   7.476  11.849 -0.0222  0.3233  0.0687
 9008W        W25482  10.194   5.256  11.731 -0.0786  0.2736  0.1418
 9009W        W25483   8.250   5.663   1.419  0.1403  0.0012 -0.4191
 9010W        W25484  10.615  13.294   1.829  0.0887  0.1621  0.2146
 9011W        W25485  17.876  16.022   2.632 -0.0216 -0.2905 -0.1585
 9012W        W25486  14.280   3.378  16.321 -0.3271 -0.0387  0.0874
 9013W        W25487  10.316   2.139   4.219  0.2471 -0.1687  0.1090
 9014W        W25488   5.640   2.832   3.156 -0.1356 -0.0733  0.4862
 9015W        W25489   0.045  11.959   2.444  0.0933 -0.0668 -0.0127
 9016W        W25490  10.296  13.492  14.825  0.1438 -0.2148 -0.1761
 9017W        W25491  15.235   6.176   4.611 -0.0564 -0.2612 -0.1385
 9018W        W25492   4.489   9.836  13.484 -0.0982 -0.1705 -0.1389
 9019W        W25493  11.389  12.385   5.060 -0.1743 -0.0962  0.1480
 9020W        W25494   1.424   2.219  14.290 -0.0835 -0.0059  0.2405
 9021W        W25495  13.971   0.722   6.190 -0.1023  0.2200 -0.0403
 9022W        W25496   4.936   3.688  15.820 -0.0040 -0.0748 -0.0255
 9023W        W25497   9.763   2.888   3.673  0.1178  0.0077 -0.0371
 9024W        W25498   6.687   4.033  12.710 -0.2535 -0.0688 -0.0402
 9025W        W25499  10.066   5.307  12.198  0.4212 -0.2133  0.1047
 9026W        W25500  11.358   1.668  11.332  0.1299  0.0364 -0.2851
 9027W        W25501  11.412  16.543  16.534 -0.2782  0.3427 -0.2511
 9028W        W25502  10.618  14.835   5.119 -0.2285 -0.0235  0.1421
 9029W        W25503  15.856  16.980   5.651  0.0309  0.0477  0.2168
 9030W        W25504   3.450   3.877   0.493  0.0108  0.1448  0.0682
 9031W        W25505   4.093  16.582   4.983 -0.3538  0.0608  0.2422
 9032W        W25506   8.978   2.720   1.150 -0.0536 -0.1386  0.1603
 9033W        W25507   5.993   4.343   4.930 -0.4105 -0.0250  0.1193
 9034W        W25508   2.949   7.027   5.171 -0.1713 -0.1829  0.3146
 9035W        W25509  16.484  15.961  13.759 -0.0912 -0.0232 -0.2850
 9036W        W25510  11.696   1.779   0.916 -0.2714  0.0986  0.4773
 9037W        W25511   6.488   9.205   5.819 -0.0893  0.0034 -0.0283
 9038W        W25512   6.434  10.696  16.368  0.2540  0.0825  0.0612
 9039W        W25513   4.637   0.520  16.598  0.3156 -0.0039 -0.0815
 9040W        W25514  10.399  16.990   0.457 -0.0847 -0.1836  0.0459
 9041W        W25515  17.978  15.570   3.191  0.0651 -0.1652 -0.1619
 9042W        W25516  12.513  16.819   3.686  0.0631 -0.2575  0.0687
 9043W        W25517  14.236   6.840   5.061 -0.1052  0.3225  0.2059
 9044W        W25518   0.080  10.475   3.747 -0.2679  0.2486 -0.2329
 9045W        W25519   4.697   5.853  14.625  0.1777  0.1428  0.0618
 9046W        W25520   5.063  17.571  12.525 -0.2352 -0.3750  0.2449
 9047W        W25521   9.988   3.234   4.047  0.1952 -0.1438 -0.0182
 9048W        W25522  16.547   1.235   3.371  0.3193 -0.2420 -0.2402
 9049W        W25523   1.606  10.632   4.008  0.3430 -0.0785 -0.0041
 9050W        W25524   7.508  12.233  16.398 -0.1343  0.0468  0.1335
 9051W        W25525   1.847  14.751   2.547  0.1412 -0.1447 -0.0469
 9052W        W25526  13.574  17.721   4.685 -0.1138  0.0583  0.1800
 9053W        W25527   8.000  11.687   1.636 -0.0251  0.2537  0.1063
 9054W        W25528  15.873   9.279  13.769  0.5217  0.1599  0.3031
 9055W        W25529   6.405  12.245   0.242 -0.1221 -0.1810  0.3512
 9056W        W25530  16.622   1.530   4.299 -0.0521  0.1106  0.3302
 9057W        W25531  13.138  11.450   2.085  0.0655 -0.1915 -0.1352
 9058W        W25532  15.529   6.812  13.221 -0.0015 -0.1437  0.2048
 9059W        W25533   0.448   5.744   3.006  0.0124 -0.1078 -0.0386
 9060W        W25534   5.053  10.730  14.542  0.1708  0.2727 -0.1539
 9061W        W25535  13.914  11.766   2.309 -0.0174  0.3140 -0.2318
 9062W        W25536   2.813   3.042  15.913 -0.0720 -0.0656 -0.1608
 9063W        W25537   3.337   5.805   2.724 -0.3422 -0.1366 -0.2603
 9064W        W25538  12.847  17.315   1.351  0.2930 -0.0952 -0.1398
 9065W        W25539   2.381  13.410   4.101 -0.1999  0.0134 -0.4182
 9066W        W25540   6.824  15.817   2.145  0.0820  0.1292 -0.1393
 9067W        W25541   5.806   5.268  12.267 -0.2226 -0.2633 -0.2249
 9068W        W25542  10.486  11.759  16.503  0.1085 -0.2128  0.0907
 9069W        W25543   9.479   5.593  16.534 -0.1413 -0.1762  0.1672
 9070W        W25544   5.828   0.653   3.750  0.0878 -0.0491 -0.0128
 9071W        W25545   5.095  16.394   3.528 -0.0424 -0.0784  0.3443
 9072W        W25546  17.453   9.548   5.507  0.1002  0.1743 -0.2341
 9073W        W25547  16.976   0.030   0.200 -0.2387 -0.0036 -0.1991
 9074W        W25548  10.894   4.944  15.581  0.2029  0.1485 -0.0496
 9075W        W25549   4.404   2.170   1.498 -0.2759 -0.1487 -0.3388
 9076W        W25550  14.795  13.760   1.921 -0.3858 -0.2175 -0.1308
 9077W        W25551  17.260   5.758   3.998 -0.0801  0.0797 -0.1303
 9078W        W25552   9.330   1.134   4.811 -0.1757  0.1719 -0.1324
 9079W        W25553   5.215   5.752   2.725 -0.2145  0.3820 -0.1239
 9080W        W25554   9.610   4.887   2.678  0.2980 -0.1455 -0.0528
 9081W        W25555   3.448   0.423  11.732  0.1076  0.0936 -0.0339
 9082W        W25556  16.214  17.640   2.797  0.0613  0.2305 -0.0081
 9083W        W25557  10.702   8.252   4.946  0.0171  0.0971  0.1921
 9084W        W25558   2.816   3.756   3.986  0.3170 -0.1200  0.3752
 9085W        W25559   2.675   9.241  16.251  0.1788 -0.2294  0.2938
 9086W        W25560   2.730  11.890   1.430 -0.3063  0.0370 -0.2173
 9087W        W25561  11.945  11.874   5.388  0.1531 -0.0923  0.3357
 9088W        W25562   5.716  13.251  11.123 -0.0292  0.0665  0.1134
 9089W        W25563  11.001  17.392   3.977  0.1205  0.1557  0.0849
 9090W        W25564   6.419   7.398   1.127 -0.0343 -0.1023  0.1400
 9091W        W25565  14.159  16.382  13.574  0.1323 -0.0594  0.1647
 9092W        W25566  13.359   2.292  14.820 -0.0491  0.1582 -0.0079
 9093W        W25567   5.046   7.818   3.631  0.1807 -0.1965 -0.1233
 9094W        W25568  14.797  16.708  12.403  0.0104  0.0982  0.0664
 9095W        W25569   1.988   3.173  12.248  0.0940  0.0115 -0.0774
 9096W        W25570   8.181  10.824  12.386  0.0708  0.1033  0.0549
 9097W        W25571  10.848   9.920  11.854  0.1630 -0.1677 -0.0972
 9098W        W25572  11.681   4.470  15.013  0.1220  0.1349  0.2559
 9099W        W25573  12.429   5.028  13.493  0.0302  0.0104  0.0236
 9100W        W25574   6.791  10.316  16.216 -0.4239  0.0228  0.0343
 9101W        W25575   9.021  11.248   4.354  0.1082 -0.0934 -0.0388
 9102W        W25576  15.737   2.832  11.645  0.1539  0.2501 -0.1015
 9103W        W25577   2.821   9.304   0.159 -0.3260 -0.0975 -0.0595
 9104W        W25578  12.730   7.553  16.437 -0.3941 -0.1738  0.1166
 9105W        W25579   8.764   0.207   2.781 -0.0111  0.1387  0.0057
 9106W        W25580   2.585   4.108  15.916 -0.3106 -0.1697  0.1030
 9107W        W25581   3.895  15.773   4.002 -0.5877  0.0323 -0.2106
 9108W        W25582   4.314   4.799   1.996 -0.0731 -0.0981 -0.0751
 9109W        W25583  16.608  11.997   1.725  0.1312  0.0066 -0.1683
 9110W        W25584  11.669   2.907   5.877 -0.4943 -0.3487  0.0706
 9111W        W25585   6.661   9.636  12.417 -0.1480 -0.1194  0.1389
 9112W        W25586   5.537   6.895   4.162 -0.1672 -0.0278 -0.1285
 9113W        W25587  12.155  15.354  13.773 -0.1186 -0.1064  0.3404
 9114W        W25588   1.753   0.771   3.697 -0.1586  0.2421  0.0911
 9115W        W25589  14.014   0.732  13.264 -0.0124  0.0482 -0.1896
 9116W        W25590  14.813  17.661  13.477  0.2541  0.1694  0.1183
 9117W        W25591  16.795   3.686   2.890  0.0126 -0.0690  0.0466
 9118W        W25592  14.705  10.518   0.748 -0.1629 -0.0981  0.2843
 9119W        W25593   6.589   3.657  10.626  0.3810 -0.0195 -0.0193
 9120W        W25594  16.697  13.283  15.699 -0.0286 -0.0131  0.1712
 9121W        W25595  13.155   6.875   0.244 -0.2352  0.1908  0.2001
 9122W        W25596   4.344  11.893  12.509 -0.0644 -0.0832 -0.0919
 9123W        W25597  16.832  13.779  15.997  0.0612 -0.0221  0.2876
 9124W        W25598   2.174   4.971  16.202  0.0205  0.2054 -0.0789
 9125W        W25599  12.949   4.146   0.243  0.0986  0.0473 -0.0576
 9126W        W25600   7.972  12.504  15.226 -0.2067 -0.0715 -0.1697
 9127W        W25601   9.754   0.588  15.311 -0.1434  0.2654  0.2824
 9128W        W25602   8.730  14.335  11.731 -0.1885 -0.2171 -0.1599
 9129W        W25603  16.846   1.599  14.829  0.1009 -0.2479  0.3491
 9130W        W25604  16.784   1.834   1.553 -0.3306 -0.2844  0.0137
 9131W        W25605   4.725   9.362  13.799 -0.1644 -0.3635 -0.1881
 9132W        W25606   3.885  12.337   0.688  0.4512 -0.2720  0.1160
 9133W        W25607  14.989  12.988  13.997 -0.1441 -0.1762 -0.0960
 9134W        W25608   4.289  14.299  11.632  0.3576 -0.0925  0.0399
 9135W        W25609   1.714   0.054   2.022  0.2475  0.0443  0.2423
 9136W        W25610   7.888   3.969  14.876  0.0471  0.2471 -0.2846
 9137W        W25611  13.716  10.937   2.526  0.3099 -0.4482 -0.1307
 9138W        W25612   9.330   1.863   2.669 -0.0984  0.0840 -0.0358
 9139W        W25613  12.691   0.653  12.653  0.2740  0.3238  0.4684
 9140W        W25614  17.283  14.038  15.370  0.1014 -0.2343  0.0747
 9141W        W25615  10.687  15.394  12.114  0.3379  0.1424 -0.2454
 9142W        W25616  13.385  11.913   1.837  0.0331 -0.3578 -0.1750
 9143W        W25617  12.198  14.535  12.236  0.3000 -0.0836  0.1539
 9144W        W25618   0.437   2.410  16.361 -0.1550  0.0398 -0.1994
 9145W        W25619  13.213   3.261  12.220  0.1251 -0.2039 -0.0668
 9146W        W25620   6.317   2.475   2.668  0.1812 -0.1538  0.1137
 9147W        W25621   6.655   1.912   0.220 -0.1088 -0.0115 -0.4027
 9148W        W25622  12.635  14.558   0.058  0.0522  0.0289  0.0573
 9149W        W25623   1.721   8.016   1.763  0.1847 -0.1047  0.1325
 9150W        W25624  10.136   3.433  14.155  0.2054  0.2202  0.1519
 9151W        W25625   8.856   8.412  15.813  0.1167 -0.0458  0.0746
 9152W        W25626  14.195   5.345  14.093 -0.4070 -0.1617  0.0136
 9153W        W25627  14.197  15.336   1.410 -0.1164 -0.0476 -0.0285
 9154W        W25628  16.109  15.383  11.324 -0.3341 -0.0627 -0.0631
 9155W        W25629   6.597   6.502   4.168  0.0116  0.0584 -0.0850
 9156W        W25630   6.435   6.801   5.185 -0.4894  0.0518 -0.0206
 9157W        W25631   5.551   3.168   2.840  0.2073 -0.0077 -0.1317
 9158W        W25632   8.483  11.888  15.560  0.0929  0.1463 -0.0761
 9159W        W25633  16.083   3.983  14.100  0.0990  0.1065 -0.0063
 9160W        W25634   1.532   7.534   4.449 -0.2036 -0.0662 -0.0327
 9161W        W25635   5.300  15.147  14.386  0.1270 -0.2044 -0.0041
 9162W        W25636  10.348  10.824   1.792  0.3186 -0.0660 -0.0526
 9163W        W25637   0.664  10.425   3.612  0.2622  0.0622 -0.2276
 9164W        W25638  10.517  14.274   2.373  0.0969  0.2161 -0.2109
 9165W        W25639   0.579   6.188  14.904  0.1567 -0.2451  0.0528
 9166W        W25640  16.286   4.519   5.423 -0.0510 -0.1457 -0.2490
 9167W        W25641  14.941   6.994   3.055 -0.0891 -0.2321  0.3469
 9168W        W25642  16.228   2.347  11.255  0.1614  0.2518  0.2090
 9169W        W25643   4.214  10.886   0.666 -0.1033  0.0190  0.0055
 9170W        W25644  11.420   5.123  15.800  0.2952  0.0384 -0.3996
 9171W        W25645   6.832  15.408  15.569 -0.0240 -0.0894  0.1094
 9172W        W25646   4.176   3.611   3.684  0.0327  0.0550  0.0447
 9173W        W25647  16.048   3.867  14.951 -0.2578 -0.2180 -0.3622
 9174W        W25648   1.008   2.595   2.521 -0.2418  0.1907 -0.1084
 9175W        W25649   6.405   5.512  14.450 -0.4893 -0.1069  0.2653
 9176W        W25650  12.488   4.390   2.024  0.3990 -0.1296 -0.1504
 9177W        W25651   1.155  16.890   3.946  0.1023  0.2770 -0.0685
 9178W        W25652   0.641  12.404  15.100  0.0563  0.0133  0.2113
 9179W        W25653  13.468   1.424   4.036 -0.2165  0.4231  0.3293
 9180W        W25654   1.457   4.334  16.763 -0.0385 -0.2352 -0.1153
 9181W        W25655   0.224  15.743  11.576 -0.0459  0.0232  0.1842
 9182W        W25656   3.988  11.502  10.618  0.1712  0.1621  0.0445
 9183W        W25657  14.427   4.700  11.995 -0.2648 -0.0362 -0.0398
 9184W        W25658  12.842   8.033  15.042  0.3099 -0.2397  0.0155
 9185W        W25659  15.226   8.371   3.110  0.0198 -0.0583 -0.0144
 9186W        W25660   1.562   8.591  15.648 -0.1484 -0.1013 -0.0733
 9187W        W25661  12.601  13.984  12.096  0.1592  0.1664 -0.0636
 9188W        W25662  13.008   5.052  13.465 -0.0642 -0.2077 -0.3441
 9189W        W25663   8.626  16.608  14.995 -0.0458 -0.1468  0.0867
 9190W        W25664   7.037  13.726   3.872  0.0578 -0.4006  0.0692
 9191W        W25665   0.406  14.636  13.946 -0.3010 -0.1352  0.0028
 9192W        W25666   6.752   0.793  15.925 -0.1019  0.4333  0.0200
 9193W        W25667   4.650  17.253  12.689  0.4311  0.2568  0.0128
 9194W        W25668   4.973  10.460  13.050 -0.0557  0.1007  0.0116
 9195W        W25669   8.636  14.214   1.293 -0.1399 -0.2257  0.1947
 9196W        W25670   9.954   1.765   5.010 -0.0429  0.1233  0.1633
 9197W        W25671  16.598   1.851  14.502 -0.1086  0.1041 -0.0434
 9198W        W25672  17.770   5.562   3.115 -0.1428  0.1967  0.0167
 9199W        W25673   2.674  14.283   0.638 -0.0681  0.1694 -0.2577
 9200W        W25674   0.922   8.585   2.785  0.2775 -0.0264 -0.5118
 9201W        W25675   6.274  10.055   1.888  0.0079  0.1782 -0.0972
 9202W        W25676  11.373  11.734  14.850 -0.2519  0.2304  0.0331
 9203W        W25677   9.643  12.781   0.343  0.1203  0.0180  0.1816
 9204W        W25678   9.795   7.601  11.967 -0.0259  0.2495 -0.0023
 9205W        W25679   1.010  15.349   0.590 -0.2704  0.0660  0.0733
 9206W        W25680  17.323   9.587  16.499 -0.1002  0.1960  0.2530
 9207W        W25681  11.296   9.523   5.089 -0.0871  0.0652 -0.3072
 9208W        W25682   7.194  15.770   2.933 -0.4590  0.4669  0.2842
 9209W        W25683   2.067   5.059   4.598 -0.2110 -0.0749  0.0182
 9210W        W25684  15.405  11.234  12.670 -0.2167 -0.0701 -0.1979
 9211W        W25685   2.495   2.224  11.337 -0.1945 -0.1144 -0.0490
 9212W        W25686   9.089   3.233   1.614 -0.0346 -0.0145  0.1423
 9213W        W25687  15.883  11.951  14.141  0.0272  0.3114  0.2243
 9214W        W25688   2.081   9.616  11.372 -0.1091 -0.1656 -0.0771
 9215W        W25689  12.978  15.880  16.412  0.1121  0.0014  0.0557
 9216W        W25690   5.687  12.645  14.901 -0.0421  0.2789 -0.1291
 9217W        W25691  15.543  16.098  12.668 -0.2413 -0.0751  0.0565
 9218W        W25692  16.980   6.221   2.109  0.0388  0.3516  0.0951
 9219W        W25693  17.660   8.851  13.076 -0.0290  0.0479  0.0287
 9220W        W25694   0.697  13.658  13.937  0.2746  0.0695 -0.1221
 9221W        W25695  14.484  12.704  12.580  0.1270  0.0080 -0.2648
 9222W        W25696   3.910  12.298   1.875 -0.0415  0.4099 -0.1671
 9223W        W25697   8.374  10.307  16.488 -0.0106  0.0676  0.3234
 9224W        W25698  10.933   6.944   0.728  0.1777  0.3026 -0.1735
 9225W        W25699  12.799  16.316  15.206  0.3508  0.1625 -0.0488
 9226W        W25700   6.641   8.566  13.802 -0.2284 -0.2897  0.2443
 9227W        W25701   1.454  12.779  15.009  0.2910 -0.0351 -0.3467
 9228W        W25702   2.265   9.772   5.951  0.1432 -0.1368  0.2421
 9229W        W25703   6.845   7.584   2.112  0.4773 -0.0735 -0.0918
 9230W        W25704   9.545   7.344  12.351  0.1479 -0.0058 -0.0119
 9231W        W25705  10.990  15.277  15.926  0.0269  0.1328 -0.1722
 9232W        W25706  12.044  13.349   3.369 -0.0622 -0.1337 -0.0747
 9233W        W25707  10.863   4.847   3.916  0.1463  0.1625 -0.1915
 9234W        W25708  10.503  17.586  12.811 -0.0582  0.0394  0.0802
 9235W        W25709  17.543  12.938   1.376 -0.1917 -0.0204 -0.0535
 9236W        W25710   9.008   1.619  12.157  0.0951  0.2254 -0.0785
 9237W        W25711  11.132  10.054   2.512  0.2211  0.2501  0.1677
 9238W        W25712  15.848  11.341  12.503  0.0293 -0.0900 -0.3492
 9239W        W25713   0.710   7.237  16.567  0.1271 -0.0460  0.0680
 9240W        W25714   9.455  15.752  12.719  0.0026  0.1806  0.3631
 9241W        W25715  16.036   1.122   1.007  0.1224  0.3254  0.1240
 9242W        W25716  16.273   4.207  12.190  0.1393  0.2860 -0.2408
 9243W        W25717  13.006  17.135  14.577  0.0649 -0.3226  0.3508
 9244W        W25718   5.436  13.169   4.634 -0.3439  0.3976  0.1605
 9245W        W25719  17.625  14.342  12.949 -0.1322 -0.0136 -0.3691
 9246W        W25720   7.691   1.602  11.367 -0.3767 -0.0500 -0.1135
 9247W        W25721  12.786   6.084   4.184 -0.2165  0.0125  0.1635
 9248W        W25722   1.467   9.024  15.989  0.0166  0.0018 -0.0312
 9249W        W25723   9.809   1.457  12.213 -0.1706  0.1814 -0.2155
 9250W        W25724   8.490   3.765  13.163 -0.0932  0.3342 -0.1466
 9251W        W25725   9.402  11.809   0.495  0.0368  0.0549  0.1702
 9252W        W25726   8.183   5.078  11.872 -0.4470  0.1335 -0.0271
 9253W        W25727   1.316  14.050   3.457 -0.2045  0.1393  0.0394
 9254W        W25728   8.138   5.984  15.852 -0.0630  0.1656  0.2768
 9255W        W25729   0.818  10.264  14.003 -0.0106 -0.0101 -0.4500
 9256W        W25730  14.175  15.564  12.819  0.0726  0.2726 -0.1408
 9257W        W25731   5.535   8.648   1.594 -0.1449  0.1237  0.2503
 9258W        W25732   9.810   9.427  16.094 -0.0598 -0.0487  0.1231
 9259W        W25733   0.641   4.626   1.443  0.1286 -0.2660  0.3404
 9260W        W25734  14.452   4.843  13.328  0.2273 -0.2508 -0.1418
 9261W        W25735  14.174   5.472   5.733 -0.0475 -0.0325 -0.2310
 9262W        W25736  15.620   3.604   4.065 -0.3013 -0.0081  0.0609
 9263W        W25737  17.155  14.302  12.061  0.3537 -0.0782  0.2405
 9264W        W25738  11.908   1.616  15.107 -0.2809 -0.0032 -0.1795
 9265W        W25739  14.190   6.079   3.815  0.0012  0.1888 -0.0238
 9266W        W25740   0.393  15.417  16.556 -0.0632 -0.1355 -0.1253
 9267W        W25741  17.474   9.018   4.821  0.0785 -0.0612  0.2646
 9268W        W25742   4.245  14.973  14.695 -0.0948  0.1047 -0.1466
 9269W        W25743  14.329  16.481  14.047  0.0005 -0.1521 -0.2385
 9270W        W25744   6.689   2.319  12.638 -0.0170 -0.0027 -0.1663
 9271W        W25745   9.153  16.375  11.621 -0.0889 -0.0350  0.0889
 9272W        W25746  11.823  17.859   1.315 -0.1094  0.0460 -0.0154
 9273W        W25747  10.782   4.822   6.033 -0.3234  0.1447  0.0266
 9274W        W25748  10.187   2.861  13.861 -0.1807  0.4029  0.1090
 9275W        W25749  14.904  13.663  11.806  0.0149  0.2323  0.1794
 9276W        W25750   7.044   1.196  12.951  0.0691  0.0432  0.2511
 9277W        W25751  14.937   1.804  15.108 -0.0252  0.1046 -0.0100
 9278W        W25752   7.601  14.547   0.302 -0.0171 -0.3866 -0.2555
 9279W        W25753   8.211  10.208  13.819  0.0924  0.0452 -0.1391
 9280W        W25754  14.257   4.624  15.307 -0.1826 -0.0407 -0.1416
 9281W        W25755   2.505   8.968   0.443  0.0895  0.0488 -0.1023
 9282W        W25756   5.429   0.145   4.271 -0.0562 -0.0249 -0.2804
 9283W        W25757   1.660  11.135  12.452  0.3927 -0.3492 -0.1163
 9284W        W25758  15.805   1.785  13.921 -0.1995 -0.2174  0.1161
 9285W        W25759  10.411  17.548  14.202 -0.3276 -0.0723  0.1445
 9286W        W25760   3.896  11.558   1.274 -0.1975  0.1654  0.3782
 9287W        W25761  16.438   5.825   4.848 -0.0372  0.0976  0.1867
 9288W        W25762   9.618   7.075   2.049 -0.1449 -0.1326 -0.1150
 9289W        W25763   2.009  13.987   2.175 -0.1462  0.1098 -0.0859
 9290W        W25764  17.791   3.205   5.519 -0.0465  0.0443 -0.0797
 9291W        W25765  12.512   5.205  11.498 -0.0968 -0.1503  0.0031
 9292W        W25766   4.282   0.240  14.850 -0.1446  0.1130  0.6656
 9293W        W25767  16.029  13.588  13.206  0.2157  0.2329 -0.0671
 9294W        W25768  16.483   4.440   4.453 -0.3221 -0.2472 -0.1144
 9295W        W25769  11.176   4.581  14.866 -0.1432 -0.0196 -0.0785
 9296W        W25770   7.816  10.204   5.695 -0.4065 -0.1255 -0.2423
 9297W        W25771   3.614   4.347   0.920  0.2518  0.0894 -0.4225
 9298W        W25772   6.840  11.635   5.325  0.0250 -0.1060  0.0170
 9299W        W25773  14.374  16.862  13.528  0.3279  0.1854  0.1481
 9300W        W25774  16.659   6.747  12.088 -0.1975  0.0379 -0.2024
 9301W        W25775   1.556  16.979   0.311 -0.2286  0.0266 -0.0163
 9302W        W25776   0.808   8.330  15.949  0.0229 -0.2850 -0.3572
 9303W        W25777  10.747   9.266   0.070  0.0536  0.0969 -0.0457
 9304W        W25778   6.111  13.661   4.276  0.2754 -0.1589 -0.1005
 9305W        W25779  14.613  14.959   2.649  0.0350  0.0035  0.1016
 9306W        W25780  16.167  10.136   4.740 -0.1161 -0.1486  0.0530
 9307W        W25781  15.700   8.571   4.150 -0.2709 -0.0861  0.0950
 9308W        W25782  15.578   7.450  15.930 -0.1744 -0.1520 -0.0090
 9309W        W25783  12.799   5.781   2.598  0.0809 -0.0728 -0.0115
 9310W        W25784   7.960   7.686   1.881 -0.1978  0.2510 -0.0273
 9311W        W25785   2.330   3.569   2.269 -0.0712  0.1097  0.1279
 9312W        W25786  15.161   3.098  16.246 -0.0658  0.0578  0.4955
 9313W        W25787   8.144   1.415  11.560 -0.0375 -0.1283 -0.0223
 9314W        W25788  14.895   3.014   4.593 -0.0376 -0.1469 -0.1236
 9315W        W25789  15.075   5.404   3.759 -0.3768 -0.0045 -0.1156
 9316W        W25790   3.398   6.781   5.341  0.0348 -0.0767  0.4186
 9317W        W25791  14.698   7.282  11.863  0.1347 -0.3158  0.1439
 9318W        W25792   6.681   7.299  16.059  0.0200 -0.0306  0.0164
 9319W        W25793   7.291  10.164  16.358 -0.3760 -0.3274  0.0450
 9320W        W25794  17.667  15.172   3.222  0.4823 -0.1502  0.1114
 9321W        W25795  17.438   9.949  15.680  0.1339  0.0653 -0.0358
 9322W        W25796   3.297   2.329  14.245  0.1396  0.2896 -0.1572
 9323W        W25797  13.221  15.132   2.670  0.2745 -0.1093 -0.1894
 9324W        W25798   8.670   0.937  16.269  0.2411  0.1982  0.0721
 9325W        W25799  13.521   8.404   1.963  0.1635  0.0660  0.1859
 9326W        W25800   4.997   9.669  12.518 -0.2153 -0.2675  0.0168
 9327W        W25801   1.109   2.229   1.965  0.0875  0.0349  0.0063
 9328W        W25802   1.793   4.231   5.173  0.3703 -0.0075 -0.1430
 9329W        W25803  10.536  13.902  16.290  0.3611  0.0561  0.2286
 9330W        W25804   7.103  16.346   5.532 -0.0273 -0.2358  0.0460
 9331W        W25805  12.733   0.433  14.699  0.0701 -0.1925 -0.0736
 9332W        W25806   6.699   7.077   2.476  0.1583  0.3390  0.2653
 9333W        W25807   0.575  14.197   3.846  0.0140  0.0121 -0.0165
 9334W        W25808   8.320   4.235   2.636  0.2500 -0.2926 -0.4201
 9335W        W25809  16.216   5.476  15.439 -0.0830  0.3222  0.0420
 9336W        W25810   4.783   5.244  14.386  0.0365 -0.0960 -0.1937
 9337W        W25811   0.326   9.412  13.735  0.1700 -0.1165  0.0107
 9338W        W25812   6.221   1.004   3.653  0.2577 -0.0545 -0.1855
 9339W        W25813   6.577  13.637  12.539  0.1511 -0.0866  0.0293
 9340W        W25814   6.017  12.686   5.602 -0.3961  0.0339 -0.1613
 9341W        W25815  17.544   0.981   5.841  0.0821  0.4185 -0.1276
 9342W        W25816   2.907   5.022  16.696 -0.1174  0.3509 -0.0055
 9343W        W25817   8.456  16.966   3.510 -0.1457  0.1516 -0.1195
 9344W        W25818   4.383   2.583  14.414 -0.1404  0.3227 -0.1942
 9345W        W25819  13.472   7.420  14.845 -0.2054 -0.4117  0.0572
 9346W        W25820  15.735   4.655  13.158 -0.0657  0.0487 -0.2359
 9347W        W25821  15.241   5.242   2.278  0.1586  0.1288 -0.0998
 9348W        W25822   1.131   2.958   6.173  0.2593 -0.3138  0.0735
 9349W        W25823   1.125  12.813  14.071  0.0317 -0.1654  0.0203
 9350W        W25824  12.424   2.459   1.555  0.1442  0.1916  0.0941
 9351W        W25825   4.760   1.309   1.915 -0.0804 -0.2532  0.2029
 9352W        W25826   7.587   9.142   5.145 -0.4130 -0.1435 -0.1057
 9353W        W25827  11.280   0.672  11.848  0.0090 -0.0546 -0.3717
 9354W        W25828  12.032   7.379  12.904 -0.1332 -0.1990 -0.1178
 9355W        W25829  10.154   9.327  16.436  0.2518 -0.1080  0.0886
 9356W        W25830   2.364  10.124  12.296  0.0707  0.0714 -0.0084
 9357W        W25831  16.199  14.625  16.712  0.0334  0.0177 -0.0234
 9358W        W25832   1.076   4.877   3.814 -0.1389 -0.3421  0.0820
 9359W        W25833  10.824   3.527   2.908  0.1466 -0.1519  0.4235
 9360W        W25834   2.929   8.306   2.931  0.0380  0.4561 -0.1991
 9361W        W25835   4.845  15.172   4.606 -0.1640 -0.0380  0.0145
 9362W        W25836   3.435  10.503   4.063 -0.0987  0.0879 -0.2621
 9363W        W25837  17.995  13.936   4.700  0.3166  0.1758  0.0507
 9364W        W25838  15.593  15.869   5.094 -0.1027  0.0307  0.1790
 9365W        W25839   6.944  14.790  16.101  0.6262 -0.0211 -0.0517
 9366W        W25840   8.853   4.221   0.655 -0.0107  0.0140 -0.1736
 9367W        W25841   1.306  13.395   2.056 -0.1164  0.2706  0.1910
 9368W        W25842   5.034  17.022  15.464  0.2309  0.2086  0.0642
 9369W        W25843  15.466  13.846   2.144 -0.0193  0.2534 -0.0889
 9370W        W25844   9.800  16.299   4.774 -0.0042 -0.1380  0.0299
 9371W        W25845   9.866  12.951   1.897 -0.0628  0.0040  0.0575
 9372W        W25846   8.192  10.021   0.100 -0.2770  0.0080  0.5143
 9373W        W25847  14.325   2.477  11.168  0.2497  0.1066 -0.2194
 9374W        W25848  12.879  17.453   5.398  0.0402  0.1856 -0.1084
 9375W        W25849   5.993  13.429  11.720  0.3183 -0.1519 -0.2004
 9376W        W25850  14.275  17.930  13.047  0.0041  0.1618  0.1241
 9377W        W25851   8.052   9.443   4.448 -0.0617  0.2254  0.2177
 9378W        W25852  16.871  12.880   1.042 -0.0667 -0.1041 -0.0126
 9379W        W25853  13.732  13.040  15.402  0.3894 -0.0626 -0.1341
 9380W        W25854   5.996  14.254   1.587 -0.2137 -0.0927 -0.1934
 9381W        W25855  14.901  13.423  15.349 -0.0793  0.1344 -0.2614
 9382W        W25856   1.316  11.124   1.214 -0.1931  0.1154  0.0498
 9383W        W25857  11.783   6.211   1.641 -0.3180  0.1976  0.1249
 9384W        W25858  14.356  17.638   5.144  0.2289  0.0811 -0.1215
 9385W        W25859   9.926  11.444   3.000  0.1691 -0.0034 -0.0900
 9386W        W25860  16.924  17.177  12.217  0.1252 -0.0473 -0.1355
 9387W        W25861  16.860  15.222  13.435  0.0947  0.0247  0.2888
 9388W        W25862   2.653   6.483   2.709  0.0075 -0.1927  0.0652
 9389W        W25863   8.433   0.128  15.136  0.1258  0.1822 -0.1803
 9390W        W25864   6.548  17.996  15.720 -0.2160 -0.2455  0.0518
 9391W        W25865  11.693   0.842  13.618 -0.1308 -0.0739  0.1696
 9392W        W25866  15.479  12.064   3.297 -0.2278 -0.2628  0.0803
 9393W        W25867   2.663   6.114   3.959  0.0143 -0.0971  0.2213
 9394W        W25868  13.371  10.470  12.345 -0.2332 -0.1613 -0.2580
 9395W        W25869  11.316  11.782   4.433 -0.1831  0.3426  0.2935
 9396W        W25870  15.355   5.371   2.823  0.1239  0.0206  0.0203
 9397W        W25871  10.054  17.012   6.205 -0.1770 -0.0761  0.2409
 9398W        W25872  10.319   6.149  15.718  0.1812 -0.1131 -0.0165
 9399W        W25873  15.539   5.620   1.886 -0.1522 -0.1343  0.2299
 9400W        W25874   4.772   7.564  15.129  0.0164  0.1472 -0.1546
 9401W        W25875   5.383  13.914   4.594  0.1569  0.0052 -0.0400
 9402W        W25876   0.333   6.237   1.532  0.0547  0.3480 -0.0877
 9403W        W25877  12.267  10.167  12.869 -0.2324  0.0244 -0.2772
 9404W        W25878   0.584  17.466   1.144 -0.0099 -0.0122 -0.1806
 9405W        W25879   9.619  15.884   0.099  0.1169  0.0444  0.0261
 9406W        W25880  11.102  16.489   0.750  0.2180 -0.3924 -0.1771
 9407W        W25881   9.734   8.537   1.273  0.0712 -0.1199 -0.2738
 9408W        W25882   2.027   1.362  15.597  0.1207  0.1262  0.0082
 9409W        W25883  14.616   5.815   1.582  0.0154 -0.0184  0.3634
 9410W        W25884   4.035  12.551  14.355 -0.2090 -0.0376 -0.0157
 9411W        W25885   3.548   3.159   1.222  0.2020  0.0688 -0.2150
 9412W        W25886  10.370   0.999   0.718  0.0508  0.0436  0.1304
 9413W        W25887   7.302  12.513  12.696 -0.3264 -0.0833  0.1861
 9414W        W25888   0.069  15.797  16.747  0.2678  0.1467 -0.0022
 9415W        W25889   5.592   5.570  13.803 -0.2274  0.2060 -0.3537
 9416W        W25890  12.666   3.086   4.247  0.1653  0.4383 -0.0398
 9417W        W25891  11.754  13.778   0.908  0.1125  0.1299  0.1162
 9418W        W25892   1.734  15.622   0.448  0.2410 -0.0692 -0.0709
 9419W        W25893   7.965   3.018  13.946  0.1897 -0.1210  0.1166
 9420W        W25894  17.908  11.337   4.132  0.2330 -0.2044 -0.3044
 9421W        W25895   4.974  14.925   0.437  0.0679  0.0863 -0.0696
 9422W        W25896   8.261   2.892  13.463  0.0147  0.0646  0.0225
 9423W        W25897  16.261  14.065   1.585 -0.1714  0.2845 -0.0430
 9424W        W25898  11.609  13.390   1.533  0.2940  0.0416 -0.0615
 9425W        W25899  17.191   2.255   4.582 -0.1851 -0.4596 -0.5319
 9426W        W25900  12.290   0.223  14.505 -0.1053 -0.1439  0.2322
 9427W        W25901   4.796   0.349  16.167  0.0644 -0.2280 -0.1894
 9428W        W25902  13.562   0.948   1.702 -0.1059 -0.1006 -0.2655
 9429W        W25903  14.967  14.546  16.323  0.1179  0.1133  0.0704
 9430W        W25904  15.232  15.754   4.747 -0.1732 -0.0880 -0.3315
 9431W        W25905  14.095  11.907  16.768  0.0132  0.2343 -0.0340
 9432W        W25906   9.028   5.065  14.327 -0.0618  0.1543 -0.0285
 9433W        W25907  15.873  15.856   2.059  0.0263  0.2720  0.1505
 9434W        W25908   3.374   8.424  15.696  0.0837 -0.3163 -0.2030
 9435W        W25909   9.415  14.351  14.639  0.3191  0.1588 -0.1067
 9436W        W25910  11.283  12.262  12.622 -0.0918  0.0511  0.0528
 9437W        W25911   1.816  10.301   1.399 -0.1111 -0.0716 -0.0260
 9438W        W25912   6.190  13.762  11.401  0.0665 -0.1725 -0.1918
 9439W        W25913  13.495   7.678  11.724  0.0497  0.0719 -0.0619
 9440W        W25914  17.397   8.344  13.548  0.1586  0.0092 -0.0175
 9441W        W25915   1.874   6.416   3.750 -0.0072 -0.2325 -0.5729
 9442W        W25916   0.496  16.300  12.282 -0.1915  0.1677 -0.0026
 9443W        W25917  12.495   0.550   1.719 -0.2775 -0.0856  0.0209
 9444W        W25918  16.601   6.481  13.051 -0.0131  0.2432  0.1561
 9445W        W25919  10.440  12.545  11.447 -0.2439 -0.2500  0.1409
 9446W        W25920   9.387  13.501  16.629 -0.4797 -0.3462  0.1656
 9447W        W25921   4.878  12.783  13.912  0.1654  0.2022 -0.1249
 9448W        W25922  14.647   3.240   1.408 -0.3662 -0.0175  0.0125
 9449W        W25923   6.990  16.086  12.059 -0.0749  0.3119 -0.0317
 9450W        W25924  11.723   1.621   2.560  0.1762 -0.1337 -0.1186
 9451W        W25925   0.275  13.721  12.528  0.0508 -0.1047 -0.3293
 9452W        W25926  15.386  16.078  15.436  0.3569 -0.1055 -0.0681
 9453W        W25927  15.223  13.485   3.172 -0.0144 -0.2016  0.2214
 9454W        W25928   7.874   4.326  12.334  0.2138  0.0857 -0.1119
 9455W        W25929   9.709   5.187   3.067  0.3309  0.2141 -0.3006
 9456W        W25930  15.312  17.113   4.318  0.2996 -0.2490  0.2104
 9457W        W25931  13.200   4.839  16.746 -0.3678  0.0849 -0.1181
 9458W        W25932  17.045  14.196   4.143 -0.1043 -0.0721  0.0409
 9459W        W25933   1.798  12.463  15.212  0.1698  0.2332 -0.1612
 9460W        W25934   9.297   2.928  13.624  0.0379 -0.1804 -0.0026
 9461W        W25935   4.596  14.888   5.428  0.4755 -0.0223 -0.1230
 9462W        W25936   2.615   6.775   5.872  0.1294 -0.0792  0.0173
 9463W        W25937  11.720   5.082  11.883 -0.1465 -0.0804  0.1109
 9464W        W25938  12.582   3.324   5.892 -0.2585  0.0942 -0.1405
 9465W        W25939   9.415   6.831   5.575 -0.0043 -0.2746 -0.0565
 9466W        W25940   2.332   8.861  12.502  0.1227  0.1287 -0.0603
 9467W        W25941   3.464   3.182   0.679  0.2119 -0.1310  0.0031
 9468W        W25942  10.145   9.954   2.255  0.0610  0.1232  0.0533
 9469W        W25943  10.506  12.438  14.761  0.1014  0.2285  0.1681
 9470W        W25944  17.485  15.987   4.237 -0.0587  0.0077 -0.2955
 9471W        W25945   7.584   8.094   5.935  0.1038  0.2304  0.1431
 9472W        W25946  16.139  10.231  16.448  0.0633 -0.2185 -0.2854
 9473W        W25947  13.397   5.119  15.123 -0.1069  0.1283 -0.0250
 9474W        W25948   2.106   1.118   1.115  0.0611 -0.1513 -0.0840
 9475W        W25949  12.346   2.577  13.184  0.2560 -0.1271  0.1597
 9476W        W25950   7.951  16.303   4.497 -0.1505  0.0277 -0.0388
 9477W        W25951   5.395   0.729   0.514 -0.0582 -0.1459  0.1086
 9478W        W25952   3.423   6.493  13.875 -0.3058  0.1375 -0.0391
 9479W        W25953   5.002   9.496   2.334 -0.0555  0.0998 -0.2724
 9480W        W25954  13.486  17.271  16.217  0.0874 -0.1272  0.1696
 9481W        W25955  10.029   2.214   3.748 -0.0271 -0.1359 -0.2928
 9482W        W25956  10.120   7.913  15.353 -0.1586 -0.1193  0.0969
 9483W        W25957  11.585  16.033  13.642 -0.1447 -0.4310  0.1085
 9484W        W25958   9.242   0.012   1.544  0.0344  0.1911  0.1436
 9485W        W25959  17.913   8.808  15.217  0.1958  0.0389 -0.3614
 9486W        W25960  12.247   2.931   2.282  0.1814  0.0539 -0.1854
 9487W        W25961  15.994  12.518  11.516 -0.1660 -0.1553 -0.2068
 9488W        W25962   1.716   3.985   4.738 -0.1094 -0.2185  0.0091
 9489W        W25963   1.177   5.884   3.646  0.0939  0.2282 -0.0748
 9490W        W25964   0.545  15.466  14.113 -0.0906  0.1549 -0.0871
 9491W        W25965   9.676   3.978  16.010 -0.3861  0.1333 -0.0398
 9492W        W25966  17.325   4.197   4.055  0.3267 -0.0174 -0.3609
 9493W        W25967   8.683   3.171   5.366 -0.0011 -0.1065 -0.1661
 9494W        W25968  16.611   4.804   4.054 -0.2721 -0.1721 -0.2101
 9495W        W25969   8.513   7.902  13.025 -0.1391 -0.1697 -0.0026
 9496W        W25970  14.917  15.935   4.389  0.0824  0.1707  0.2748
 9497W        W25971   7.689   1.696   2.799 -0.2861  0.0708 -0.0048
 9498W        W25972  16.286  12.703   0.417 -0.1040 -0.0178 -0.0482
 9499W        W25973  12.812  13.464   2.426  0.1854 -0.1765 -0.2361
 9500W        W25974   7.035  12.009   1.957  0.0855 -0.1854  0.0211
 9501W        W25975  14.818   1.813  14.605  0.0227  0.1585 -0.0692
 9502W        W25976   2.997  10.437   3.171  0.1591  0.1317 -0.1053
 9503W        W25977   1.377   2.181   3.336  0.1062  0.0564 -0.1755
 9504W        W25978  16.912   5.916  12.946  0.0061 -0.0553  0.1353
 9505W        W25979  15.853  15.994  15.613  0.1479 -0.0278  0.1541
 9506W        W25980   2.051   2.681   3.277  0.1880  0.2148 -0.0417
 9507W        W25981   0.327  10.507   3.210 -0.1430 -0.0944 -0.2928
 9508W        W25982   1.722   9.742   4.972 -0.1150 -0.0696 -0.0032
 9509W        W25983  16.435   3.567   1.734 -0.2164  0.1592 -0.0804
 9510W        W25984   4.471  16.683  13.310  0.1371  0.0693 -0.2202
 9511W        W25985   6.475  17.585  14.041 -0.0639  0.0224  0.1545
 9512W        W25986   2.034   7.713  15.338 -0.2309  0.0728 -0.3646
 9513W        W25987  11.636  12.198  13.027 -0.0236  0.0646 -0.0120
 9514W        W25988   3.862  10.861  13.458 -0.0172 -0.1625 -0.0770
 9515W        W25989  14.331   3.464  15.190 -0.0979 -0.3929  0.3477
 9516W        W25990   6.134   3.360   4.804 -0.0625 -0.1826 -0.0099
 9517W        W25991  10.680  13.669  15.129  0.3064 -0.1126  0.2869
 9518W        W25992   5.485   9.248   0.475 -0.0608  0.1725  0.3042
 9519W        W25993  14.459  13.720  15.690  0.2047 -0.1476 -0.1542
 9520W        W25994   3.891   9.626   2.428 -0.0223 -0.1742 -0.3220
 9521W        W25995   8.261  17.917  15.850 -0.0109  0.1853 -0.0324
 9522W        W25996  14.725  12.114  14.167 -0.0191 -0.0316  0.0600
 9523W        W25997  17.797   8.803  12.584 -0.1817  0.0885 -0.1848
 9524W        W25998   0.594  10.891   3.369  0.1875  0.2061  0.0422
 9525W        W25999   0.797   3.596   4.443 -0.3507 -0.5742  0.0724
 9526W        W26000  14.600  12.044   2.017 -0.2305  0.3191  0.0827
 9527W        W26001   4.436  13.827   4.428  0.0954  0.1164 -0.1473
 9528W        W26002   8.550   2.739   0.894  0.1250 -0.1137 -0.0322
 9529W        W26003  16.537   2.693   2.122  0.1837 -0.4177  0.4662
 9530W        W26004   7.653  13.351  13.604 -0.3712 -0.2240 -0.0222
 9531W        W26005  14.947   0.086   3.468 -0.1416  0.0633 -0.3156
 9532W        W26006  17.403  16.841   1.018 -0.0768  0.1871  0.0021
 9533W        W26007   7.549   1.839   2.161 -0.2103  0.1021 -0.0849
 9534W        W26008  11.220   4.207  14.109  0.0970  0.0202  0.0212
 9535W        W26009   5.245  16.170   5.488 -0.0312 -0.2258  0.0726
 9536W        W26010   5.419   7.804   1.723 -0.0586 -0.0197 -0.2196
 9537W        W26011   5.716  11.601   0.696  0.2291  0.0121  0.0757
 9538W        W26012   1.474   6.047   0.159  0.0998  0.0301 -0.1890
 9539W        W26013   4.869   9.048  12.554 -0.0633  0.1147 -0.2516
 9540W        W26014  13.541  17.232  13.766 -0.0949  0.2987  0.0964
 9541W        W26015   0.726  12.597   0.393 -0.0848 -0.0233  0.0709
 9542W        W26016  14.794  17.085  13.238 -0.1436 -0.0195 -0.0489
 9543W        W26017  12.083  15.480   1.241 -0.1426 -0.1456  0.0706
 9544W        W26018   6.290   1.315   3.262 -0.2124  0.2065 -0.0131
 9545W        W26019   3.460   4.208  16.743 -0.1202 -0.1893 -0.1172
 9546W        W26020  16.813   4.309  12.031  0.0245  0.2578  0.1380
 9547W        W26021  11.470  10.268  13.231  0.4553 -0.0905  0.1212
 9548W        W26022  16.742  16.944  15.714 -0.1127 -0.1921 -0.0381
 9549W        W26023   3.659  11.907   0.358 -0.0248  0.2310 -0.0932
 9550W        W26024  10.509   5.254  13.799 -0.2366  0.1931  0.0761
 9551W        W26025   6.653   5.332  15.584  0.0051 -0.2137 -0.0167
 9552W        W26026   3.486   0.606  13.978  0.1340 -0.3019 -0.0445
 9553W        W26027   7.925  14.917  13.412 -0.3312 -0.0621 -0.1382
 9554W        W26028  10.793  12.104  12.914 -0.3231 -0.0736 -0.0124
 9555W        W26029  11.516   9.084   5.602  0.0615  0.0740  0.3162
 9556W        W26030  16.481  15.750   1.829 -0.1194 -0.0386  0.1915
 9557W        W26031  13.025   4.663   4.701 -0.0265  0.1450  0.4278
 9558W        W26032   7.095   2.691   3.700 -0.3940 -0.1293  0.0795
 9559W        W26033  17.977  17.776   4.037  0.0083 -0.1584  0.2751
 9560W        W26034   5.516   4.149   4.869 -0.1928 -0.0706 -0.1809
 9561W        W26035  11.613   9.626   1.067  0.0415 -0.0329 -0.3916
 9562W        W26036  12.561   5.486  14.769 -0.3488 -0.2173 -0.1314
 9563W        W26037   9.788  10.555   0.236 -0.2380  0.3311 -0.3806
 9564W        W26038  17.734  10.957  11.146 -0.0002  0.0623  0.1972
 9565W        W26039   9.522  16.621   5.102 -0.1289  0.0207 -0.1101
 9566W        W26040   4.143  10.085  15.457  0.1052 -0.0405 -0.1495
 9567W        W26041  11.900   3.066  14.308  0.0796  0.1774  0.1578
 9568W        W26042  17.980   6.563  16.672 -0.1444  0.0019  0.2735
 9569W        W26043   8.332   9.629  13.585 -0.1692  0.1569  0.1195
 9570W        W26044   3.822  11.115   2.835 -0.0039  0.2331  0.0809
 9571W        W26045  12.589  12.396  13.511  0.0030  0.0580 -0.0635
 9572W        W26046  17.426  13.363  11.906 -0.1466 -0.3594 -0.0233
 9573W        W26047   9.674  11.938  15.874  0.2429  0.2201 -0.0773
 9574W        W26048   4.156   1.629   5.379  0.2115  0.0759  0.0896
 9575W        W26049  10.851  13.240   6.092 -0.2229 -0.0580  0.1736
 9576W        W26050  17.709  10.422   4.219 -0.0587  0.0575  0.3890
 9577W        W26051  14.170   6.159  11.088 -0.2138 -0.1374  0.0276
 9578W        W26052  14.194   2.365  14.551 -0.2323  0.2235 -0.2505
 9579W        W26053  13.523   9.760   2.110  0.2113  0.0134  0.0581
 9580W        W26054  11.201  16.317  13.799  0.0154  0.0498  0.1822
 9581W        W26055  15.708   8.990   3.840  0.0286  0.0195  0.0544
 9582W        W26056   8.469  16.635   5.542 -0.2777 -0.1401  0.1967
 9583W        W26057   2.935   8.197   1.679  0.1716  0.0717  0.0632
 9584W        W26058  16.869   5.603   5.114 -0.0022 -0.3039 -0.1593
 9585W        W26059   7.559  16.738   0.227 -0.3251 -0.0363  0.3356
 9586W        W26060   0.148   3.065  15.746  0.1380  0.0016  0.2431
 9587W        W26061   9.189   8.864   1.111  0.0213 -0.0030  0.0229
 9588W        W26062   4.175  12.050   4.864 -0.1280  0.1848 -0.0761
 9589W        W26063   9.808   3.202   2.288  0.1018  0.1746 -0.1998
 9590W        W26064   0.339   5.115  14.955  0.0877 -0.0322  0.0636
 9591W        W26065   4.008   7.056   4.366  0.0116  0.2316 -0.2531
 9592W        W26066   6.970   5.745  15.820 -0.0116  0.1713 -0.0768
 9593W        W26067   3.214   1.976  12.849 -0.2734  0.3344 -0.3975
 9594W        W26068   1.219  13.053  16.038  0.0299  0.0503 -0.2079
 9595W        W26069   9.500  17.331   0.975 -0.1204  0.3142  0.0339
 9596W        W26070   2.263  11.467  14.275 -0.0262 -0.2323  0.2208
 9597W        W26071   4.002  11.149   0.047  0.0898  0.0255 -0.0456
 9598W        W26072  11.373   3.879   1.847  0.0185  0.1917  0.1061
 9599W        W26073   8.114  16.398  16.269 -0.2954 -0.0905 -0.1669
 9600W        W26074   8.852   0.779  15.007 -0.1973 -0.0527  0.2012
 9601W        W26075   1.061  13.162  12.678 -0.1460 -0.0362 -0.1518
 9602W        W26076   3.880  10.169   2.776  0.1498 -0.0318 -0.1238
 9603W        W26077  15.884   1.022   1.692  0.0066 -0.1522 -0.1630
 9604W        W26078   7.638   3.594   3.474  0.1657 -0.1540 -0.2422
 9605W        W26079  12.011   3.048   5.529  0.1694  0.3365 -0.0172
 9606W        W26080  17.862  17.806   2.395 -0.0604 -0.0689  0.3729
 9607W        W26081   5.860   1.343  14.638 -0.0486  0.2372 -0.0629
 9608W        W26082   8.989   6.579  12.123  0.2277  0.0895 -0.1353
 9609W        W26083  13.906  17.240   2.282 -0.1712  0.1534  0.1057
 9610W        W26084   6.035   0.503  14.066 -0.3100 -0.1828  0.5878
 9611W        W26085  10.858   9.742   2.948 -0.0656  0.0756  0.0127
 9612W        W26086  15.062   4.806   1.966 -0.2571 -0.0224  0.0656
 9613W        W26087   2.384  14.726  14.888  0.2234  0.3214  0.0483
 9614W        W26088  12.339  14.288   4.232 -0.2089 -0.0257  0.1604
 9615W        W26089   5.101  10.063  11.602  0.2024 -0.0803  0.1402
 9616W        W26090   2.032  17.938   0.479 -0.2776 -0.0885  0.2340
 9617W        W26091   2.605  13.632  12.731 -0.1884 -0.1442  0.3199
 9618W        W26092  10.399   2.299   3.396 -0.0788 -0.0151  0.3114
 9619W        W26093   3.804  15.471   1.241  0.1692 -0.0190  0.0469
 9620W        W26094  14.221   4.604  15.829 -0.1100  0.1189 -0.0905
 9621W        W26095   2.952   8.083   4.193 -0.0586 -0.0669  0.1365
 9622W        W26096   5.245   2.486   4.944  0.2980 -0.0434  0.1522
 9623W        W26097  15.608   1.822   3.089 -0.0010 -0.0878  0.0940
 9624W        W26098   3.564   1.051   5.551 -0.1137 -0.1144 -0.2792
 9625W        W26099  13.532   8.383   5.451 -0.0195  0.2920 -0.1735
 9626W        W26100   1.604   4.475   5.675 -0.1823  0.1631  0.3453
 9627W        W26101  14.847  12.295  16.623 -0.0932  0.1320 -0.1974
 9628W        W26102  10.206  15.318  16.386 -0.1984 -0.0874 -0.1728
 9629W        W26103   2.444   1.729   5.667  0.2073  0.0748  0.0729
 9630W        W26104  17.125   9.139  12.299  0.2659  0.0816 -0.0592
 9631W        W26105  17.785   0.505  14.511 -0.0562  0.1973  0.2911
 9632W        W26106  16.540  13.573  14.807  0.1487  0.2172  0.1233
 9633W        W26107   8.392  16.399  14.597  0.1112 -0.2062  0.0754
 9634W        W26108   0.105   2.908  14.803 -0.2888  0.2120 -0.2595
 9635W        W26109  13.145   3.450  10.687  0.1075 -0.1276 -0.5406
 9636W        W26110  17.740  12.459  10.991  0.1701 -0.0631 -0.3058
 9637W        W26111  17.861   6.423  14.478  0.0551 -0.2660  0.2008
 9638W        W26112   9.504   2.759  15.754  0.1100 -0.3131 -0.3224
 9639W        W26113   9.753   1.887  16.580 -0.2129  0.1001 -0.2514
 9640W        W26114  14.405   6.073  14.613 -0.2273  0.0921 -0.2485
 9641W        W26115   8.661  11.625   5.360  0.2788 -0.0587 -0.0334
 9642W        W26116  12.370  15.687   2.043  0.1508 -0.2766  0.0242
 9643W        W26117   8.492   1.911  14.090 -0.1066 -0.0855 -0.0725
 9644W        W26118   7.542   9.372  15.140  0.2365 -0.0356 -0.2910
 9645W        W26119   6.597  14.021   3.770 -0.4128  0.3554  0.0726
 9646W        W26120  14.149   3.197  13.703  0.0857 -0.0404  0.0328
 9647W        W26121   2.515  11.474   0.104  0.1365  0.0770 -0.0334
 9648W        W26122   5.481   4.516  15.410  0.1747 -0.1635 -0.1405
 9649W        W26123  15.093   3.574   4.035  0.2761 -0.1957  0.3029
 9650W        W26124  14.313   2.041   3.200 -0.1223  0.2179 -0.1378
 9651W        W26125  14.935   1.864   1.720 -0.1323 -0.0149 -0.1036
 9652W        W26126   9.887   1.259   3.939  0.1395  0.0296  0.2907
 9653W        W26127  12.226  10.064   5.219 -0.0928  0.0052 -0.0840
 9654W        W26128   8.649   6.658  16.125  0.1830  0.0972  0.0265
 9655W        W26129  14.369   7.653  12.890  0.0103 -0.1317 -0.2882
 9656W        W26130   8.426  13.749   3.463 -0.0268  0.0359  0.0024
 9657W        W26131  10.201   9.940   0.356 -0.1202 -0.0707 -0.2458
 9658W        W26132  15.762  17.037  13.391  0.1593  0.0281 -0.1964
 9659W        W26133   1.601   5.188  14.789  0.1820  0.0207  0.1327
 9660W        W26134  15.940   4.025   2.885  0.0209 -0.1614 -0.3073
 9661W        W26135   7.226   3.425  14.283 -0.2935 -0.0870  0.0792
 9662W        W26136  12.255  12.521   6.307 -0.1236 -0.0063 -0.1293
 9663W        W26137  16.741  17.396  14.007  0.2908 -0.0483 -0.0659
 9664W        W26138   9.065  10.113   5.084 -0.1256  0.0629 -0.1212
 9665W        W26139   6.201  13.652  15.849 -0.1921  0.1637  0.0422
 9666W        W26140   8.532   5.459   5.597  0.3067 -0.0420  0.1708
 9667W        W26141  14.018   5.698   2.684 -0.1335 -0.0255  0.3941
 9668W        W26142   0.161   3.360  16.769  0.3721 -0.0348 -0.0300
 9669W        W26143  17.426   1.741  16.677  0.1026  0.3678  0.0731
 9670W        W26144   5.460   1.580  14.788 -0.1437 -0.0884  0.0004
 9671W        W26145  11.618   9.191  15.452 -0.1323 -0.0295  0.0662
 9672W        W26146   1.275   6.542  16.107  0.1969  0.0006  0.2996
 9673W        W26147   7.227   4.220   1.002  0.2024  0.2052  0.1056
 9674W        W26148   9.237  11.548  12.398 -0.1779  0.0455  0.2604
 9675W        W26149  13.332  11.035  13.046  0.1136 -0.2097  0.0525
 9676W        W26150   1.773  14.662   3.017 -0.0309  0.0866 -0.0269
 9677W        W26151   0.652   8.861   3.270  0.1557  0.0765 -0.1204
 9678W        W26152  10.425  10.259   4.924  0.0900 -0.2556  0.1971
 9679W        W26153  16.333   1.013   1.471 -0.1008  0.0713  0.0017
 9680W        W26154  17.525   7.595   4.037 -0.1959  0.0360 -0.0837
 9681W        W26155   9.590  16.521   1.597  0.0164  0.3881 -0.0397
 9682W        W26156  17.741   7.854   0.643 -0.1516  0.0348  0.0299
 9683W        W26157  10.868  12.026  16.685 -0.0661 -0.1561  0.0742
 9684W        W26158  11.958  15.664  12.994 -0.3442 -0.2836 -0.1305
 9685W        W26159   8.471  16.054   5.502 -0.0465  0.1627 -0.0478
 9686W        W26160   1.614  14.405  13.133  0.0057 -0.4477  0.2841
 9687W        W26161   7.302   9.835   4.780 -0.2651 -0.4244  0.0724
 9688W        W26162   9.302   9.121   5.771  0.1682 -0.0049 -0.0717
 9689W        W26163   6.799  15.761   1.347  0.0723  0.2265 -0.0869
 9690W        W26164   6.134  15.067  13.887 -0.2886  0.2627  0.1662
 9691W        W26165   5.424   6.907  14.530  0.1771  0.3147 -0.2395
 9692W        W26166  16.161  11.838  13.743 -0.1053 -0.2549 -0.2879
 9693W        W26167   8.006  17.507  15.930 -0.2938 -0.1391  0.1006
 9694W        W26168  12.455   9.536  15.705  0.0297  0.1592  0.1961
 9695W        W26169  12.976   3.905   4.091 -0.0035 -0.2062  0.0015
 9696W        W26170  12.164   1.805   5.805 -0.0520  0.1562  0.0491
 9697W        W26171   7.213   5.740   4.280  0.1430 -0.2036 -0.1735
 9698W        W26172   1.352   6.450   1.608 -0.0525 -0.0521  0.1343
 9699W        W26173   2.617  17.204  12.241 -0.1437 -0.0354 -0.1301
 9700W        W26174   9.360   6.452  14.396  0.1360  0.1017  0.1154
 9701W        W26175  13.954  11.279   0.323 -0.0098  0.0413 -0.3438
 9702W        W26176   7.430   6.598  16.398 -0.0277 -0.1856 -0.0913
 9703W        W26177   5.937  11.915  16.146 -0.1476 -0.1861 -0.0391
 9704W        W26178   3.020   4.001   0.223  0.2714 -0.0600  0.1229
 9705W        W26179   8.002  15.397   2.452  0.1727  0.0123  0.0032
 9706W        W26180  12.638  12.693   3.835  0.1533 -0.0460  0.1893
 9707W        W26181  17.178  13.180   0.194  0.3262 -0.1403 -0.1475
 9708W        W26182   5.003   6.645  14.395  0.2032  0.0365  0.0468
 9709W        W26183   3.785  16.764   3.173  0.2421 -0.1536 -0.0451
 9710W        W26184  14.303   7.171  14.629 -0.0755  0.1398 -0.0429
 9711W        W26185   7.180  10.137   2.724  0.2091  0.0010 -0.3079
 9712W        W26186   4.499  13.214   5.349  0.3356 -0.0895  0.1605
 9713W        W26187  11.542   2.252   1.582 -0.1117  0.3481 -0.2996
 9714W        W26188   2.384   8.220  13.008  0.1788  0.2710 -0.0521
 9715W        W26189   8.317  12.580  13.363  0.0086 -0.0790  0.3440
 9716W        W26190   6.035   2.078   2.837 -0.0830  0.3928 -0.0063
 9717W        W26191  10.709   5.425   5.219  0.1748  0.0629 -0.0338
 9718W        W26192  10.290  15.688   3.579 -0.2776 -0.1718 -0.2315
 9719W        W26193  12.598  16.897  14.619 -0.0191  0.0829  0.2399
 9720W        W26194  11.433   9.276   3.084  0.1944 -0.0231  0.2595
 9721W        W26195  10.973  10.997   0.201 -0.0617 -0.0584 -0.1281
 9722W        W26196  17.775  15.549  13.063  0.1383 -0.2072  0.1516
 9723W        W26197   0.688  16.284   4.730 -0.0246  0.3389  0.1230
 9724W        W26198   2.048  10.545  11.728  0.0565 -0.1127  0.4628
 9725W        W26199   5.635  11.661  13.799 -0.1209 -0.0623  0.1738
 9726W        W26200   1.957  10.426   1.903  0.0329 -0.1086 -0.1499
 9727W        W26201   7.449   5.123  12.187 -0.2407  0.2580 -0.1147
 9728W        W26202   6.602   9.523   3.281 -0.1675  0.3336  0.2210
 9729W        W26203   6.231   7.048   4.699 -0.1348  0.2572 -0.1120
 9730W        W26204   1.297   8.291   0.948 -0.0142  0.1761  0.0330
 9731W        W26205   0.932   1.180   4.852 -0.0364 -0.0143  0.0039
 9732W        W26206   6.793   9.768  15.899  0.3761  0.3199  0.2709
 9733W        W26207   1.051   0.374  11.549 -0.3233 -0.0227  0.3072
 9734W        W26208   1.267  12.048   3.854  0.0864 -0.2234 -0.0370
 9735W        W26209   1.080   3.598   5.753  0.0306 -0.1415  0.3468
 9736W        W26210  15.422  10.904  12.264 -0.1018  0.3106 -0.1012
 9737W        W26211   6.922  13.491   1.675  0.1252 -0.2396  0.3252
 9738W        W26212  13.576   8.715   0.739 -0.1114  0.1884 -0.1464
 9739W        W26213  17.144  16.983   3.882  0.0737  0.4485 -0.0677
 9740W        W26214  10.516   8.773   0.085 -0.0803 -0.0925  0.0633
 9741W        W26215   1.303   4.053  13.629 -0.1434 -0.1912  0.1486
 9742W        W26216  16.453  14.084  16.016  0.2605  0.1169  0.2609
 9743W        W26217   5.265   7.262  11.642  0.2877 -0.4074  0.2608
 9744W        W26218   0.959   2.846   4.020 -0.2029 -0.1764  0.1960
 9745W        W26219   7.207  12.873   3.570  0.2310  0.0807 -0.0010
 9746W        W26220   6.560  16.512  15.381  0.5823 -0.0005  0.0526
 9747W        W26221   9.916  11.768   4.665  0.1520  0.1357 -0.2410
 9748W        W26222  13.403   7.520   4.906 -0.3368 -0.1098  0.2901
 9749W        W26223  12.421   6.364   2.319  0.2595  0.1125  0.0502
 9750W        W26224   8.572   5.266   5.085 -0.0439 -0.0269  0.0067
 9751W        W26225  10.827  12.166  11.377 -0.1014  0.0786  0.0964
 9752W        W26226   1.138  15.120   0.022 -0.0239 -0.2110  0.0423
 9753W        W26227   2.861   3.406   4.778 -0.0259 -0.2059 -0.0759
 9754W        W26228   0.751   6.679  14.794  0.2051 -0.3339 -0.2005
 9755W        W26229   6.914   8.199   3.823 -0.0696 -0.1183  0.0514
 9756W        W26230  11.253   0.258  16.288 -0.0870  0.1742 -0.2764
 9757W        W26231  11.587   5.370  13.020  0.0837 -0.2868  0.0426
 9758W        W26232  13.310   2.103  15.262 -0.1806 -0.0802 -0.1492
 9759W        W26233  16.624  13.399  16.760  0.1891  0.1072  0.2621
 9760W        W26234   5.143  13.338  14.670 -0.2417  0.0399 -0.2934
 9761W        W26235   2.137   8.188  14.338 -0.0142 -0.0092  0.1038
 9762W        W26236   4.099   1.178   3.253 -0.2138 -0.1247 -0.3791
 9763W        W26237  16.510   8.272  15.255 -0.1282  0.1704  0.0743
 9764W        W26238  17.776  11.356   1.649 -0.2129  0.0403 -0.2698
 9765W        W26239   9.417  15.035  16.266  0.1354 -0.1068  0.0067
 9766W        W26240   0.773  12.828   4.763  0.2139 -0.0736  0.0305
 9767W        W26241   6.314  10.110   3.772 -0.1247 -0.1041  0.1441
 9768W        W26242   0.350   2.248  12.214  0.0278 -0.0152  0.1312
 9769W        W26243  16.418  14.251   4.597  0.1412  0.1124 -0.3015
 9770W        W26244   8.146   9.779  15.609  0.1737  0.1282 -0.2168
 9771W        W26245   1.480   0.057  11.633 -0.0599 -0.0648  0.2567
 9772W        W26246   1.345   3.755   4.950 -0.3820  0.1587 -0.1239
 9773W        W26247   1.808   3.771  12.307 -0.4041 -0.0988  0.0624
 9774W        W26248   2.570  16.625  13.955 -0.0584  0.0938 -0.0318
 9775W        W26249   4.893   6.172  13.854 -0.1576  0.1809  0.0260
 9776W        W26250  14.256  12.628  13.069 -0.5701 -0.0796 -0.3133
 9777W        W26251   0.173   5.723   0.642  0.0569 -0.0323 -0.0886
 9778W        W26252  13.683  17.700  13.994  0.0302  0.3059  0.1158
 9779W        W26253   2.078   4.583   0.142  0.0819 -0.0403 -0.1074
 9780W        W26254   6.214  12.812  15.710  0.2049 -0.0240 -0.2411
 9781W        W26255   9.215  17.065  12.818  0.0083 -0.5643  0.0024
 9782W        W26256   8.067   4.386  13.733  0.0204  0.1287  0.0114
 9783W        W26257   2.843  17.027   4.229  0.2017  0.0642  0.0518
 9784W        W26258   3.111   0.129  12.011 -0.0995  0.0517  0.1414
 9785W        W26259   8.690   6.943  14.826  0.0995 -0.1443  0.0127
 9786W        W26260   3.503   4.699  13.865  0.0441  0.1089 -0.0766
 9787W        W26261  16.865  13.526   0.344 -0.1688  0.0937 -0.1700
 9788W        W26262  13.334  11.959  11.872 -0.1695 -0.4000 -0.0509
 9789W        W26263  15.030   7.172  12.401  0.2401  0.1513  0.1651
 9790W        W26264  10.730   6.752  14.763  0.2419 -0.1252  0.1159
 9791W        W26265  13.458  10.640   3.252 -0.1263 -0.1419  0.1205
 9792W        W26266   7.330  17.928  12.496  0.0496 -0.1797 -0.0533
 9793W        W26267   8.694   3.233  13.727  0.0866  0.2851 -0.2609
 9794W        W26268  11.648  10.059   1.855  0.0919  0.1824  0.0194
 9795W        W26269   7.794   5.851  16.164  0.0480  0.0378 -0.0531
 9796W        W26270   9.754  13.716   5.259  0.1574  0.0551  0.2803
 9797W        W26271  12.391  17.574   5.164  0.2596 -0.0066 -0.0194
 9798W        W26272  16.806  12.724   4.381 -0.2342  0.0531 -0.0708
 9799W        W26273   3.220   9.935   5.077  0.3101 -0.0034  0.1387
 9800W        W26274  14.924   2.613  14.024  0.1918  0.2166 -0.1542
 9801W        W26275  10.863  12.656   4.507 -0.0760 -0.0714  0.0910
 9802W        W26276   3.954  17.790   0.021  0.0593 -0.0120 -0.1101
 9803W        W26277  17.362   4.165   4.637 -0.0866  0.0793 -0.0875
 9804W        W26278   4.125   3.195   0.620 -0.4310  0.3342 -0.1112
 9805W        W26279   7.776   2.881   1.137  0.0819  0.0833 -0.0009
 9806W        W26280   7.229   6.490   0.650  0.3285  0.1438  0.0396
 9807W        W26281   8.148   7.614   1.349 -0.1931 -0.4721  0.4369
 9808W        W26282  12.132  15.092   5.588 -0.0160  0.0053 -0.0340
 9809W        W26283   6.425   4.029  12.084 -0.1361 -0.0607 -0.2151
 9810W        W26284  13.153   2.796   0.404  0.1631 -0.2071  0.4469
 9811W        W26285  14.793   6.755  16.186 -0.0393 -0.1746 -0.1581
 9812W        W26286  11.348   3.258   4.533 -0.1308  0.1167 -0.1047
 9813W        W26287   9.256   2.938   2.840 -0.2502 -0.3673  0.2151
 9814W        W26288  13.836  13.928  13.827 -0.1602  0.0432 -0.1612
 9815W        W26289  14.400  11.274   0.686  0.1315 -0.0797 -0.0698
 9816W        W26290   0.304  14.330   4.655 -0.1471  0.1639  0.0670
 9817W        W26291  10.587   4.075   4.875 -0.1590 -0.0595  0.1573
 9818W        W26292  10.172   3.454  12.579 -0.1785  0.3447 -0.0628
 9819W        W26293  15.398  14.548   3.346 -0.1162  0.0676  0.0987
 9820W        W26294   5.618  12.357  12.937  0.1133  0.0027  0.0008
 9821W        W26295   6.950  17.310  16.002 -0.0036  0.2264  0.2209
 9822W        W26296   3.767   4.617  15.551 -0.0114 -0.0742 -0.2128
 9823W        W26297  15.821   1.513  14.347  0.3082  0.2701  0.1666
 9824W        W26298   6.439  17.521   0.049 -0.1328  0.0106 -0.2065
 9825W        W26299  11.313  13.121  16.154  0.0115  0.1446 -0.0839
 9826W        W26300  15.820  12.997   2.087 -0.3109  0.0738 -0.2021
 9827W        W26301   9.083   4.768   5.529 -0.0922  0.0796 -0.0524
 9828W        W26302  12.064   7.424  13.904  0.2500 -0.0092  0.0583
 9829W        W26303   2.742  13.774   2.397  0.3869  0.1039 -0.0389
 9830W        W26304  13.338  16.003   1.693 -0.2516 -0.0810  0.0347
 9831W        W26305   2.487   1.344  15.381  0.0014 -0.2870  0.1704
 9832W        W26306  15.228  13.295  13.594 -0.1592 -0.0061  0.1801
 9833W        W26307  12.541  15.939  11.671  0.2442  0.1141 -0.0592
 9834W        W26308  11.767   4.907   1.388 -0.0089  0.4536  0.1270
 9835W        W26309  15.173  10.561   2.012 -0.2575 -0.2880  0.1124
 9836W        W26310   7.937  15.595  12.785 -0.0549  0.0292 -0.0608
 9837W        W26311   2.661   7.939   0.880  0.0175 -0.2846  0.1797
 9838W        W26312  11.297  10.554   4.868  0.0838  0.0902 -0.1860
 9839W        W26313  13.404  17.049  12.604 -0.1142  0.0088  0.1564
 9840W        W26314   3.860  13.712  11.791 -0.2518  0.1922 -0.0400
 9841W        W26315  14.218   7.712   2.142 -0.2215 -0.3581  0.1205
 9842W        W26316  15.079   7.905  12.825 -0.1923  0.0529  0.1524
 9843W        W26317  10.130  14.786  12.674 -0.0441 -0.2287 -0.0906
 9844W        W26318  15.333   0.932   6.307  0.1458  0.3057 -0.2091
 9845W        W26319  15.930  10.852  12.377 -0.1953  0.0491 -0.0210
 9846W        W26320   2.437  14.929   0.032 -0.3214  0.0075  0.2897
 9847W        W26321   8.816  11.567   2.311  0.4029 -0.0669  0.1563
 9848W        W26322  12.391   1.261   5.661 -0.1088  0.0725 -0.1088
 9849W        W26323   8.156   4.013   2.093  0.1009  0.1989  0.1328
 9850W        W26324   3.693   5.557  13.483 -0.1450  0.0340 -0.4412
 9851W        W26325  17.293  10.356  14.781 -0.2094  0.2744  0.1941
 9852W        W26326  14.130  17.213   2.765  0.0850  0.2405  0.1583
 9853W        W26327  14.332  16.265  12.179  0.0678  0.0129 -0.0057
 9854W        W26328  14.545  16.798   5.206  0.0074  0.2135  0.1724
 9855W        W26329   9.160   2.509  14.560 -0.2999 -0.0341 -0.2654
 9856W        W26330  12.351  15.288   5.158 -0.0504  0.2322  0.3791
 9857W        W26331  13.282  16.076  16.766 -0.1817  0.2764  0.1819
 9858W        W26332  10.325  12.168   1.441  0.1335 -0.0682 -0.2183
 9859W        W26333  11.014   1.369   4.358 -0.1403 -0.1608  0.3683
 9860W        W26334   5.141   7.977  12.012  0.3523 -0.2704  0.2553
 9861W        W26335  11.545  12.402  14.381 -0.0361  0.0294 -0.1631
 9862W        W26336  11.496   1.689  15.451  0.3114  0.2265 -0.2287
 9863W        W26337  10.936   8.122   5.358  0.0434 -0.1308 -0.0810
 9864W        W26338  16.465  15.222   2.667  0.1951 -0.4285 -0.2343
 9865W        W26339   7.909  16.361  14.603  0.1010 -0.1839  0.2013
 9866W        W26340  13.068   4.312  14.095 -0.1025 -0.2135 -0.1011
 9867W        W26341   4.252   1.154   5.281  0.0436  0.0236 -0.0410
 9868W        W26342   1.235   8.069   5.256  0.1428  0.0309 -0.2068
 9869W        W26343  11.470  15.711   2.212  0.1553 -0.0603 -0.0568
 9870W        W26344   2.859  17.048  14.260  0.0988  0.0364 -0.1661
 9871W        W26345   3.746   3.649  14.037 -0.0121 -0.1617 -0.1347
 9872W        W26346  15.202  11.319   2.412  0.0620 -0.0004 -0.1537
 9873W        W26347  15.753   3.750   2.390  0.0733 -0.1786 -0.1350
 9874W        W26348   5.975   3.170   1.723  0.0996  0.2759  0.0122
 9875W        W26349  10.714   0.510   4.023  0.1914 -0.0959 -0.1160
 9876W        W26350   4.283  10.046   1.362 -0.2064 -0.0488  0.0999
 9877W        W26351  16.232  11.426   2.739  0.0390  0.1336  0.1728
 9878W        W26352   8.834   2.479  16.247  0.2249 -0.2386 -0.0967
 9879W        W26353   3.415   7.284   4.094 -0.1608 -0.1499 -0.1302
 9880W        W26354  14.964  11.981   2.430 -0.2712 -0.2855 -0.0607
 9881W        W26355   2.920  12.259  11.930 -0.0535 -0.1569  0.2085
 9882W        W26356   9.900   1.718  13.671  0.2512 -0.1903  0.0620
 9883W        W26357  10.104  12.836   3.401 -0.1060  0.1940 -0.1528
 9884W        W26358  12.402  12.856   1.849 -0.3607  0.3206  0.1702
 9885W        W26359  11.057  15.357   4.286 -0.0128 -0.4968 -0.2819
 9886W        W26360  12.416   6.063  12.754 -0.0772  0.2240 -0.2130
 9887W        W26361  16.131   3.739  13.588  0.0391 -0.1465  0.1496
 9888W        W26362  14.687  14.492   0.635  0.0762 -0.1201  0.0759
 9889W        W26363   0.772  12.419   3.894 -0.3710  0.0842  0.1126
 9890W        W26364   5.321  15.275   0.657 -0.0406 -0.4557  0.2159
 9891W        W26365   1.926   4.103   3.758  0.3253 -0.2242  0.3332
 9892W        W26366  12.513  13.918   1.959  0.0076 -0.1841  0.0834
 9893W        W26367   9.756   4.674   6.068 -0.0742 -0.0223  0.2143
 9894W        W26368  14.928   7.758   1.919 -0.0462  0.0790  0.0789
 9895W        W26369   6.373   1.510   5.076  0.2024 -0.1914 -0.1716
 9896W        W26370  14.865   4.937  13.628  0.2141  0.0297  0.3734
 9897W        W26371  16.398   2.035  13.099 -0.0471 -0.2636 -0.1316
 9898W        W26372   4.540  15.035   0.687 -0.1177  0.1147  0.1965
 9899W        W26373  13.687   6.955   0.557  0.4210  0.1865 -0.0487
 9900W        W26374   4.010  17.920   4.494 -0.0306 -0.1067 -0.2495
 9901W        W26375   1.372  14.694   1.094 -0.0998  0.2637  0.0805
 9902W        W26376   1.276  13.763   1.176 -0.0144  0.2510  0.3249
 9903W        W26377   1.810  13.017   0.923 -0.0409 -0.3251  0.0179
 9904W        W26378  17.759   6.971  15.835 -0.0122  0.0708 -0.1163
 9905W        W26379   9.885   7.003   5.483 -0.0828  0.0723  0.5067
 9906W        W26380   3.758   4.529  16.236 -0.0188  0.4341  0.3367
 9907W        W26381  14.550   4.124  13.482 -0.1236  0.1141 -0.1613
 9908W        W26382   3.556   5.591   3.085 -0.0196 -0.0509 -0.0380
 9909W        W26383  13.295   6.369   3.762 -0.0054  0.2601  0.0023
 9910W        W26384  15.316  13.812  14.501  0.1331 -0.1161 -0.1433
 9911W        W26385  17.959  11.793  16.159 -0.0855 -0.1450 -0.0828
 9912W        W26386   4.588   8.580  15.369 -0.0205 -0.2427 -0.0859
 9913W        W26387   3.887   9.324  16.311 -0.0631  0.3773 -0.4005
 9914W        W26388   3.342  15.027  13.557 -0.0469  0.1520  0.1194
 9915W        W26389  17.071   7.241  12.808  0.0466 -0.1830  0.0186
 9916W        W26390   7.160  17.401   2.086  0.0520 -0.0406 -0.0765
 9917W        W26391   2.548  12.298   3.567 -0.0727 -0.4083  0.1723
 9918W        W26392  17.504  16.524   0.181 -0.1332  0.0886 -0.2467
 9919W        W26393   2.262   3.114  15.791 -0.3968 -0.0976  0.0852
 9920W        W26394   4.049   8.208  16.641  0.3928  0.3207  0.1762
 9921W        W26395  10.569   7.793  12.355 -0.0425  0.2179 -0.5568
 9922W        W26396   3.197   3.140  13.569  0.0000  0.1852  0.2417
 9923W        W26397   2.771   7.432  12.427  0.0253  0.0648 -0.2578
 9924W        W26398   7.661  10.369   0.338  0.3809 -0.0044 -0.1067
 9925W        W26399  11.050   2.716  16.220  0.3225 -0.4099  0.0876
 9926W        W26400  17.293   6.118  12.058 -0.1289  0.0529  0.0564
 9927W        W26401   7.615  16.397  12.343 -0.1535  0.1597 -0.1915
 9928W        W26402   6.275   0.210   1.567 -0.0136  0.0244 -0.1566
 9929W        W26403   2.907   7.614  16.421 -0.1139 -0.1812 -0.0635
 9930W        W26404   8.838   9.054  16.065  0.0039  0.3181 -0.4201
 9931W        W26405  17.215   2.121   1.784 -0.1258 -0.0348 -0.1544
 9932W        W26406   9.526   7.829   5.815  0.0560  0.2009 -0.0573
 9933W        W26407   4.724  17.177  13.372  0.1568 -0.0984 -0.4097
 9934W        W26408   0.575  11.412  13.240 -0.3025 -0.0848 -0.1035
 9935W        W26409  12.441   7.731   3.947  0.1625  0.1409  0.0646
 9936W        W26410   4.618  12.388  15.205 -0.0885 -0.0211 -0.1231
 9937W        W26411   9.701   8.466  13.180  0.2100  0.0629 -0.3762
 9938W        W26412  11.540   4.910  16.289 -0.1666  0.2223  0.1371
 9939W        W26413  12.334  17.300  11.966 -0.4441 -0.0878 -0.1781
 9940W        W26414   1.063   3.830   3.106 -0.0006  0.0244  0.0555
 9941W        W26415   5.266   9.118  12.850 -0.1240  0.2592  0.1275
 9942W        W26416   8.168   0.332  16.046 -0.0034  0.0302 -0.2123
 9943W        W26417   6.422  15.272   2.989 -0.0752  0.1675  0.1144
 9944W        W26418   7.270   1.747  14.991  0.6759  0.1713 -0.1699
 9945W        W26419   5.207   4.385  15.987  0.1753 -0.0699  0.1976
 9946W        W26420   9.290   3.525  15.232  0.0652 -0.1524  0.3176
 9947W        W26421   8.210  10.422   3.636  0.0339 -0.0200  0.0545
 9948W        W26422   9.942  16.177   0.990  0.1340  0.3262 -0.1702
 9949W        W26423  16.025   0.543  13.798 -0.1493 -0.3686  0.1780
 9950W        W26424  12.338   7.558   0.523 -0.0279 -0.0066 -0.2593
 9951W        W26425   0.142  14.561  12.968 -0.2519  0.3776  0.2423
 9952W        W26426  12.322   6.997  12.889 -0.0960  0.1727  0.2248
 9953W        W26427   4.868   6.077  12.193 -0.3170  0.3032  0.0141
 9954W        W26428  13.063   0.538   5.977 -0.0240  0.1686 -0.0807
 9955W        W26429   2.523   3.241  14.962  0.2183  0.0263 -0.1878
 9956W        W26430   1.917   1.780  12.127  0.2630 -0.2021  0.0894
 9957W        W26431  14.168   2.247  13.533 -0.2113 -0.1600  0.1220
 9958W        W26432   7.136   9.964  14.068  0.0016  0.1489  0.1755
 9959W        W26433   9.072  17.266  16.098  0.2714 -0.0823 -0.1809
 9960W        W26434  15.726   9.140  15.827 -0.2440  0.3196 -0.0291
 9961W        W26435  13.150  13.930   4.666 -0.1668  0.2937 -0.0897
 9962W        W26436  10.076   6.902   0.460  0.0321 -0.0562  0.1037
 9963W        W26437   7.848  13.846  13.454  0.0698 -0.0787 -0.0546
 9964W        W26438   1.439  14.535   6.074 -0.3573 -0.0051  0.1894
 9965W        W26439  10.215  11.008   1.357 -0.0924  0.1445 -0.1826
 9966W        W26440  14.873  10.625   3.819  0.1368  0.0777  0.0898
 9967W        W26441   0.751  14.702   3.293  0.0130  0.0065 -0.0853
 9968W        W26442  11.550   8.227   6.588 -0.2613  0.2762  0.1908
 9969W        W26443   7.602   2.735  12.780 -0.0393  0.1395 -0.0153
 9970W        W26444  13.222  13.398   0.693 -0.0636  0.0409  0.1827
 9971W        W26445   3.028   6.126   4.301  0.0407 -0.0695  0.0578
 9972W        W26446   4.739  14.559  13.839 -0.0181 -0.1819  0.2627
 9973W        W26447   4.047  11.406  14.635 -0.0238  0.1109 -0.1525
 9974W        W26448  16.844   1.320   5.124 -0.2221  0.0486  0.2219
 9975W        W26449   2.580   4.263   0.980 -0.0213  0.2014 -0.1163
 9976W        W26450  15.594   8.314  15.681 -0.0735 -0.0584  0.0020
 9977W        W26451  13.811  12.149   5.199 -0.1093  0.2201 -0.0645
 9978W        W26452   8.595   2.358   1.264  0.3161 -0.0871  0.1281
 9979W        W26453  13.483  14.391   2.006 -0.0935  0.2083 -0.0414
 9980W        W26454   8.246   1.217   0.310 -0.2781  0.0991  0.0974
 9981W        W26455  15.669   5.951  14.177 -0.3243  0.1833 -0.0336
 9982W        W26456   7.149  15.038  11.240 -0.1396  0.4483  0.1040
 9983W        W26457   8.182   8.246   1.838  0.0813  0.4797  0.2467
 9984W        W26458   8.594   5.838  14.258 -0.0492 -0.2225 -0.1146
 9985W        W26459  10.584   2.211  12.143 -0.1192  0.3969  0.2169
 9986W        W26460  15.798  13.474   0.521 -0.0177 -0.0566  0.2707
 9987W        W26461  16.577   0.211   4.266 -0.0401  0.0995 -0.0437
 9988W        W26462   6.263   9.557   3.610  0.1673  0.1395  0.2360
 9989W        W26463   8.293   4.561  14.154  0.0348 -0.1157 -0.1144
 9990W        W26464  15.443   8.380   5.052 -0.0692 -0.1423 -0.1349
 9991W        W26465  12.212   3.670   0.048  0.1146 -0.2568  0.1374
 9992W        W26466  16.100  11.837   0.178  0.2273  0.1360  0.2337
 9993W        W26467  12.558   9.824  16.205 -0.1435  0.0624  0.0439
 9994W        W26468  15.335   3.838   3.654 -0.0775  0.0942  0.2824
 9995W        W26469   9.457   4.753  13.080  0.0862  0.1195 -0.1214
 9996W        W26470   2.136  17.509  12.514 -0.1235  0.1433  0.1691
 9997W        W26471  11.824   6.389   3.820 -0.3020  0.0801 -0.3204
 9998W        W26472  14.666  16.570  16.593  0.0698  0.0760  0.3235
 9999W        W26473  11.739   2.641  13.497 -0.1625 -0.0294 -0.0858
10000W        W26474  15.776   6.553  12.318 -0.1097 -0.3868 -0.1523
10001W        W26475  10.729   8.024  15.260 -0.1770 -0.0814 -0.0667
10002W        W26476  16.494   4.842  12.888 -0.2182  0.1096  0.1074
10003W        W26477   5.459   2.707   2.523 -0.0716  0.2476 -0.0967
10004W        W26478   2.913   1.139   1.412  0.2431  0.0033 -0.1512
10005W        W26479   3.018  14.859   1.807  0.4003 -0.0366 -0.0822
10006W        W26480   1.793  15.235   0.711 -0.1442 -0.1522  0.1666
10007W        W26481  12.002  12.878   4.437 -0.1897  0.1428 -0.0784
10008W        W26482   1.991  10.515   5.536 -0.2309 -0.2371  0.1184
10009W        W26483  13.534   0.162  16.461 -0.2161  0.0124 -0.1234
10010W        W26484  16.802   6.311  14.792 -0.4118 -0.1932  0.1630
10011W        W26485  13.520  17.839  11.685 -0.1504  0.0964  0.1626
10012W        W26486   7.071   9.467  15.103  0.1730  0.1247 -0.0395
10013W        W26487   9.442   6.267  15.295 -0.1662  0.0867  0.0426
10014W        W26488   5.349   5.462  12.731 -0.0877 -0.2764  0.1064
10015W        W26489  11.751   3.837   2.316 -0.1251  0.1873  0.0341
10016W        W26490  14.720   4.432   2.862  0.3444  0.0392  0.1087
10017W        W26491  16.569  16.157   2.220  0.1153 -0.0430 -0.0259
10018W        W26492   7.244   0.780  16.120  0.0083 -0.1664  0.0676
10019W        W26493  10.570  14.252  15.272 -0.0460  0.0237 -0.3325
10020W        W26494  17.563   5.777   5.320 -0.2560  0.2227 -0.2841
10021W        W26495  15.448  15.249   3.879 -0.0823  0.2213 -0.0248
10022W        W26496  16.780  15.461   3.600  0.1921 -0.0876 -0.2128
10023W        W26497  10.562   9.330  15.479 -0.0149 -0.2818  0.0365
10024W        W26498   4.929   2.154   1.852  0.1160 -0.0738  0.1368
10025W        W26499   8.546   6.191  16.097 -0.0752  0.0317 -0.4189
10026W        W26500  15.647  16.895   1.529 -0.0750 -0.0776  0.0322
10027W        W26501  12.720   5.120   1.119  0.2944 -0.0700 -0.2744
10028W        W26502   7.264   6.706  15.894 -0.0939  0.0829  0.4756
10029W        W26503   2.112   7.044  13.106  0.1232  0.2258  0.1616
10030W        W26504  13.849   6.445   0.938  0.0898  0.1947 -0.1281
10031W        W26505  16.832   1.324   0.280 -0.2921 -0.1994 -0.0811
10032W        W26506   1.079   6.519  11.014 -0.0446 -0.2003 -0.0031
10033W        W26507  11.920  15.022  15.182 -0.0070  0.3430 -0.0854
10034W        W26508  14.046   4.125   4.861 -0.2525  0.0129  0.0763
10035W        W26509   5.051  17.159  16.350  0.3633  0.0401 -0.2230
10036W        W26510  14.081   3.929   3.957 -0.3956  0.2025  0.0964
10037W        W26511   4.095   0.668   3.169 -0.1918  0.2623 -0.1316
10038W        W26512  12.559   2.727   1.948  0.1340 -0.0218  0.0066
10039W        W26513  17.160   9.865  12.851 -0.0675 -0.0449  0.0148
10040W        W26514  15.864  15.783   2.630  0.1774 -0.2676 -0.2966
10041W        W26515  14.904   3.699  14.169  0.1102 -0.2947  0.0002
10042W        W26516   2.562  10.834  16.264  0.0205 -0.3638 -0.1896
10043W        W26517  11.044  14.163   1.032 -0.4585 -0.0165 -0.0953
10044W        W26518  17.458  17.252   2.429  0.0759  0.0552 -0.0556
10045W        W26519  17.597  12.864  13.870 -0.2007 -0.0612 -0.3155
10046W        W26520   6.315   3.256   4.274 -0.0340  0.1657  0.0510
10047W        W26521  12.613  10.767   0.147  0.0428 -0.0117 -0.3184
10048W        W26522  14.291   2.775   1.210 -0.1014 -0.2755 -0.0938
10049W        W26523  14.649  15.595  15.098  0.0708  0.1017  0.0873
10050W        W26524  14.763  12.965  12.214 -0.2959 -0.2247  0.0425
10051W        W26525   2.919  11.143  14.450 -0.1315 -0.0518  0.2453
10052W        W26526  13.980   9.651  13.288  0.1356  0.1318  0.1586
10053W        W26527   6.175   8.383  15.352  0.0656 -0.1415  0.0612
10054W        W26528  13.680   6.756   1.916  0.0682 -0.0096 -0.0634
10055W        W26529  11.622  13.704  14.610 -0.0587 -0.3273 -0.0528
10056W        W26530  16.275   2.728  14.546 -0.0515 -0.0007 -0.1123
10057W        W26531   9.029  16.466   2.060 -0.1946  0.1274  0.0340
10058W        W26532  17.009  15.958   4.667  0.2767  0.0424  0.2145
10059W        W26533  12.047   9.326   0.380  0.0980 -0.0053  0.2408
10060W        W26534  16.565   4.034  15.187  0.0228  0.1009 -0.0277
10061W        W26535  13.279   2.848  14.795  0.0188  0.2911  0.0358
10062W        W26536   8.816   2.572  15.325  0.1347  0.0291  0.1415
10063W        W26537   8.486  17.023   0.951  0.0065  0.1359  0.1278
10064W        W26538   9.920  16.702  16.722  0.1615  0.0564 -0.0916
10065W        W26539   1.820   4.335   3.331  0.0107 -0.1470  0.0366
10066W        W26540   9.292   2.431   2.624 -0.1712 -0.1870 -0.1404
10067W        W26541   4.439   6.238   1.770 -0.0654  0.1979  0.0128
10068W        W26542   3.052   3.059   4.461 -0.1302 -0.0681 -0.0456
10069W        W26543   5.650   5.400   2.946  0.0380 -0.2954  0.2219
10070W        W26544   7.698  13.166   3.354 -0.3041 -0.0886  0.2105
10071W        W26545   7.187   8.278  15.147 -0.1104 -0.0297  0.3381
10072W        W26546  14.158  12.944   5.313  0.1707  0.0211  0.1238
10073W        W26547  15.295   8.785   0.945 -0.0881 -0.2744 -0.3136
10074W        W26548   8.511   6.772  13.061  0.1659  0.0575  0.1255
10075W        W26549  13.612   0.566  12.444  0.1083 -0.2256 -0.0848
10076W        W26550  17.493   4.472   2.111 -0.0247 -0.2750 -0.0964
10077W        W26551  10.296   0.967   4.044 -0.0767  0.1235  0.1359
10078W        W26552   3.235   5.172   2.996 -0.1858 -0.4975  0.2132
10079W        W26553  12.234   2.908  12.514  0.1349  0.1283 -0.0332
10080W        W26554   3.521   8.451  13.646  0.1662 -0.1121  0.0030
10081W        W26555  10.325   6.722   2.564 -0.0306 -0.2852 -0.1365
10082W        W26556  15.288  11.274  13.529 -0.1802  0.0595  0.0678
10083W        W26557   6.426   7.709  12.451  0.1146  0.2548  0.3438
10084W        W26558   8.149  15.660  11.846 -0.2159  0.2073 -0.0924
10085W        W26559   5.815  15.800  14.113  0.0852 -0.0896 -0.0288
10086W        W26560   2.826   1.868   4.674  0.0275  0.2697  0.0041
10087W        W26561   8.143   7.846   5.132 -0.1539  0.2074  0.0417
10088W        W26562  14.326   2.026   5.455  0.0582 -0.1469  0.0133
10089W        W26563   9.361  10.171  15.407  0.1578 -0.0949  0.2155
10090W        W26564   6.121   8.998   4.427  0.0323  0.1313  0.1363
10091W        W26565  15.304  16.301   0.286  0.2396  0.0817  0.0093
10092W        W26566  17.578  10.156  12.911 -0.2243  0.0681  0.1058
10093W        W26567   4.861   6.300  14.802  0.0488  0.0804  0.2136
10094W        W26568  10.382  14.371   5.306  0.0393 -0.1202  0.0921
10095W        W26569  11.698   8.303  16.266 -0.1895  0.0484  0.1827
10096W        W26570  10.875   5.968   2.440  0.1645  0.4190 -0.0828
10097W        W26571  12.510  10.597  14.552  0.1298  0.0924  0.3076
10098W        W26572  16.696   0.154   2.251  0.2263  0.0804  0.1750
10099W        W26573  10.994  16.026  15.863  0.1222 -0.0525 -0.2199
10100W        W26574  17.833   5.477  15.397 -0.1505 -0.2704 -0.2650
10101W        W26575  17.910   8.278  15.439  0.3780  0.0920 -0.0632
10102W        W26576  17.578   1.167   4.029 -0.2194 -0.2551 -0.0278
10103W        W26577   5.080  11.431  12.778  0.0428 -0.0261 -0.2468
10104W        W26578   5.389   3.307  16.056 -0.1091 -0.2212  0.1664
10105W        W26579  15.005   9.856   3.848 -0.2577 -0.0922  0.0359
10106W        W26580   5.408   9.403   5.155 -0.2933  0.1290  0.0036
10107W        W26581  12.395  10.328  12.188 -0.1655  0.0043  0.1422
10108W        W26582  16.560   4.123  14.278 -0.0281  0.1223  0.0010
10109W        W26583  13.492  17.545   2.349 -0.0758  0.2802 -0.0462
10110W        W26584  10.452   1.198  11.479  0.1048 -0.1524 -0.1106
10111W        W26585  11.067  12.413   1.425  0.2871  0.0154 -0.2333
10112W        W26586  15.628   0.499  12.858  0.1035  0.1205  0.1334
10113W        W26587   2.337   2.277   1.583  0.0183  0.0419 -0.1268
10114W        W26588  16.616   4.590   2.355 -0.2567 -0.1737  0.2652
10115W        W26589   9.174  14.882   5.374 -0.1353  0.0580  0.2757
10116W        W26590   3.624   0.356  15.274  0.0891 -0.0772 -0.0038
10117W        W26591  17.891   4.109   2.125 -0.1708 -0.0168 -0.0019
10118W        W26592  13.444   1.769   5.860 -0.0115  0.0924 -0.1889
10119W        W26593   1.255   8.336   3.898 -0.0293 -0.4217  0.2212
10120W        W26594  11.715  10.403  16.232 -0.0783  0.1094 -0.2514
10121W        W26595  10.566  15.259   3.392 -0.1527  0.1054  0.3636
10122W        W26596   1.329  12.035   0.135  0.3296 -0.2603 -0.2375
10123W        W26597   0.674   2.622  15.469 -0.1609  0.0980  0.0538
10124W        W26598  17.225   9.650   0.183  0.2380 -0.2992  0.3715
10125W        W26599   2.066   9.172   0.388  0.0053 -0.0466  0.2296
10126W        W26600  17.860   5.179   2.310  0.0645  0.2151  0.0942
10127W        W26601   5.497  10.399  15.400 -0.2325  0.1800 -0.0939
10128W        W26602  15.148   9.575   3.439  0.0432 -0.0338 -0.0683
10129W        W26603   3.547   8.033   4.161  0.3846  0.0556  0.1459
10130W        W26604  12.881   8.824  14.008  0.2909 -0.1086  0.0879
10131W        W26605   1.296   3.355  14.695  0.4832  0.2638 -0.0048
10132W        W26606  17.439  16.839   4.319  0.0819 -0.0400  0.1782
10133W        W26607   8.413   8.826   0.449 -0.0920 -0.1594 -0.0145
10134W        W26608  16.548   4.753  12.404  0.1076 -0.0062  0.1725
10135W        W26609  11.803  10.278  12.898 -0.1805  0.0857  0.0362
10136W        W26610   2.268   0.809   3.240  0.2601 -0.2989  0.1074
10137W        W26611   1.553   0.240   3.587 -0.1472  0.3336 -0.0965
10138W        W26612   9.960  12.168  11.910 -0.0697 -0.1038 -0.2920
10139W        W26613  17.134  12.210   3.484 -0.0329  0.0078 -0.2095
10140W        W26614  15.274   1.646  14.750  0.0326 -0.2388  0.0459
10141W        W26615   6.660   2.380  15.087  0.0891 -0.0187  0.1662
10142W        W26616   0.757   7.671   3.771  0.1989  0.2692  0.0337
10143W        W26617   5.950   5.291   4.551  0.3369  0.1712 -0.0689
10144W        W26618  16.169   3.255  13.743  0.2318  0.1637  0.2534
10145W        W26619  10.688  14.003  14.743 -0.2350 -0.0895  0.1921
10146W        W26620  15.243  13.624  16.095 -0.0843  0.1573  0.0998
10147W        W26621   9.838  13.526  12.147  0.0926 -0.0829  0.0301
10148W        W26622   1.202  15.944  16.768  0.0405  0.3750  0.2813
10149W        W26623  13.568   2.425   2.145 -0.1763 -0.3234  0.1155
10150W        W26624  16.549   2.409   5.324 -0.2472 -0.3482 -0.0756
10151W        W26625   5.203   7.182   1.096 -0.1013  0.0802 -0.0032
10152W        W26626   3.190  12.529  11.327  0.0455  0.1140 -0.0603
10153W        W26627  12.135   7.310   4.168 -0.3316 -0.2299 -0.2215
10154W        W26628  15.431   9.938  16.498 -0.0271  0.2833  0.0173
10155W        W26629  13.405   0.598  15.936 -0.0225  0.0312  0.0316
10156W        W26630  11.176   1.755  11.776  0.2647 -0.1071  0.1232
10157W        W26631   7.324   0.370   3.826 -0.1582 -0.0249  0.0841
10158W        W26632   1.826  15.582   2.285  0.4800  0.0036  0.0477
10159W        W26633  10.113   8.502   0.025 -0.4227 -0.2811 -0.1795
10160W        W26634   7.354  10.233   5.533  0.1127 -0.0003  0.2556
10161W        W26635   3.356  14.523  14.555  0.2090 -0.4443  0.0283
10162W        W26636  12.489  16.844  11.974  0.1987 -0.0156  0.0782
10163W        W26637   8.251   7.303   0.812 -0.2444  0.4229  0.1881
10164W        W26638   5.952   0.971   4.139 -0.2248 -0.2474 -0.1622
10165W        W26639  14.782   8.349  13.924 -0.0096 -0.0670 -0.1122
10166W        W26640  10.629  10.876   2.225 -0.2839  0.1120 -0.0034
10167W        W26641  15.074   5.103  15.847 -0.0700 -0.3140  0.0926
10168W        W26642  14.736  12.249   0.803  0.3244 -0.2200 -0.2904
10169W        W26643   1.376   8.370   1.913 -0.0256  0.0216 -0.1425
10170W        W26644  10.954   2.464  16.629 -0.0886  0.0148  0.2490
10171W        W26645   5.385  15.098  15.622 -0.0000  0.0077  0.1530
10172W        W26646  14.795  15.010  15.268  0.2562  0.0098 -0.5665
10173W        W26647  15.873  10.502   0.471 -0.0085 -0.2302  0.2559
10174W        W26648   5.915   9.781  12.124 -0.1732 -0.0369 -0.2724
10175W        W26649   2.259   4.216   5.027  0.0663 -0.0556  0.2785
10176W        W26650   0.367   7.617   1.190  0.2471 -0.0810  0.0889
10177W        W26651   5.408  10.192  13.303  0.2542 -0.0458  0.1009
10178W        W26652  13.998  12.705  12.459  0.2155 -0.0837  0.2458
10179W        W26653   3.661  15.665  16.655 -0.3005 -0.0760 -0.3358
10180W        W26654  13.128  14.955   4.789 -0.0116 -0.1412 -0.3311
10181W        W26655   5.587   8.704   3.783 -0.1200 -0.3355  0.2833
10182W        W26656  10.013   5.382   4.828  0.0906  0.2316 -0.2652
10183W        W26657   3.729  12.192  15.667 -0.0965  0.2398  0.0058
10184W        W26658   4.625   3.342   0.706  0.1166 -0.0091 -0.2257
10185W        W26659  12.100  17.698   5.647 -0.1328  0.1397 -0.1117
10186W        W26660  16.208   9.786   3.959  0.0159  0.1787  0.0292
10187W        W26661   5.822  11.701  12.109 -0.3776 -0.0793 -0.3388
10188W        W26662   3.098  11.882   1.904 -0.1703 -0.0260  0.1042
10189W        W26663   5.401  17.670  14.270 -0.0496 -0.0299 -0.0027
10190W        W26664   1.135   6.997   5.160 -0.0270  0.0027 -0.2163
10191W        W26665  13.782  16.949   4.142 -0.0692 -0.1017  0.0440
10192W        W26666   1.694   4.240  12.289  0.0337  0.0385 -0.0367
10193W        W26667   3.974  10.918  12.164 -0.0550 -0.0949  0.0624
10194W        W26668   8.895  14.164   0.441 -0.2499 -0.2859  0.0133
10195W        W26669   1.609  14.109   3.879 -0.1735 -0.1649  0.3167
10196W        W26670  10.242   1.523   2.867 -0.2544  0.1216  0.0408
10197W        W26671   0.273   3.936  12.969 -0.3678  0.0346 -0.0889
10198W        W26672  14.348  16.832   1.840 -0.0557  0.0670 -0.1205
10199W        W26673   9.499   6.529   2.919 -0.2837 -0.1996 -0.2702
10200W        W26674   6.433   9.117  16.438 -0.4491 -0.2548 -0.1756
10201W        W26675   3.943  11.835   0.792 -0.0127  0.0400 -0.1826
10202W        W26676   9.901   7.942   2.884  0.1922 -0.1945 -0.1987
10203W        W26677   3.034   7.399  11.808 -0.0462 -0.0417 -0.1879
10204W        W26678  10.974  15.508   2.120  0.1547  0.0224  0.0535
10205W        W26679   0.603   9.874  12.954  0.1142  0.3815 -0.3507
10206W        W26680   4.494  14.747   0.194  0.1273  0.0053  0.1109
10207W        W26681   6.044   6.220   4.548  0.0431  0.2638 -0.1880
10208W        W26682  12.493  13.618   4.001  0.0324  0.1437  0.0545
10209W        W26683   1.321  14.280   5.064 -0.1819 -0.1679  0.2658
10210W        W26684  15.532   9.979   5.625 -0.0227 -0.2187 -0.4198
10211W        W26685   3.121   3.280   6.202  0.0138  0.0967 -0.1574
10212W        W26686   5.679   9.295  13.100 -0.0597 -0.0130  0.0540
10213W        W26687  17.866   6.274   3.499  0.1326 -0.1388  0.0178
10214W        W26688  12.871  10.843   2.730  0.1082  0.1295  0.0869
10215W        W26689   5.850   3.236   2.350 -0.3538  0.1226 -0.1753
10216W        W26690   4.290  17.075  13.040  0.3982  0.0523  0.3159
10217W        W26691   6.291   0.724  16.759  0.0905  0.2074  0.3175
10218W        W26692   5.940   5.972  15.874 -0.0962  0.2229 -0.2748
10219W        W26693   6.842   6.809   4.409  0.1185 -0.2445 -0.0056
10220W        W26694   7.070   2.226  12.235  0.0799  0.1625  0.1129
10221W        W26695  15.383   6.757   1.721 -0.0323 -0.0463  0.1483
10222W        W26696   6.767   2.144  14.010 -0.1204  0.1182  0.1355
10223W        W26697   0.959  12.695  15.789  0.1302 -0.0441  0.2120
10224W        W26698   3.016  13.141   5.082  0.1973 -0.1297 -0.0873
10225W        W26699  11.915   9.617  12.195  0.1303 -0.2210  0.1362
10226W        W26700   0.321  17.113  11.074 -0.0906 -0.2380  0.0447
10227W        W26701   0.215   8.527  14.932 -0.3764 -0.1838 -0.1015
10228W        W26702   9.310   0.157   6.100  0.2379 -0.2052 -0.0759
10229W        W26703   9.645   9.971   0.350 -0.0154 -0.1121  0.1709
10230W        W26704   4.200  13.402   2.146  0.2312 -0.0177 -0.2509
10231W        W26705  17.192  10.872   3.815  0.1108  0.0299 -0.1901
10232W        W26706  10.135  16.918   2.811  0.0772  0.0816  0.4614
10233W        W26707  17.509   0.640   4.940 -0.1391  0.0982 -0.0936
10234W        W26708  15.015  16.181  12.670  0.2069 -0.0414 -0.0245
10235W        W26709   1.685   9.529  16.127 -0.0556 -0.2955  0.0695
10236W        W26710   4.374  15.367  12.408  0.0129  0.6083  0.0689
10237W        W26711  14.183   8.497  15.229 -0.2318  0.0921 -0.2192
10238W        W26712  10.314   0.048   5.683  0.0505  0.0435  0.4864
10239W        W26713   8.893   6.716  16.531 -0.1274  0.0625  0.0531
10240W        W26714  15.997  15.120   5.710  0.1375 -0.2018  0.1423
10241W        W26715  10.922  10.163   3.332 -0.0300 -0.1516 -0.1605
10242W        W26716   6.448  10.565  14.047  0.2646  0.0869  0.1105
10243W        W26717   5.141   8.975   5.135 -0.1428 -0.0544 -0.1492
10244W        W26718   8.592  11.758   2.798  0.0590  0.1337 -0.1805
10245W        W26719   4.519   0.082  13.162 -0.1071 -0.1427 -0.1444
10246W        W26720   2.952  13.179   4.553  0.1323  0.1105 -0.0852
10247W        W26721   9.325  14.629   1.664  0.1731  0.1213 -0.2098
10248W        W26722  16.121  13.225  14.043  0.0168  0.1675  0.0126
10249W        W26723   3.494  17.557   5.794 -0.0920  0.2159 -0.1189
10250W        W26724  11.342   0.310  14.496 -0.1587 -0.0121 -0.1828
10251W        W26725   0.359  17.797   5.786 -0.1151 -0.1535 -0.0181
10252W        W26726  17.566  13.333  10.983 -0.1424  0.0629 -0.0026
10253W        W26727   9.744   6.753  15.837  0.0483  0.1375  0.0070
10254W        W26728  17.877   3.688   5.470 -0.2330 -0.0671  0.1334
10255W        W26729   5.124   2.905  13.916  0.2019  0.0561 -0.2073
10256W        W26730  11.362  16.592   2.646  0.0635  0.1993  0.1490
10257W        W26731   1.510   0.970   2.582  0.0241 -0.0134  0.1155
10258W        W26732  11.438   4.318  11.405  0.2533 -0.0494  0.1181
10259W        W26733  14.082   4.793  14.847  0.1483 -0.2023 -0.1558
10260W        W26734   3.809   8.733  13.233 -0.0174  0.2161 -0.0007
10261W        W26735  13.276  12.614  14.471  0.1227 -0.0453  0.2413
10262W        W26736   2.434   4.549  13.839  0.2645  0.0469 -0.1743
10263W        W26737  16.016   2.329   1.072 -0.0861  0.1436 -0.3160
10264W        W26738   2.112   3.672   1.752 -0.0424 -0.1431 -0.4282
10265W        W26739  12.858  14.265  13.370 -0.4170 -0.0967  0.0542
10266W        W26740  15.161  16.233  13.609  0.1075  0.0481  0.1758
10267W        W26741   6.496   2.926   2.464 -0.0946 -0.0282  0.1608
10268W        W26742   6.706   2.426   5.268 -0.0028 -0.2889  0.2037
10269W        W26743   8.626   8.446  13.827 -0.1408 -0.2423 -0.2788
10270W        W26744  16.911  10.865   2.480 -0.1103 -0.0397 -0.0355
10271W        W26745   9.295  14.522  15.807 -0.0324 -0.1617 -0.0862
10272W        W26746   1.607   8.903   5.456  0.0962  0.0831  0.1941
10273W        W26747  13.381  10.833   5.350 -0.1338 -0.1180  0.2079
10274W        W26748  16.237  14.220  15.041  0.1334 -0.1239  0.0395
10275W        W26749  17.321  15.719  15.589 -0.1201  0.1172  0.1220
10276W        W26750  11.080  16.969  15.568 -0.0118 -0.1106 -0.2694
10277W        W26751  14.217   1.899   0.104 -0.2464  0.2244 -0.0562
10278W        W26752  12.882  13.730  14.148 -0.2073 -0.0907  0.0040
10279W        W26753   8.650  13.982  15.064 -0.1756  0.1111  0.1464
10280W        W26754   5.428  16.498  14.989 -0.2905  0.2659 -0.3423
10281W        W26755   5.021  14.802  16.198  0.1759 -0.0404  0.1096
10282W        W26756  16.523  15.069  11.697  0.1925  0.0769  0.0921
10283W        W26757   7.392  17.625   1.500  0.0934 -0.1651  0.0179
10284W        W26758   4.060   3.815   1.262  0.2496 -0.0972 -0.0571
10285W        W26759  17.659  10.715   3.811  0.2023 -0.1625  0.0670
10286W        W26760  11.899  15.399   4.773 -0.0409 -0.2524 -0.1277
10287W        W26761  17.978  12.670   1.668 -0.1305  0.0763  0.1868
10288W        W26762   6.534  14.788   2.096 -0.1937 -0.0097 -0.1913
10289W        W26763   5.797   7.225  11.933  0.2232 -0.0156  0.1080
10290W        W26764  12.933   3.281   5.102 -0.1577 -0.3186 -0.2707
10291W        W26765   0.344  14.027   5.097 -0.3867  0.0805 -0.0219
10292W        W26766  13.543  16.550   3.957 -0.1046 -0.1297 -0.1220
10293W        W26767  11.127   6.941   0.225 -0.1039  0.2204 -0.2160
10294W        W26768  16.679   1.694   2.585  0.2988 -0.0879  0.1276
10295W        W26769   3.973   5.978  12.322  0.1471 -0.0753 -0.2140
10296W        W26770   4.801   1.247  14.389 -0.1584 -0.0223 -0.1278
10297W        W26771  11.682  13.726  11.819 -0.1069  0.2069  0.2047
10298W        W26772  12.971  17.832   4.988 -0.2130 -0.3058 -0.1025
10299W        W26773   0.384   4.758  13.763 -0.4187  0.2628  0.0420
10300W        W26774  16.221   6.505   3.174  0.0020 -0.2227  0.3301
10301W        W26775  12.009   6.817   5.874  0.0417 -0.2265  0.0885
10302W        W26776  10.667  16.329  13.870 -0.1630 -0.0755  0.0929
10303W        W26777   6.586   6.662  12.811 -0.4240 -0.1207 -0.0455
10304W        W26778   8.087  15.049   1.055 -0.0421 -0.1837 -0.4560
10305W        W26779   4.030   4.070  13.882 -0.2549  0.0920 -0.3719
10306W        W26780   6.171   2.358   5.680  0.2473  0.1750 -0.0236
10307W        W26781   2.420   8.202   1.611  0.1565 -0.0914 -0.0363
10308W        W26782   3.404  16.365  16.474 -0.1578  0.0975 -0.0165
10309W        W26783   0.190   0.051  13.686 -0.1018 -0.3651 -0.2078
10310W        W26784   1.451   4.438   2.536 -0.2550 -0.0558  0.2805
10311W        W26785   7.754   1.659  14.944  0.0471  0.2141 -0.2004
10312W        W26786  10.484  13.584  13.979  0.3803 -0.2027  0.2997
10313W        W26787  13.621   4.022  15.245  0.0523 -0.0027  0.0026
10314W        W26788   2.689  10.640  12.888 -0.0155 -0.0418 -0.1409
10315W        W26789   5.080  13.370  13.823  0.3580 -0.0170  0.0920
10316W        W26790   4.500  15.583   4.617  0.0982 -0.1395  0.1413
10317W        W26791  12.573  13.975   1.279 -0.0080 -0.5006 -0.0150
10318W        W26792  12.533  17.108  15.878  0.0307 -0.4591  0.0324
10319W        W26793  12.891   6.112  16.404  0.0716 -0.3472 -0.1484
10320W        W26794  17.733   9.823  14.063  0.0271 -0.0875 -0.1866
10321W        W26795   1.134  14.180   1.844 -0.2882  0.0412  0.1172
10322W        W26796  14.453  12.171  13.228 -0.3712  0.3366 -0.0804
10323W        W26797   3.096   5.745  14.414 -0.2105  0.1959  0.1321
10324W        W26798  17.077   4.983   2.949  0.0321 -0.0343  0.0453
10325W        W26799   6.574   1.999  12.206  0.0175  0.0662 -0.0426
10326W        W26800   4.311   4.143   3.697  0.1739 -0.1535 -0.0712
10327W        W26801  15.237  13.752  12.148 -0.0530  0.2170 -0.3218
10328W        W26802  13.793   3.054   5.476  0.0131  0.1859 -0.4467
10329W        W26803  16.317  14.304   4.082 -0.0352  0.0134  0.1929
10330W        W26804   5.638   8.860   4.560  0.0649 -0.1903  0.0476
10331W        W26805   3.556   6.019  12.651  0.2959 -0.0751  0.0889
10332W        W26806  15.200  14.971  16.650  0.3319 -0.1055 -0.4536
10333W        W26807   5.190   0.154  15.471 -0.1478 -0.0973 -0.5291
10334W        W26808   8.581  17.653   2.867 -0.0499 -0.2899  0.2272
10335W        W26809  15.913  12.386   1.375 -0.0026 -0.2859  0.2795
10336W        W26810  10.425  17.975   4.184  0.0813  0.1500  0.1577
10337W        W26811   5.774  10.617   4.299 -0.0532  0.0488  0.2576
10338W        W26812  17.241   5.415   5.471  0.3249  0.1992 -0.0582
10339W        W26813  14.025   0.704  15.168  0.1924 -0.1770  0.1421
10340W        W26814  15.221   9.231   1.218  0.0751  0.1986 -0.2548
10341W        W26815   6.784  13.839  16.011 -0.0787  0.1325 -0.2347
10342W        W26816   8.703   1.840   0.878 -0.1406 -0.0269 -0.0704
10343W        W26817  13.812  14.947  12.034  0.0973  0.2893  0.2756
10344W        W26818   7.153  13.835   3.417 -0.5564 -0.0957 -0.2610
10345W        W26819  16.030   8.027  13.128  0.0932 -0.1941  0.0281
10346W        W26820  14.310  13.511   6.012 -0.2710  0.0058  0.0349
10347W        W26821   1.454  16.830   5.660 -0.0196 -0.3744 -0.0250
10348W        W26822   4.471   7.340  12.485 -0.2330  0.0471 -0.1777
10349W        W26823  15.464  11.132  14.634 -0.1950 -0.1405 -0.0415
10350W        W26824  11.234  10.721  15.375 -0.0218  0.3271  0.0378
10351W        W26825  11.279  15.854  14.054  0.2491 -0.3273  0.0270
10352W        W26826  17.113   3.733  15.216  0.2119 -0.2669 -0.0052
10353W        W26827   6.837   9.653   2.805  0.0514 -0.0204 -0.0113
10354W        W26828   1.340   9.859  14.763 -0.1280 -0.0366  0.2103
10355W        W26829  15.054  10.774   5.300 -0.1765 -0.0708 -0.1209
10356W        W26830  17.072  16.106   2.442 -0.3467 -0.0671 -0.0056
10357W        W26831   5.192   2.752   3.719  0.2830 -0.1818  0.1400
10358W        W26832   7.982   3.295  11.522  0.3097 -0.2830 -0.2517
10359W        W26833  10.338  15.460  14.205  0.0247  0.1720  0.1759
10360W        W26834   5.022  11.039   5.700 -0.0494  0.0653  0.1176
10361W        W26835   7.243   1.263  10.737 -0.0337 -0.2008 -0.1634
10362W        W26836  15.536   6.760   4.721  0.1342 -0.2008 -0.0350
10363W        W26837  11.429   6.519   0.324 -0.3239  0.0848  0.2167
10364W        W26838   6.553  10.929  12.136 -0.0339  0.0968  0.2016
10365W        W26839  11.126   9.451   0.856  0.2176  0.0455  0.1213
10366W        W26840   6.254  16.118   4.516  0.0536  0.1486 -0.0655
10367W        W26841  11.669   5.781   1.853  0.1367  0.2272 -0.0199
10368W        W26842  13.662   8.778  16.095 -0.1640  0.1536 -0.2717
10369W        W26843  15.253   3.606   2.630  0.0708 -0.2509 -0.0123
10370W        W26844   6.905  12.686  12.950 -0.0644  0.1593  0.2179
10371W        W26845  11.152  15.895  12.177  0.1324  0.0756  0.0072
10372W        W26846   0.158   0.853  13.171 -0.1091  0.1431 -0.1741
10373W        W26847   8.220  17.983   0.591  0.0768  0.2371 -0.1142
10374W        W26848   4.731   0.310  11.943 -0.1193  0.1611  0.3060
10375W        W26849   6.178   3.769  12.871 -0.0469  0.3878  0.0768
10376W        W26850  17.834   0.620   5.765  0.1555  0.1794 -0.2030
10377W        W26851  10.973  10.327   3.821  0.2649 -0.1247 -0.3347
10378W        W26852   7.782   6.631   2.451  0.1260 -0.2567 -0.0628
10379W        W26853   5.069   7.170   4.866  0.1857 -0.1994  0.4001
10380W        W26854  13.574  12.509  16.736  0.1642  0.2490  0.2541
10381W        W26855  12.716   1.106   4.857  0.2179 -0.3514 -0.1432
10382W        W26856  15.215   4.319   2.899  0.4587 -0.1346  0.1134
10383W        W26857   1.803  13.236  11.855 -0.3274 -0.1538  0.2529
10384W        W26858   5.475  12.473   0.967 -0.3067 -0.0980 -0.1538
10385W        W26859   8.247   4.298  15.098  0.1684  0.1668  0.0479
10386W        W26860   3.433   1.227  11.410 -0.0395 -0.2223 -0.0353
10387W        W26861   0.139  11.421  14.852  0.2680  0.0236  0.1384
10388W        W26862   0.308   2.560   6.315  0.0277  0.0035  0.1145
10389W        W26863  10.740   2.926  16.613  0.0710 -0.0865 -0.1729
10390W        W26864   0.410   0.565   2.557 -0.2113 -0.1793 -0.1087
10391W        W26865   1.219   8.904  12.688 -0.0116  0.0439 -0.1193
10392W        W26866   1.853  11.010   3.797  0.2585  0.0493  0.1459
10393W        W26867   4.458  17.201   2.643  0.1278 -0.2316  0.1318
10394W        W26868   8.493  13.292   3.854  0.1317 -0.1705 -0.0271
10395W        W26869  17.087  10.024  13.395 -0.0881 -0.1296 -0.2610
10396W        W26870   9.229  12.978   2.633 -0.0822 -0.0968  0.1437
10397W        W26871   3.682  16.740   0.506  0.3914 -0.2208  0.1728
10398W        W26872  15.119   6.838  15.251 -0.0268  0.0354  0.1066
10399W        W26873   1.668   6.468   2.869 -0.0134 -0.2115  0.0527
10400W        W26874   8.003   4.465  11.540 -0.0653 -0.1383  0.0387
10401W        W26875  11.467   2.816  11.743 -0.0535 -0.2538  0.2237
10402W        W26876   0.442   4.518  14.236 -0.3562 -0.1070  0.2531
10403W        W26877   3.777  16.332  15.165 -0.3972  0.1879  0.0887
10404W        W26878  15.688   4.070   0.974 -0.1014 -0.1288  0.0645
10405W        W26879   0.111   4.901   1.363  0.0100 -0.0726 -0.0470
10406W        W26880  14.228   6.991   4.322  0.0736 -0.0180 -0.5035
10407W        W26881  12.709   0.151  14.241 -0.0041  0.0023 -0.0492
10408W        W26882  12.453  13.841   4.441 -0.1928 -0.2309  0.0065
10409W        W26883  12.114   9.522  13.720  0.0921 -0.0073 -0.1143
10410W        W26884  16.426   3.518  12.717 -0.0565  0.1630 -0.0685
10411W        W26885   3.614   2.529  10.486 -0.1044  0.1416  0.0905
10412W        W26886  15.077   6.599  15.763 -0.1729 -0.1066 -0.2173
10413W        W26887  10.141   5.570  15.170  0.1662 -0.2393  0.1364
10414W        W26888  16.765   7.610   2.714  0.3147  0.1897  0.0118
10415W        W26889  12.129   4.450   4.900  0.1647  0.2518 -0.0984
10416W        W26890  17.593  11.142  11.591 -0.0894 -0.1428 -0.3765
10417W        W26891   2.551  16.119  12.356  0.0678  0.1400 -0.1399
10418W        W26892  11.841   2.447  15.550 -0.0176  0.2103 -0.0296
10419W        W26893  14.708  16.887   3.842  0.0477 -0.1535  0.0189
10420W        W26894  13.132  14.515   3.892 -0.1578 -0.2461 -0.0902
10421W        W26895   3.238   4.492  16.437 -0.0553  0.1090  0.1397
10422W        W26896  14.562   1.585   6.304  0.0269  0.2026  0.1337
10423W        W26897   7.005  16.344  15.742 -0.0502 -0.2249 -0.0571
10424W        W26898   6.173  11.280  12.092 -0.2158 -0.1602 -0.0363
10425W        W26899   7.537   8.767  16.422  0.4599 -0.1618  0.2438
10426W        W26900   3.638  10.424  14.772 -0.0592  0.0958 -0.2472
10427W        W26901   2.997   3.573  12.977  0.1293 -0.1472 -0.0050
10428W        W26902   5.280   9.872   5.234  0.0355 -0.2732  0.1785
10429W        W26903  11.783   6.156  12.675 -0.1185 -0.0125  0.1861
10430W        W26904   1.911   2.141  16.213 -0.1848  0.1577 -0.2132
10431W        W26905  13.645  13.450   4.757 -0.1766 -0.0049 -0.0933
10432W        W26906   7.005  16.519   4.001 -0.0225 -0.0251 -0.0314
10433W        W26907  14.362  12.396   1.185 -0.2228  0.1651 -0.0999
10434W        W26908   3.515   9.579   4.807 -0.0248 -0.1159 -0.2787
10435W        W26909  10.797  11.947   2.058  0.1744  0.1575  0.2127
10436W        W26910   0.020  13.883   1.818 -0.1199  0.0564 -0.5584
10437W        W26911  10.489  15.784  12.726  0.2270  0.3155 -0.0971
10438W        W26912   0.972   6.063   5.519 -0.2884 -0.1699  0.0504
10439W        W26913   1.803  17.962  15.487  0.0836 -0.1097 -0.0523
10440W        W26914   2.593  10.573  12.329  0.1979 -0.0125 -0.2812
10441W        W26915   1.906  14.527  13.906  0.0908 -0.0428  0.0118
10442W        W26916  17.368  12.070   2.629  0.0276  0.2130 -0.0402
10443W        W26917   7.273  16.866  14.612 -0.2419  0.2180 -0.0464
10444W        W26918   2.370  12.069   1.713 -0.2915 -0.0101  0.0257
10445W        W26919   3.347  16.954   0.828  0.1759  0.1008 -0.1053
10446W        W26920   1.809   6.507   1.760  0.2379  0.0391 -0.0720
10447W        W26921   1.521   1.603   1.432  0.2404  0.0117 -0.0594
10448W        W26922   8.772   3.313   2.496  0.0118 -0.1907  0.0219
10449W        W26923   5.432   9.535   3.809  0.2278  0.1398 -0.3197
10450W        W26924  15.245   5.325  14.909  0.1900 -0.0706  0.2335
10451W        W26925  12.685   0.577  12.144 -0.3105  0.3696 -0.4469
10452W        W26926   2.917  10.127  12.128  0.2749  0.0435  0.3243
10453W        W26927  16.344  11.220  14.441  0.3271  0.0137  0.1554
10454W        W26928   2.691  11.484  14.048 -0.4514 -0.3832 -0.1393
10455W        W26929  11.506  13.810  15.141  0.1819  0.2946 -0.1849
10456W        W26930  10.230   2.145   0.644 -0.1278 -0.0618  0.0435
10457W        W26931   3.954  11.237   0.915  0.1557 -0.0834 -0.1614
10458W        W26932   3.616  13.254   0.980  0.1027  0.0112  0.1511
10459W        W26933   5.577  14.204  16.513 -0.0466 -0.1269 -0.2315
10460W        W26934  13.369  10.083   1.605 -0.0352  0.1332 -0.0378
10461W        W26935  16.629   9.547   3.994 -0.0897 -0.0379 -0.3536
10462W        W26936  10.583   0.309  13.792 -0.1027 -0.2953  0.1398
10463W        W26937  15.678  15.999   4.025  0.0703 -0.1098  0.0935
10464W        W26938   9.623   1.471   0.482  0.2188 -0.1315 -0.1819
10465W        W26939  14.100   3.382  12.449 -0.2040 -0.2333 -0.0990
10466W        W26940   0.277  15.925   3.869  0.0992 -0.2937  0.1100
10467W        W26941   2.003  10.619   4.298  0.1557  0.2211  0.0539
10468W        W26942   7.534   9.459   2.200 -0.2286 -0.0352  0.0399
10469W        W26943  15.982   7.998   0.120 -0.3530 -0.0716  0.3031
10470W        W26944   4.717   3.934  13.287  0.2342 -0.0634  0.1567
10471W        W26945   6.021  15.491   3.380 -0.0701  0.5602  0.0782
10472W        W26946  17.694   3.902   5.034 -0.1400  0.0468 -0.3216
10473W        W26947  11.819   1.177  14.598 -0.0998  0.1201 -0.1768
10474W        W26948  13.381  12.324   0.475 -0.1647 -0.0089  0.1212
10475W        W26949  15.030   1.476   0.376 -0.0585 -0.0077  0.0168
10476W        W26950   7.862  11.981  16.137 -0.1729 -0.1278 -0.1631
10477W        W26951   4.618   0.905   0.667  0.0161  0.1375 -0.0977
10478W        W26952  16.437   1.305   5.411 -0.0718 -0.0729  0.1338
10479W        W26953   3.555  17.454  13.635  0.0609 -0.0591  0.2876
10480W        W26954   5.101   6.456  11.890 -0.1157 -0.0383 -0.0134
10481W        W26955  11.794  10.309   4.989 -0.1950  0.2378 -0.0928
10482W        W26956  17.032  13.593  14.992 -0.1082  0.0221 -0.0483
10483W        W26957  15.060  15.725   2.644  0.0995  0.3630  0.2241
10484W        W26958   0.523   8.127   1.282 -0.2388  0.0871 -0.1593
10485W        W26959  17.915   4.502  15.686 -0.1296 -0.2152 -0.0255
10486W        W26960  16.303   2.196   4.968  0.3152 -0.0375 -0.0836
10487W        W26961   4.612   4.182  12.032  0.1261 -0.0633 -0.3395
10488W        W26962  17.098  15.840  12.172 -0.0518  0.0831 -0.3747
10489W        W26963  13.616   5.028  11.656 -0.0121 -0.2624  0.0684
10490W        W26964  13.828   0.286   2.932  0.2135 -0.1249  0.1330
10491W        W26965   2.652  17.847   3.285 -0.3156  0.0747 -0.0750
10492W        W26966   5.004   5.022   4.893  0.0636  0.0559 -0.1709
10493W        W26967   7.280  13.231   4.706  0.2761  0.0491 -0.0918
10494W        W26968  10.664  13.409  10.785  0.0530 -0.1439 -0.3013
10495W        W26969  11.305   7.720   5.406 -0.1713 -0.0256 -0.2566
10496W        W26970   2.657  12.867   2.933 -0.4677 -0.0303  0.0753
10497W        W26971  14.440  17.037  16.401  0.3868  0.0025 -0.1968
10498W        W26972  11.462  13.247   2.044  0.0091 -0.0606 -0.0922
10499W        W26973   7.760   0.123  13.582 -0.0026 -0.0031  0.1244
10500W        W26974  15.998   2.233   2.736  0.0690 -0.0190  0.2507
10501W        W26975   1.353   4.299   0.474  0.3016  0.2649  0.1656
10502W        W26976  17.760   9.672   4.281 -0.1706 -0.0569 -0.2185
10503W        W26977  11.673  13.184  14.881  0.1745 -0.2989 -0.1721
10504W        W26978   2.088   4.417  15.052  0.0939  0.2352  0.3077
10505W        W26979   7.018   0.148  14.450  0.3565  0.2552 -0.0027
10506W        W26980  16.549  14.502  14.755  0.3613 -0.5546 -0.1947
10507W        W26981   2.737   7.485   1.028  0.0595 -0.0297  0.1411
10508W        W26982   7.507  11.746   0.442 -0.2966 -0.2157 -0.0308
10509W        W26983   3.902   9.943   1.043  0.2115 -0.2277  0.0865
10510W        W26984  13.648  17.084   2.669  0.0879 -0.1160  0.3948
10511W        W26985  11.719   6.233   1.069  0.0891  0.1570  0.4276
10512W        W26986   2.595   0.380  14.187 -0.1159 -0.2981 -0.0883
10513W        W26987   8.833  13.696  15.742 -0.0605  0.1112 -0.0434
10514W        W26988   0.089   8.161   0.356 -0.2814  0.2902  0.1313
10515W        W26989  15.468  14.372  13.827 -0.1316  0.0525  0.1580
10516W        W26990   3.560  14.602  12.070  0.0005  0.3272 -0.0522
10517W        W26991   8.235  10.222   2.799 -0.1855 -0.0575  0.0066
10518W        W26992  16.083  15.820  14.205  0.1085 -0.3234  0.0006
10519W        W26993   8.583   3.274  13.256  0.1611  0.2167  0.0940
10520W        W26994  13.867   9.327   3.470 -0.1851  0.0417  0.1196
10521W        W26995  12.239  10.683   1.590  0.1591  0.0304  0.1411
10522W        W26996  13.521   6.596   4.594  0.5209  0.1701  0.2411
10523W        W26997   7.443   2.267   3.976  0.0860  0.0476 -0.1149
10524W        W26998  11.001  17.396   1.757  0.0829  0.1163  0.0797
10525W        W26999  12.800  11.153   3.752  0.1777 -0.0073 -0.2164
10526W        W27000   3.164  10.283  11.156 -0.0927  0.1078  0.0661
10527W        W27001   6.840  17.425  13.278 -0.0778  0.1409  0.2319
10528W        W27002  17.934   6.100  16.705 -0.2391  0.0245 -0.4149
10529W        W27003   1.302   4.861  12.074  0.2927 -0.1574 -0.2524
10530W        W27004   1.646  17.648   2.709 -0.3768 -0.0263  0.0758
10531W        W27005   2.096  13.808  11.832 -0.1427  0.1171 -0.3160
10532W        W27006   4.885  16.653  12.405 -0.0968 -0.2440  0.3321
10533W        W27007   0.606   0.473  11.766 -0.0456  0.2724  0.3210
10534W        W27008   3.724   5.122  16.332  0.1980 -0.0759  0.1960
10535W        W27009  15.188   7.705  13.568 -0.2893  0.0153 -0.0333
10536W        W27010   8.055   7.598   4.237  0.4492 -0.3283  0.2857
10537W        W27011   1.660  15.343  11.980 -0.1503  0.0195  0.0116
10538W        W27012  12.081   1.174  11.420  0.1679  0.0806 -0.0656
10539W        W27013   2.551   8.806   5.873 -0.0687 -0.2853  0.0784
10540W        W27014   4.290   7.808   0.144 -0.2813 -0.1070  0.0616
10541W        W27015  16.931  15.667   1.468 -0.3714  0.2507  0.1849
10542W        W27016   6.724  10.811   5.381  0.0891 -0.1355 -0.1635
10543W        W27017   7.156  16.454   6.036  0.1004  0.0161 -0.0717
10544W        W27018   6.898   6.153   3.324 -0.2140 -0.0534  0.1242
10545W        W27019   6.044  12.291  15.210 -0.0824 -0.0022  0.0697
10546W        W27020  12.384  15.039  16.502  0.1918  0.3192  0.0798
10547W        W27021  14.865   6.277  14.734 -0.0256 -0.0838 -0.1162
10548W        W27022  15.320  17.838   4.813 -0.0014 -0.2693 -0.1398
10549W        W27023  10.561   0.902  16.123  0.0027  0.1356 -0.1678
10550W        W27024   0.417  13.903  13.644  0.4547 -0.1017 -0.1369
10551W        W27025   4.998   3.557   3.403 -0.0610 -0.1162 -0.0148
10552W        W27026   8.657   4.018   5.052 -0.0390 -0.0500 -0.2857
10553W        W27027   0.755   4.371  13.755 -0.2052 -0.3290  0.1253
10554W        W27028  12.133  15.105  13.284 -0.0620  0.0126  0.0974
10555W        W27029   3.314   6.637   1.243  0.0760 -0.1130  0.2477
10556W        W27030   0.002  11.061  14.525 -0.0975 -0.0641  0.0500
10557W        W27031  10.712  11.694   4.848  0.1144  0.2919  0.0439
10558W        W27032  13.831   7.029  15.834  0.2672 -0.0243  0.1722
10559W        W27033  14.134   2.894  14.792  0.2828 -0.3414  0.0753
10560W        W27034  13.395   6.911  12.373 -0.0721 -0.0218 -0.1536
10561W        W27035  15.568  17.432   0.016 -0.2013  0.0983  0.3430
10562W        W27036   2.489   4.176  11.199 -0.2440 -0.0585  0.1791
10563W        W27037  10.704   8.971  16.429 -0.0566  0.0163  0.0677
10564W        W27038   9.992   1.435   5.455 -0.2502  0.3467 -0.0110
10565W        W27039  16.898   0.663   0.657  0.1552  0.1031 -0.0908
10566W        W27040  17.250  16.110   6.015  0.2697 -0.2564  0.1149
10567W        W27041  17.874   0.497  11.899  0.1247  0.0330  0.3564
10568W        W27042   8.598   7.744   1.010  0.0598  0.0430 -0.2201
10569W        W27043  14.952   8.150   0.525  0.3244 -0.0600 -0.0395
10570W        W27044   4.582   3.674  15.466 -0.0272 -0.2789  0.1540
10571W        W27045   4.754   2.331   3.158  0.1011  0.1319 -0.2879
10572W        W27046  17.360  10.169  13.938 -0.2780  0.0978  0.3294
10573W        W27047   8.002  12.009  12.913 -0.4141  0.0779  0.2167
10574W        W27048   5.505  15.755  12.901  0.1634  0.1897 -0.1354
10575W        W27049  14.963   4.021   3.355 -0.0965  0.0608  0.1037
10576W        W27050   7.540   3.019  12.031  0.1110 -0.1394 -0.1107
10577W        W27051   7.805  15.267   4.487 -0.0673  0.0609 -0.0738
10578W        W27052  13.215   4.884   3.943 -0.1877 -0.0730 -0.0197
10579W        W27053   3.837   6.674   3.992 -0.1228 -0.2614  0.0771
10580W        W27054   3.107   0.857  14.849 -0.0100  0.3493 -0.1234
10581W        W27055  15.197   8.616  12.233  0.3163  0.1307 -0.2097
10582W        W27056   1.657   4.260  16.311 -0.2366  0.2093  0.4840
10583W        W27057  12.194  14.789  12.912  0.1680 -0.1013  0.1054
10584W        W27058   0.317  15.188  15.707 -0.2510  0.2920  0.3718
10585W        W27059   4.989   3.830  14.051 -0.0460 -0.1614 -0.0519
10586W        W27060  12.626   5.975   5.515 -0.2249  0.2381  0.0930
10587W        W27061   6.131   5.629   6.208  0.0553 -0.0357  0.2570
10588W        W27062  17.051  11.899  14.022 -0.4112 -0.0938  0.1419
10589W        W27063   9.939  10.261   3.412  0.0854 -0.1029  0.1078
10590W        W27064  17.519   7.835  13.910 -0.1244 -0.1295  0.0490
10591W        W27065   8.372  10.412  14.737 -0.1393 -0.1425  0.1838
10592W        W27066  14.760   6.246   1.161  0.2794  0.3078 -0.1218
10593W        W27067   6.419   0.616   4.325 -0.0202 -0.0707  0.2883
10594W        W27068   3.695   1.498  13.646 -0.1936  0.0133 -0.0553
10595W        W27069   8.622  15.662  16.159  0.2247 -0.1892  0.1774
10596W        W27070  15.000   3.352   4.915  0.2851 -0.5285 -0.1300
10597W        W27071  12.255   7.640  14.417  0.2459 -0.0928  0.1479
10598W        W27072  14.809   0.552   1.678 -0.0844  0.0167 -0.0442
10599W        W27073  11.707  13.354  15.944  0.1631 -0.0565 -0.0773
10600W        W27074  16.012   6.370   4.262 -0.1253  0.0059 -0.0774
10601W        W27075   8.270  16.009  11.440 -0.0305  0.2013  0.3180
10602W        W27076   0.714   7.869  15.606  0.0149 -0.1213 -0.1213
10603W        W27077  17.488  16.276   2.734 -0.1636  0.0807 -0.0288
10604W        W27078  13.148  17.812  12.012  0.0787 -0.0256 -0.1101
10605W        W27079   6.549   8.537  12.129  0.2362 -0.2446  0.1875
10606W        W27080  11.885   7.010  12.588 -0.0814  0.1971  0.0115
10607W        W27081   2.634   0.795  14.463 -0.0685 -0.2531  0.1443
10608W        W27082  14.618  12.596  14.217  0.0988  0.1766  0.4195
10609W        W27083   1.870  10.211   3.236 -0.1493  0.0835 -0.0468
10610W        W27084  15.616   5.827  16.133  0.2168 -0.0074 -0.0608
10611W        W27085   1.557   0.167   0.189 -0.0155  0.1715  0.0671
10612W        W27086  13.451  14.804   1.648 -0.1038 -0.1679  0.1006
10613W        W27087   8.769   0.191  16.675 -0.0570 -0.4215  0.1309
10614W        W27088   4.340   6.028   0.704 -0.0542 -0.2803  0.2129
10615W        W27089  16.511   8.276  15.967 -0.1301  0.0692 -0.0986
10616W        W27090  17.360   6.760  12.811 -0.2637 -0.0722 -0.0041
10617W        W27091   2.624  13.929   0.060 -0.0078 -0.1981  0.0363
10618W        W27092  10.935   0.592  16.096 -0.1014 -0.2376  0.0277
10619W        W27093  15.057  16.221   4.777 -0.0910 -0.2118 -0.1546
10620W        W27094   0.252   8.331   3.016  0.0605  0.2863  0.0120
10621W        W27095   5.861  14.938  15.528  0.3355  0.0084  0.1710
10622W        W27096   8.046  10.218   4.089 -0.1945  0.3537 -0.2929
10623W        W27097  14.178   5.080  15.602 -0.1964 -0.3441 -0.2641
10624W        W27098  15.157  15.658  15.237 -0.1222  0.0660 -0.1480
10625W        W27099  15.626  17.831   0.804  0.0054  0.3563  0.0368
10626W        W27100   4.119  12.404  13.387  0.0120  0.4501  0.0900
10627W        W27101  17.862   3.360  11.683  0.1715 -0.0807 -0.2735
10628W        W27102   5.503   7.875   2.815  0.0985 -0.3099  0.0075
10629W        W27103   1.941   9.095  14.416  0.2562  0.1563 -0.1690
10630W        W27104  11.498   9.274  11.520 -0.0158  0.0631  0.2580
10631W        W27105   2.699   8.960   5.381  0.1544 -0.3300 -0.1378
10632W        W27106  10.994   3.063  13.770 -0.1414  0.0306 -0.3469
10633W        W27107  14.263   5.267   0.410  0.0926  0.2941  0.0815
10634W        W27108  11.044   2.569  14.306  0.2574 -0.0844 -0.0724
10635W        W27109  15.255   4.117  13.854 -0.0386  0.4140  0.0980
10636W        W27110  11.393   3.142  12.309 -0.0135 -0.0412  0.0654
10637W        W27111  13.404  13.002   4.874  0.0344 -0.2316 -0.3146
10638W        W27112  14.059   0.767   2.640  0.1344 -0.2916  0.0544
10639W        W27113   6.701   6.875   0.069  0.0059 -0.0575 -0.0070
10640W        W27114   4.474   1.655   2.188  0.0204  0.1289 -0.0141
10641W        W27115  12.090   4.786   2.262 -0.0746  0.2298 -0.0446
10642W        W27116   3.871  14.036   1.194 -0.1431 -0.1135 -0.1905
10643W        W27117  17.478  17.490  13.372  0.4458  0.0225 -0.4052
10644W        W27118  16.686   1.088  14.831 -0.3378  0.0083  0.0594
10645W        W27119   0.011   0.491   1.534 -0.2719  0.0641  0.1519
10646W        W27120   3.972   9.528  14.991  0.4153 -0.1550 -0.0468
10647W        W27121  11.562  11.540   3.016  0.0064  0.1394 -0.3397
10648W        W27122   1.528   2.771   3.296 -0.0796  0.0342 -0.0565
10649W        W27123   0.294   7.335   0.234  0.0164  0.2116  0.4065
10650W        W27124   8.373  11.289   2.336  0.3775  0.1566  0.1606
10651W        W27125  12.464   8.320   1.820  0.1642 -0.1124 -0.2646
10652W        W27126   6.855   3.844   0.304  0.0604 -0.1111  0.1763
10653W        W27127   2.300   8.544   2.410  0.1095  0.0174 -0.0718
10654W        W27128   3.305   2.884   0.327  0.1024  0.1463  0.4731
10655W        W27129  13.072   3.659   0.989  0.4268 -0.0144 -0.0872
10656W        W27130  10.487  12.817   5.370  0.2110  0.2781 -0.2453
10657W        W27131   3.081   3.247   3.970  0.1949 -0.2306 -0.1118
10658W        W27132   0.496  13.526   0.574  0.1223  0.1182  0.1405
10659W        W27133   6.171   6.661  16.479 -0.0412  0.2026  0.1107
10660W        W27134  15.704   9.480  13.156  0.0818 -0.0046 -0.0696
10661W        W27135  14.502   7.086   3.666 -0.0082  0.2012  0.0708
10662W        W27136  14.791  14.275   4.335 -0.0232  0.2638 -0.0824
10663W        W27137   6.657  10.300   6.321 -0.1848  0.0481 -0.1665
10664W        W27138  12.236  12.923   0.497 -0.0049 -0.2476 -0.2690
10665W        W27139  17.793   5.972   0.408  0.0708  0.1425 -0.1979
10666W        W27140   0.254   7.796   5.190 -0.0570 -0.2380 -0.1596
10667W        W27141   1.728  16.091  14.943 -0.1096  0.2319  0.2531
10668W        W27142  16.448   8.556  16.405  0.2945  0.0232  0.2765
10669W        W27143   3.494   1.215   1.352  0.3723 -0.0115 -0.0067
10670W        W27144  14.123  13.217   2.050 -0.0058  0.0523 -0.0308
10671W        W27145  10.277   7.492  12.041  0.0302 -0.2698 -0.0070
10672W        W27146   2.733   7.270  11.429  0.0183 -0.0656 -0.1182
10673W        W27147  10.268   4.940   4.530 -0.0353  0.0485 -0.2474
10674W        W27148   9.806   2.614  12.437 -0.2295  0.1919 -0.0922
10675W        W27149  13.832   3.963   1.300  0.0169 -0.0842 -0.1762
10676W        W27150   0.193   0.785   4.521 -0.3263 -0.0433 -0.0655
10677W        W27151   1.538   8.658   4.258 -0.1845  0.1461 -0.0989
10678W        W27152   3.906  17.960   1.323 -0.1508  0.0761 -0.0009
10679W        W27153   0.191   3.946   2.541 -0.1440  0.3450 -0.0580
10680W        W27154   6.266  16.257   0.842 -0.0976  0.3803 -0.0045
10681W        W27155  15.308  13.676   2.708 -0.0606  0.0170  0.1308
10682W        W27156   5.988  16.820   4.448  0.0438 -0.3901  0.2677
10683W        W27157   0.373   1.001  16.018 -0.0924 -0.2561  0.0194
10684W        W27158  16.404  12.321   0.114  0.0569 -0.2583 -0.1586
10685W        W27159  10.006   1.527   1.234  0.1714  0.0811  0.0067
10686W        W27160  10.340   8.042  12.693 -0.1608  0.1338  0.3798
10687W        W27161   0.946  10.513   5.323  0.0008  0.0203 -0.1902
10688W        W27162   7.487   7.650   4.486  0.2765  0.0636  0.3462
10689W        W27163   2.033   7.434  14.486  0.0694  0.1080 -0.0381
10690W        W27164   1.261   4.253  12.533  0.0950  0.2520  0.2287
10691W        W27165   0.145  12.178  13.301 -0.1834  0.1637  0.4129
10692W        W27166  13.667   0.497   0.668  0.3644 -0.2408  0.0274
10693W        W27167   4.711   8.648  10.828 -0.2727  0.2460 -0.2365
10694W        W27168  10.865   2.098   3.369 -0.1043 -0.2374 -0.2044
10695W        W27169  12.783   7.693  12.386  0.3874  0.0478  0.0995
10696W        W27170  12.767  15.662  15.974  0.0073 -0.0621 -0.0030
10697W        W27171   3.291  13.443  15.279  0.2515 -0.0028 -0.2096
10698W        W27172   3.885   0.979  13.569 -0.1870 -0.0235 -0.0045
10699W        W27173  17.104  14.689   1.380 -0.0274  0.1421 -0.1079
10700W        W27174   0.711  16.176   0.753 -0.0879  0.0311  0.3656
10701W        W27175   8.266   6.620   2.236  0.1184 -0.0806  0.1314
10702W        W27176  10.464  16.121  14.656 -0.3858  0.1116  0.0003
10703W        W27177   7.530  12.978  12.008  0.0915 -0.0552 -0.1477
10704W        W27178  11.611   9.862   4.566  0.1427  0.0303 -0.1646
10705W        W27179  12.719   2.212   1.879  0.0314  0.1223  0.0745
10706W        W27180   4.470   7.981  12.411 -0.0735  0.1948 -0.0464
10707W        W27181   2.809  11.238  16.483 -0.2990 -0.2600  0.0923
10708W        W27182   0.192   9.181  14.398  0.4777  0.0925  0.0582
10709W        W27183   4.430  11.921  13.464  0.0222 -0.0976  0.0368
10710W        W27184  13.315   4.304  16.568  0.0091  0.0720  0.1734
10711W        W27185   9.786   5.757  16.076  0.1566  0.1090 -0.0732
10712W        W27186   8.794  15.827  13.512 -0.2544 -0.0796  0.0262
10713W        W27187  12.233   9.194   5.322  0.1352  0.1506  0.2074
10714W        W27188  17.998   0.305   2.402 -0.2241  0.2114 -0.2709
10715W        W27189  13.795   7.724  12.102 -0.0825  0.2099  0.1121
10716W        W27190   7.006   8.858  16.623  0.2472 -0.0524  0.1291
10717W        W27191  16.611   0.247   1.697 -0.2687 -0.0398  0.1048
10718W        W27192   5.651   1.140  13.907 -0.2831  0.2611 -0.3659
10719W        W27193   5.515  17.193   3.926 -0.1130  0.1391  0.0264
10720W        W27194   8.290  16.878  15.420 -0.1293 -0.1351 -0.2405
10721W        W27195  10.335  10.939   3.644  0.1255 -0.2175  0.1613
10722W        W27196   7.198  13.216   0.308  0.1491 -0.0493 -0.1544
10723W        W27197  10.295  10.708  15.093 -0.2330  0.0304  0.2604
10724W        W27198   5.531  16.769  11.444 -0.0484  0.0668 -0.1294
10725W        W27199   2.389   0.696  12.859  0.1074 -0.1581  0.0842
10726W        W27200   2.382  17.375   0.689 -0.0559 -0.1281 -0.2922
10727W        W27201   6.719   1.867  15.139 -0.2827 -0.0993 -0.0570
10728W        W27202  17.199   0.526  15.258 -0.2809  0.0659 -0.3850
10729W        W27203   2.100  13.744   3.075 -0.1118  0.0307  0.1228
10730W        W27204   0.413   0.173  12.631 -0.0095  0.0123  0.1352
10731W        W27205  12.837  12.750  16.053  0.1375 -0.1877  0.1604
10732W        W27206   3.545   7.691   1.939  0.0398 -0.2343 -0.1585
10733W        W27207   8.197   2.990  15.511  0.0476  0.0703 -0.2330
10734W        W27208   6.874   0.991  10.632 -0.0664 -0.0121 -0.1433
10735W        W27209   0.805  15.926  15.255 -0.1524 -0.3050 -0.2207
10736W        W27210  14.096   0.127  12.622  0.0908 -0.2586 -0.0539
10737W        W27211   1.271   1.979  14.764  0.1116 -0.0495  0.1699
10738W        W27212   5.073  16.478  14.638 -0.1250 -0.0312  0.0528
10739W        W27213   6.023   4.886   3.988 -0.3480 -0.2057 -0.3579
10740W        W27214  10.138  10.709   2.508 -0.2414  0.1186 -0.0031
10741W        W27215   8.518   0.744  12.252  0.0010 -0.3227 -0.1332
10742W        W27216  16.407  14.597  13.693 -0.1775 -0.0129 -0.1304
10743W        W27217   5.895   7.981  11.681  0.1768 -0.1367 -0.1921
10744W        W27218  10.401   9.462  14.546  0.1332 -0.0430  0.1590
10745W        W27219   1.148  10.902  16.697  0.0153  0.0707  0.1534
10746W        W27220  12.411   8.876  16.642  0.0260 -0.1615 -0.0174
10747W        W27221   5.718  11.310  14.209 -0.2303 -0.1608  0.0590
10748W        W27222  11.239   4.070   3.980 -0.2064 -0.3340  0.0401
10749W        W27223  13.257   5.140   0.366 -0.1521 -0.0092  0.0280
10750W        W27224   6.494  15.806   4.157 -0.1971 -0.3157 -0.2186
10751W        W27225   0.387  10.382   4.147 -0.0527 -0.1005 -0.0041
10752W        W27226   8.041  14.864   4.728 -0.0263  0.0467 -0.0334
10753W        W27227   4.869  17.452  12.008 -0.0872 -0.0059 -0.1126
10754W        W27228   0.418  11.241   2.549  0.1591 -0.1834 -0.1071
10755W        W27229  12.764   2.903  15.394  0.1322  0.0606 -0.0749
10756W        W27230   5.102   0.902   4.059 -0.2120 -0.3296 -0.0501
10757W        W27231  11.965  14.503   5.535 -0.0195  0.1781 -0.0534
10758W        W27232  16.196   5.269   3.077  0.1447 -0.3761  0.0049
10759W        W27233  13.958  16.640   4.500 -0.4029  0.2060  0.2125
10760W        W27234  14.997   5.581  13.479  0.0865 -0.0890  0.0549
10761W        W27235  14.958   8.849  16.576 -0.0137 -0.2186  0.0915
10762W        W27236   0.903   0.440   1.713 -0.1802 -0.0004 -0.1219
10763W        W27237   5.657   2.136   5.228  0.1536 -0.1971  0.0870
10764W        W27238   3.999   7.181  14.087 -0.2616  0.1031  0.1895
10765W        W27239   6.651   0.276   2.471  0.1377  0.0021  0.1766
10766W        W27240  14.645  14.116   2.263 -0.0483  0.0537  0.0756
10767W        W27241  13.283   3.913   6.218 -0.1520  0.1880 -0.3708
10768W        W27242  13.245  13.020  15.622 -0.0465  0.0146 -0.0309
10769W        W27243   2.357  15.256   5.647  0.1186  0.3517  0.0395
10770W        W27244   6.811  11.179   2.078 -0.0060  0.0288  0.0019
10771W        W27245   3.576  13.896  11.394  0.0275  0.1651  0.3293
10772W        W27246  16.759  14.847  13.137  0.0067  0.1652 -0.1175
10773W        W27247   9.213   8.226   3.603  0.3056 -0.1860  0.3153
10774W        W27248  15.293  17.134   0.832 -0.1725  0.1286 -0.0976
10775W        W27249  13.020  14.019   3.691 -0.0183  0.0627 -0.0611
10776W        W27250  14.248  10.617  13.044  0.1146 -0.0435 -0.1012
10777W        W27251   2.009   1.337  12.341  0.0001 -0.1018  0.0980
10778W        W27252   9.076   2.799   2.357  0.1471  0.0048 -0.0879
10779W        W27253  13.741  14.059  11.710  0.1595 -0.1164 -0.2511
10780W        W27254   0.611   8.785  15.786  0.0043  0.0164 -0.0541
10781W        W27255   1.009   1.933  11.778 -0.0257 -0.0984  0.1498
10782W        W27256   2.523  12.676   1.503 -0.0289 -0.2770 -0.2679
10783W        W27257   8.654   1.179   4.315  0.1191  0.1228 -0.3864
10784W        W27258  14.805  10.611   6.023 -0.0670 -0.0803  0.1779
10785W        W27259   7.871  13.008  11.662 -0.0454  0.0906  0.0042
10786W        W27260  12.770   6.487   5.485 -0.1644 -0.4670 -0.0238
10787W        W27261   6.314  13.251   1.743 -0.0316  0.1839  0.1344
10788W        W27262  10.288  17.820   0.802 -0.2178  0.3629 -0.0436
10789W        W27263  11.801  17.526  14.700 -0.0644  0.2188 -0.0368
10790W        W27264   9.596   6.880   4.181 -0.0806  0.2842 -0.2969
10791W        W27265  14.643   6.382  12.051 -0.2749  0.1627 -0.0359
10792W        W27266   8.278  12.231  15.886 -0.0710 -0.0204 -0.1069
10793W        W27267   3.178   8.694  16.090 -0.2421 -0.2976  0.0318
10794W        W27268  16.486   1.446  16.607  0.0675 -0.3328 -0.1222
10795W        W27269   2.905   9.659  16.051  0.0258 -0.3290  0.2144
10796W        W27270   1.752   9.558  14.760 -0.0565  0.0978  0.0796
10797W        W27271   2.790   8.139  12.385 -0.2447 -0.2952  0.0583
10798W        W27272  13.468   2.252   5.366 -0.0042  0.2035  0.1154
10799W        W27273   9.761   2.974  12.057 -0.3084  0.0126  0.0161
10800W        W27274   4.428  15.018   3.495  0.1720  0.1056  0.1704
10801W        W27275  13.989   1.500  15.152  0.1332 -0.3219 -0.0003
10802W        W27276  17.049  15.670  11.694  0.0459  0.1409 -0.0186
10803W        W27277  10.132   3.772  15.850  0.0166  0.1700 -0.2443
10804W        W27278  14.973  14.751   4.448  0.0507 -0.0801  0.0619
10805W        W27279  11.112   7.603  15.310 -0.2168  0.2165 -0.0257
10806W        W27280   4.031   1.697  14.399  0.0503 -0.2391  0.0293
10807W        W27281  12.802   5.194  15.060 -0.0528 -0.1926  0.0503
10808W        W27282   9.023   1.051   5.939  0.2240  0.0975 -0.0254
10809W        W27283   4.542  15.180   4.177 -0.1241  0.0576  0.1949
10810W        W27284  17.015  16.582   1.021  0.1324 -0.1329  0.2661
10811W        W27285   9.251  13.926  15.904  0.2365  0.0116  0.0133
10812W        W27286   5.386  10.797  15.756  0.1936 -0.1365  0.0091
10813W        W27287   9.859   7.598   3.720  0.2759  0.1925  0.0778
10814W        W27288   6.307  12.409   1.993  0.0069  0.1395 -0.0856
10815W        W27289   9.713   9.048   1.234 -0.0810  0.0387  0.0381
10816W        W27290  12.082   3.207  16.707  0.2646 -0.0283  0.0300
10817W        W27291  16.975  11.300   4.860  0.2542 -0.0870  0.0974
10818W        W27292  12.408  15.555  13.315 -0.2069  0.0723  0.0198
10819W        W27293  12.807   9.567  12.262  0.2343 -0.1590  0.2227
10820W        W27294  13.555   4.582  15.078 -0.2207 -0.2085  0.0838
10821W        W27295   9.066  16.128   3.364 -0.0631 -0.2760  0.0627
10822W        W27296  10.328   8.498  11.802  0.1254 -0.1934 -0.0250
10823W        W27297  11.867   3.299  12.218  0.1800  0.2721  0.2086
10824W        W27298   9.503  16.669  11.708  0.1642 -0.0286  0.2352
10825W        W27299   8.492  14.442  15.239 -0.1007 -0.4099 -0.0530
10826W        W27300   4.753  15.794  11.419 -0.2052  0.5040 -0.1225
10827W        W27301  11.631   9.655  15.118 -0.1006 -0.0182  0.0422
10828W        W27302   1.881   1.832   1.684 -0.2092  0.0818  0.2732
10829W        W27303  17.389   2.606   0.996 -0.2078  0.1009 -0.1624
10830W        W27304  16.103   3.481   6.102 -0.1146  0.0161  0.0222
10831W        W27305   4.571  13.023  10.133 -0.0546  0.1434 -0.1468
10832W        W27306  11.437  14.549   6.393  0.0774  0.0343  0.3583
10833W        W27307  13.898   5.129   5.501 -0.0354  0.0777 -0.0329
10834W        W27308  16.144  16.927   4.686  0.2097  0.1138 -0.1298
10835W        W27309   8.010   6.092   0.475 -0.0965  0.0967 -0.2395
10836W        W27310   9.563   6.405  13.487 -0.0756  0.0469 -0.2282
10837W        W27311  14.147   6.366   1.834  0.2563  0.1237  0.3805
10838W        W27312  10.286   4.350   2.603 -0.2196  0.0785 -0.1474
10839W        W27313   7.974  17.874  13.189  0.2183 -0.1109  0.0074
10840W        W27314  13.384   1.523   2.222 -0.0519 -0.0039 -0.2020
10841W        W27315  13.505  14.875  15.656 -0.0507 -0.0015 -0.0481
10842W        W27316   1.512  13.548  14.577  0.0680 -0.0669 -0.0559
10843W        W27317  17.525  10.256   0.186 -0.1467 -0.2014  0.1037
10844W        W27318   1.405  13.927   0.630 -0.1352 -0.1582 -0.0852
10845W        W27319   5.200   5.148   3.964  0.0128 -0.1612 -0.1419
10846W        W27320  11.355  17.630  16.166 -0.1564 -0.1382  0.0507
10847W        W27321   1.811  17.523   1.790  0.0892  0.0806  0.2432
10848W        W27322  13.660   1.708  12.997 -0.0404  0.0788 -0.1403
10849W        W27323   6.368  11.002  15.977 -0.0601  0.2144 -0.1861
10850W        W27324   3.444   6.796  12.362  0.2114  0.1194 -0.1751
10851W        W27325   3.268  16.875  13.387 -0.0268 -0.1542  0.4087
10852W        W27326  12.145  15.969   1.625  0.1720 -0.2032 -0.1332
10853W        W27327   9.947  16.605  14.873 -0.0625 -0.1266  0.3267
10854W        W27328  16.980   9.247   1.663  0.1898  0.0738 -0.2318
10855W        W27329   8.651  10.916   3.535 -0.3696  0.0429 -0.2607
10856W        W27330   2.983   4.168   5.155  0.0573  0.2508  0.1141
10857W        W27331  15.598   2.590   3.708 -0.0113  0.0412  0.2051
10858W        W27332   4.800   9.042   0.316 -0.0897 -0.3165  0.1541
10859W        W27333  17.255  15.532  13.568 -0.5118  0.0520  0.0901
10860W        W27334   1.286   2.907  11.818  0.2702  0.0571  0.1041
10861W        W27335  15.948  17.371  14.348  0.0618  0.2722 -0.3992
10862W        W27336  11.582   5.472  16.219  0.4403 -0.1074  0.0873
10863W        W27337   6.201   5.955  14.571  0.1329  0.2014  0.0526
10864W        W27338  11.079   3.056  11.861  0.1250  0.1297  0.1120
10865W        W27339   4.088   8.494  11.546 -0.0902  0.4850 -0.0265
10866W        W27340  13.290   9.976   1.122 -0.0599 -0.1389 -0.3820
10867W        W27341  14.373   4.873   1.267  0.3352  0.2695  0.2802
10868W        W27342   6.135   3.378   0.084  0.0494  0.2320 -0.1107
10869W        W27343   0.606   8.813   0.424  0.1177  0.1566 -0.3013
10870W        W27344  11.361  10.670  11.999 -0.3495 -0.0537  0.1053
10871W        W27345   4.078  13.314   4.585  0.1526 -0.0394 -0.0185
10872W        W27346   7.308  10.676  16.327  0.2782 -0.0318  0.1757
10873W        W27347   4.127   2.733  13.990 -0.1263  0.1447  0.1940
10874W        W27348   6.377   4.317  16.217 -0.3180 -0.0479  0.0630
10875W        W27349  17.552   2.199   1.371  0.1978  0.1227  0.0620
10876W        W27350   5.105  15.950  12.603  0.1448  0.2388 -0.0959
10877W        W27351  10.458   6.557   1.613  0.1015  0.2273 -0.0279
10878W        W27352   8.212  10.590   1.467 -0.1717  0.0880 -0.2802
10879W        W27353   4.851  17.772  15.506  0.1043 -0.0432 -0.2486
10880W        W27354  14.951  11.496  16.496 -0.2490  0.1505  0.1476
10881W        W27355  13.767   7.004  14.758 -0.2595  0.0222 -0.0358
10882W        W27356   2.921   7.763   2.662 -0.0002 -0.0394  0.0363
10883W        W27357   8.716   1.195   0.178  0.0574  0.0242  0.2851
10884W        W27358  11.084  15.004  14.890 -0.0816  0.0175 -0.1996
10885W        W27359   1.992  17.886  11.618 -0.2195  0.0505 -0.0073
10886W        W27360   8.492   6.800   2.710  0.0340  0.0429  0.1115
10887W        W27361   2.940  10.154  15.826  0.0725  0.4034  0.0224
10888W        W27362   4.810   4.562   2.332 -0.0584  0.0015 -0.2957
10889W        W27363   3.871   3.980   0.814 -0.3135  0.2527  0.0015
10890W        W27364  14.631  12.958   1.376  0.3062  0.1321 -0.1511
10891W        W27365   2.661   8.776  16.037  0.2107  0.3351 -0.3956
10892W        W27366   6.501   4.310   1.149 -0.1565  0.0672  0.1036
10893W        W27367  12.796   8.978   6.399 -0.1091  0.1075  0.5055
10894W        W27368  16.558  16.265  16.006  0.0132 -0.0811  0.3067
10895W        W27369  11.420   5.299   1.191 -0.3481 -0.1263  0.1073
10896W        W27370  17.863   5.376  16.283  0.2470 -0.1882 -0.2244
10897W        W27371  17.824  15.214  13.502 -0.0696 -0.1220  0.2931
10898W        W27372   5.834  11.499  16.468 -0.2746  0.0754  0.1138
10899W        W27373   8.732   3.810  15.282  0.1457 -0.1883  0.0179
10900W        W27374   7.350  16.163  13.190  0.2415  0.1919 -0.4397
10901W        W27375   2.150   9.340   3.844 -0.2339  0.1285 -0.1983
10902W        W27376  13.055  15.728   4.897 -0.1995 -0.0215 -0.4315
10903W        W27377   8.943  13.576  12.421  0.1498 -0.1967  0.1665
10904W        W27378  11.394   2.360   2.474  0.1854  0.0637  0.0167
10905W        W27379   3.104   4.530  14.822 -0.0822  0.1155 -0.1538
10906W        W27380  17.732   3.318   0.358  0.0794  0.1895  0.0045
10907W        W27381   4.244   2.747  15.360 -0.0188  0.2488 -0.0306
10908W        W27382  14.645  15.069   4.673 -0.0055 -0.0581  0.0252
10909W        W27383   9.246  15.315   4.326  0.1019 -0.1656 -0.1061
10910W        W27384  17.485   9.744  13.304 -0.1388  0.3367 -0.3167
10911W        W27385   5.490  14.356   4.250  0.2513  0.0692 -0.0399
10912W        W27386   7.900   9.292  15.657 -0.1811  0.0514 -0.2405
10913W        W27387   8.393   8.632   5.964  0.1475 -0.0926  0.4042
10914W        W27388   5.250   3.850   5.192  0.2423 -0.1532 -0.2815
10915W        W27389  13.075   8.722  16.028 -0.1457  0.1577  0.1181
10916W        W27390   8.611   6.947  12.070  0.0450  0.0472 -0.1284
10917W        W27391  15.094   5.393   5.600 -0.0556  0.1673 -0.0862
10918W        W27392   1.892   2.720  14.783  0.0327  0.0346 -0.1563
10919W        W27393  13.098   1.245   4.451  0.2700  0.0342 -0.1206
10920W        W27394   6.661   8.097  14.005  0.0391  0.0406  0.1713
10921W        W27395   1.654  10.834   3.046  0.0310  0.0257  0.0487
10922W        W27396   0.736   5.474  15.811  0.1447 -0.2416 -0.2340
10923W        W27397   3.467   9.337  14.367  0.0686  0.1075  0.1536
10924W        W27398   2.183   6.825   1.008 -0.0088 -0.1114 -0.1997
10925W        W27399   6.241   7.971  13.014 -0.2490  0.0756  0.2418
10926W        W27400   9.674  14.590  16.512 -0.3835 -0.0401 -0.0374
10927W        W27401   1.232   2.825  16.269  0.3087  0.0393 -0.2129
10928W        W27402   0.893  15.799   3.256 -0.0447 -0.0397  0.0635
10929W        W27403  17.327   9.385  12.900 -0.0775  0.1206  0.0025
10930W        W27404   2.988  13.566   3.592  0.1142  0.0401 -0.1399
10931W        W27405   6.345  10.458  14.609 -0.2376  0.0488 -0.0409
10932W        W27406  11.232   5.186   0.765  0.0297  0.0180 -0.0026
10933W        W27407   6.251   9.766   0.542 -0.2466  0.3499 -0.0101
10934W        W27408  17.991   4.596   3.980  0.0961  0.1436 -0.0967
10935W        W27409  11.581  11.497   5.261 -0.1604 -0.1916  0.2991
10936W        W27410   0.330   4.471  12.815  0.0665 -0.0993  0.0880
10937W        W27411   3.867  15.611   4.749  0.3620  0.1819 -0.1725
10938W        W27412   1.462  17.042  13.147 -0.0269  0.0036 -0.1922
10939W        W27413  11.439   8.347  15.070  0.1381  0.0049  0.0640
10940W        W27414  15.050   9.025  13.228 -0.0694 -0.0223  0.0471
10941W        W27415  12.229  15.465  15.340  0.0618  0.2248 -0.4127
10942W        W27416   6.289   1.605   0.094 -0.0616 -0.0890 -0.2152
10943W        W27417   6.478  14.261   5.055  0.0289  0.1676  0.0711
10944W        W27418  13.586   4.395   4.704 -0.0884  0.0048 -0.4448
10945W        W27419   3.185   3.162  16.172 -0.1238  0.2116 -0.1463
10946W        W27420   9.110   9.020  11.922  0.2536 -0.1671  0.0394
10947W        W27421   5.007   8.558   0.415  0.0344 -0.4703 -0.1619
10948W        W27422  12.858  11.115   3.223  0.2438 -0.0427 -0.1913
10949W        W27423   9.924  17.947   4.381 -0.0100  0.0946 -0.1732
10950W        W27424  11.355   2.703  13.945  0.0294  0.0339 -0.2020
10951W        W27425   1.019  17.813  16.195 -0.1892 -0.2276  0.0432
10952W        W27426  13.387   5.435   2.165 -0.0001 -0.0701  0.1833
10953W        W27427  17.964   1.523  14.737  0.1023 -0.3233 -0.1162
10954W        W27428   9.839   7.579  16.116  0.1626  0.2292  0.2962
10955W        W27429   5.228  13.309   1.941  0.2041 -0.0226 -0.1482
10956W        W27430  13.687   5.744   3.346 -0.3279 -0.2955  0.0245
10957W        W27431   2.942  15.284   0.349 -0.1705 -0.1270  0.0615
10958W        W27432   9.351  10.232  11.834  0.0693  0.2127  0.2804
10959W        W27433   1.366  15.787  11.997 -0.0067  0.0247  0.1244
10960W        W27434   4.311  13.740  15.242 -0.2150  0.1629  0.0743
10961W        W27435   1.446   7.486   4.919 -0.0178  0.2295 -0.1314
10962W        W27436   7.498   3.768  15.978  0.1093 -0.4028  0.2369
10963W        W27437   4.717   4.359   0.577  0.0170  0.1381  0.1113
10964W        W27438  11.001  11.071   0.812  0.0368 -0.1015  0.0521
10965W        W27439   4.540   5.864  13.945 -0.1713  0.1510  0.2901
10966W        W27440   5.059  16.899   3.866 -0.1052  0.1078 -0.1731
10967W        W27441  17.564   2.312   3.709  0.0760 -0.0252  0.2118
10968W        W27442   1.348  14.233  12.273 -0.1775 -0.2521 -0.0805
10969W        W27443  14.705  16.576   1.698 -0.0684  0.1140  0.0553
10970W        W27444  17.100  17.353  13.664 -0.0754  0.0699 -0.1017
10971W        W27445   6.857  14.220  11.755 -0.0563  0.4633  0.3494
10972W        W27446  10.415  13.284   0.625 -0.0879 -0.1861  0.0995
10973W        W27447  16.548   3.856   4.279  0.0737  0.1939 -0.1177
10974W        W27448  14.278  12.003  16.255  0.0058  0.0041  0.0060
10975W        W27449  17.941   1.341   1.817  0.1692  0.0621  0.0280
10976W        W27450   7.389  11.022  13.940 -0.1680  0.4039 -0.4217
10977W        W27451   8.100   6.292   0.998  0.1181 -0.0758 -0.0887
10978W        W27452  12.095   7.860   0.182  0.0005  0.0971  0.0538
10979W        W27453   3.581   6.159  15.522  0.2170 -0.1204  0.0601
10980W        W27454   8.684  12.622   4.519  0.1685  0.2161 -0.1214
10981W        W27455  14.606  10.495  13.408  0.1785  0.1040  0.2261
10982W        W27456   8.506   4.856   3.390 -0.1137 -0.2498 -0.0578
10983W        W27457   4.951  13.863   5.658 -0.1380 -0.0145 -0.0313
10984W        W27458  16.675   4.302  12.572  0.0236  0.0461  0.1736
10985W        W27459   7.287  12.605   4.603 -0.0249 -0.1225 -0.1640
10986W        W27460   1.149  11.119   2.074 -0.2289  0.1677 -0.0729
10987W        W27461  16.963  14.983  16.039 -0.0793 -0.1286 -0.2328
10988W        W27462  10.013   0.350  14.918  0.1034  0.0518 -0.3290
10989W        W27463   9.675   3.600   3.562 -0.2695 -0.0898  0.1419
10990W        W27464  17.790   5.377  13.776 -0.0511 -0.0964  0.4090
10991W        W27465   7.237  12.493   2.011  0.2187  0.1177  0.0184
10992W        W27466   4.200  15.090   5.712  0.1172 -0.0121 -0.2289
10993W        W27467  10.599  17.441   0.757 -0.0509 -0.1284  0.0896
10994W        W27468   5.614   6.637  12.102 -0.0060 -0.0621 -0.0299
10995W        W27469   6.752   4.236  11.667  0.0119  0.1936 -0.2658
10996W        W27470  13.959   2.619   3.372 -0.1868  0.1846 -0.1271
10997W        W27471   3.007   4.145   0.755  0.3767 -0.1309 -0.3488
10998W        W27472   5.199  15.282   0.107 -0.1275  0.0342  0.3462
10999W        W27473   6.990   0.020  16.521  0.0102  0.0993 -0.2855
11000W        W27474   1.207  15.810  15.584  0.1061 -0.1926 -0.1130
11001W        W27475  13.558  15.753   2.080 -0.3820  0.0157 -0.1919
11002W        W27476  14.601   6.457   5.122 -0.4188 -0.1583  0.3665
11003W        W27477   1.003  12.140  14.688  0.1201  0.0048 -0.1421
11004W        W27478  10.850   3.924   1.973  0.0564  0.2192 -0.0237
11005W        W27479  16.904   1.032   2.115 -0.2127  0.3135 -0.1025
11006W        W27480   4.320  17.357   0.853  0.0566 -0.0344  0.1534
11007W        W27481  17.576   6.539   5.720  0.0771  0.1121 -0.2030
11008W        W27482   0.687  16.641   0.491 -0.1212 -0.0518 -0.2481
11009W        W27483   3.708   4.478   4.637  0.0016 -0.0674 -0.1539
11010W        W27484   2.760   4.371  14.357  0.0882 -0.2293  0.0210
11011W        W27485  16.886  13.953   0.610  0.1008  0.1629 -0.1069
11012W        W27486   7.151   7.866   0.730  0.0492 -0.4305 -0.1893
11013W        W27487  10.241  10.569  14.062 -0.0630  0.1617 -0.2362
11014W        W27488  15.040   7.167   4.948 -0.1557 -0.2087  0.3294
11015W        W27489  16.328   7.805  16.030  0.0321 -0.0922  0.3041
11016W        W27490  13.512  12.210   2.269  0.0022 -0.1000  0.0519
11017W        W27491   9.372   1.484  14.420 -0.1158 -0.0513 -0.1155
11018W        W27492   2.699  13.790  14.842  0.1576  0.1267 -0.1594
11019W        W27493   3.855  12.430   4.122  0.1269  0.0638  0.2156
11020W        W27494   9.473  10.415   5.260  0.0252 -0.3419 -0.1600
11021W        W27495  14.934   0.424   2.479 -0.0541  0.0145  0.0279
11022W        W27496  10.817  11.517   1.660  0.0722 -0.0272 -0.1686
11023W        W27497  12.327   2.931  14.612 -0.2811 -0.1677 -0.3767
11024W        W27498   5.503   2.194   2.096  0.0730 -0.0467 -0.1032
11025W        W27499   3.330  17.779   2.003  0.4849 -0.2755 -0.2595
11026W        W27500  11.260   1.737   4.019  0.0683 -0.2338  0.1825
11027W        W27501   1.075  17.262   4.270  0.0998 -0.1651 -0.5198
11028W        W27502  15.635   1.815   3.612  0.1754  0.0056  0.1056
11029W        W27503   8.912  10.728   1.690  0.0765  0.0654  0.0157
11030W        W27504   4.519  12.761  14.452 -0.1423  0.0733 -0.0016
11031W        W27505  11.184   4.379   3.156  0.0541 -0.3708  0.0627
11032W        W27506   0.429   3.485  16.363  0.1763  0.0492  0.2249
11033W        W27507  14.546   5.443   2.014 -0.0710 -0.3276  0.2544
11034W        W27508  13.164   1.712   4.349 -0.0288  0.1458 -0.2154
11035W        W27509  14.657  12.757  14.914 -0.0532  0.1714 -0.2678
11036W        W27510  13.824   7.588  14.530  0.0768 -0.0463 -0.4486
11037W        W27511  14.816   3.159  14.235  0.0394  0.0212  0.0946
11038W        W27512  11.839  14.675  11.886 -0.0927  0.1876  0.2533
11039W        W27513   1.363  17.245  15.063 -0.2787  0.0632 -0.0089
11040W        W27514  15.598   7.530  14.496  0.1115 -0.0695 -0.1775
11041W        W27515  11.010  14.122  15.076 -0.2519  0.2347 -0.0839
11042W        W27516   6.384   7.528   3.207 -0.1595 -0.2309  0.0442
11043W        W27517   6.614  10.671  13.446 -0.0146 -0.1597  0.1134
11044W        W27518  12.397   1.856  14.370  0.2832 -0.0532 -0.2688
11045W        W27519   0.709   0.739   3.804  0.0510  0.0248  0.1447
11046W        W27520   3.217  16.502   4.707 -0.1582  0.0194  0.0436
11047W        W27521  16.844   1.210  12.261 -0.0052 -0.0071 -0.0606
11048W        W27522   1.982   8.653  14.132  0.2616  0.1476 -0.2124
11049W        W27523  11.474   1.432  16.527 -0.2543  0.1324  0.1723
11050W        W27524   0.527  14.889  12.985 -0.0080  0.1757 -0.1060
11051W        W27525  15.470  13.650   3.680  0.1606 -0.0668 -0.4638
11052W        W27526   4.149  14.728   2.381 -0.0791  0.1415 -0.1000
11053W        W27527  16.785  14.083  14.970 -0.0432 -0.1302  0.0483
11054W        W27528   1.113   5.717  16.208  0.1618  0.0107  0.2488
11055W        W27529  12.187   2.199   4.392 -0.0180  0.1086  0.0055
11056W        W27530  12.185  16.390   1.295  0.2159 -0.2088 -0.2205
11057W        W27531  12.588  15.411  11.565  0.3130 -0.2886  0.0995
11058W        W27532  17.890  10.406   1.761 -0.0324  0.0352  0.2746
11059W        W27533   3.998   1.546   2.935 -0.1204 -0.2752  0.0173
11060W        W27534   7.657   4.356   0.315 -0.0264  0.2430  0.3436
11061W        W27535   6.107   9.637   1.653 -0.1295 -0.0194 -0.1145
11062W        W27536  17.974   8.921   3.158 -0.1461  0.0420  0.4168
11063W        W27537   0.917  16.969  11.523 -0.0936 -0.1533 -0.1134
11064W        W27538  10.635  17.240  11.551  0.1725 -0.2163  0.0110
11065W        W27539   8.400   3.790  12.703  0.1664  0.0636 -0.0032
11066W        W27540  12.949  12.648  12.717  0.2244  0.0287 -0.1074
11067W        W27541   6.735   0.565  10.262  0.1431  0.2226  0.0779
11068W        W27542   8.485   8.621  14.596 -0.0004  0.2297  0.1723
11069W        W27543  15.101  13.154  16.192 -0.1891 -0.1679 -0.2323
11070W        W27544  17.737  17.994  14.619 -0.0239 -0.2540  0.3345
11071W        W27545   2.640   2.622   2.663 -0.3436 -0.2631  0.1730
11072W        W27546  13.322   4.542   2.011  0.1673  0.1178 -0.2005
11073W        W27547   2.319  12.406   2.796  0.2166  0.1644  0.2946
11074W        W27548   6.901   1.655  12.075  0.0810 -0.0849 -0.0476
11075W        W27549   2.454   8.404   0.386 -0.0494  0.0713  0.1605
11076W        W27550   9.062  14.647   0.472 -0.0386  0.0327 -0.1539
11077W        W27551   4.291  16.859  12.609  0.3131  0.1124 -0.1486
11078W        W27552   1.707   4.178  14.182 -0.0128  0.1600 -0.2041
11079W        W27553  14.064   1.487  14.034  0.2375 -0.2006 -0.2821
11080W        W27554  11.900  11.295  16.373 -0.0675 -0.0602 -0.2038
11081W        W27555   8.650  10.606  12.403 -0.0716 -0.1825  0.1186
11082W        W27556   3.076   1.149  12.335  0.0643 -0.1431  0.0550
11083W        W27557   8.648  16.245  12.890 -0.0795 -0.2792  0.0158
11084W        W27558   3.193   2.108  16.030 -0.0737 -0.0854 -0.3385
11085W        W27559   4.563   4.718  11.730 -0.1468 -0.1428  0.2860
11086W        W27560  13.014   7.859   2.302  0.2679 -0.2139 -0.0328
11087W        W27561   6.044   4.099   2.584 -0.1256  0.4095  0.0067
11088W        W27562   8.447   2.190   2.102  0.0070  0.0134  0.1654
11089W        W27563   3.342  17.104   1.797  0.1353 -0.3257 -0.0233
11090W        W27564   2.470   9.760  15.096  0.0085 -0.0880 -0.2765
11091W        W27565   8.899  10.174  11.484  0.1045 -0.0677  0.0338
11092W        W27566   8.652  15.210   3.644 -0.0151 -0.2175  0.0531
11093W        W27567   0.079   8.005   4.806  0.0560 -0.1888 -0.2638
11094W        W27568   5.216   5.638   4.641 -0.2040 -0.0418 -0.0490
11095W        W27569  11.777  12.937   0.305 -0.0650 -0.1368  0.0565
11096W        W27570  14.642   9.853  11.978  0.0155  0.0088  0.1135
11097W        W27571   7.433   0.759  12.043  0.2460 -0.3105  0.0891
11098W        W27572  14.005   0.709   4.913  0.1080 -0.0956 -0.2311
11099W        W27573   8.957   8.859  13.112 -0.1138 -0.1352  0.2071
11100W        W27574  17.873   2.178   0.931 -0.2038 -0.0171 -0.1706
11101W        W27575   3.228  12.110  15.274  0.2321 -0.2643 -0.2050
11102W        W27576  10.056   3.434   1.807  0.1831 -0.1082 -0.0481
11103W        W27577   7.556  13.385   5.085 -0.3326  0.2301 -0.1640
11104W        W27578   5.515  17.407   1.545 -0.0540  0.0336 -0.0003
11105W        W27579   9.613  14.248  16.157  0.2818 -0.1169  0.1752
11106W        W27580   2.097  13.694  14.135 -0.1992 -0.3782  0.1623
11107W        W27581   5.953  11.718  14.322  0.1388  0.2971  0.3357
11108W        W27582   9.244   2.214   5.406 -0.0894  0.1707 -0.1362
11109W        W27583  10.334   0.661  15.775  0.0606 -0.1049 -0.2181
11110W        W27584   7.961  16.983   5.111 -0.1184 -0.1021  0.0782
11111W        W27585   1.090   8.102   2.671 -0.2388  0.1192  0.1185
11112W        W27586   6.013   2.861   4.059 -0.2443  0.0690 -0.0849
11113W        W27587  11.199  14.778  13.087 -0.0821  0.0547 -0.0897
11114W        W27588   9.277   3.104   1.035 -0.3578  0.0597  0.0032
11115W        W27589  13.967   9.565   1.980  0.2462 -0.3461 -0.1704
11116W        W27590   4.232   5.928  16.213 -0.0525  0.2471  0.2574
11117W        W27591  10.965   6.604   1.115  0.1026  0.0841  0.2863
11118W        W27592   0.568   4.097   4.380 -0.1790 -0.0325 -0.1726
11119W        W27593  14.955   7.866   0.118 -0.5159 -0.1430  0.2858
11120W        W27594  10.306  16.209   2.219 -0.0082 -0.4101  0.5006
11121W        W27595  12.740   7.652  14.748  0.0004  0.2781 -0.1813
11122W        W27596   2.653   4.316   3.958  0.3102 -0.1167 -0.2544
11123W        W27597   9.253   2.289  14.082  0.1887 -0.3287  0.0086
11124W        W27598  17.517   1.977   0.385 -0.0193  0.0502 -0.2373
11125W        W27599   3.472  13.179   2.743  0.1155  0.2318  0.1064
11126W        W27600   0.627  16.215   4.171  0.3023  0.1702  0.0135
11127W        W27601  17.687   7.189   1.267  0.1328  0.3004  0.0838
11128W        W27602   3.835   6.433  12.477  0.3067 -0.0439 -0.1356
11129W        W27603   8.580   4.433  11.743 -0.3557 -0.1025 -0.2259
11130W        W27604   3.543   1.470  15.489 -0.1816  0.2151  0.1050
11131W        W27605   8.154  14.395   4.634  0.0218 -0.0559 -0.0952
11132W        W27606  17.703  17.896  16.319 -0.2586  0.0351  0.1528
11133W        W27607  13.391  16.711   1.618 -0.1694  0.1279 -0.0528
11134W        W27608   0.043   5.777   4.400 -0.0650  0.0180 -0.1676
11135W        W27609   4.149  10.125   0.258  0.0352  0.0519 -0.1932
11136W        W27610   3.501   2.953  12.840 -0.1969  0.0755 -0.2122
11137W        W27611  13.719   4.289  13.277  0.0538 -0.0377  0.0368
11138W        W27612   9.053   4.603   3.573  0.2087  0.0906 -0.0560
11139W        W27613   7.663   2.659  16.589  0.0734 -0.1754  0.1556
11140W        W27614   9.351  16.873   4.680 -0.3258  0.0343 -0.2773
11141W        W27615   8.032   7.116  11.515  0.2567 -0.1012 -0.1285
11142W        W27616  10.521   4.404  12.001  0.1326 -0.2124 -0.2044
11143W        W27617   4.935   6.818  11.617 -0.0208  0.1804 -0.2103
11144W        W27618  17.033   9.269  16.278 -0.0240 -0.1247 -0.0258
11145W        W27619   2.449   1.965  16.222 -0.0257 -0.3228  0.1526
11146W        W27620   3.245   8.587   1.662  0.1122  0.1593 -0.1457
11147W        W27621  14.314  16.202  11.738  0.0835  0.0049 -0.1291
11148W        W27622  12.019   6.075  14.188 -0.0430 -0.1652  0.1031
11149W        W27623   1.052  10.396  15.977 -0.0614 -0.1861 -0.1956
11150W        W27624  15.513  14.145   0.668  0.1122  0.0919 -0.1512
11151W        W27625  10.547  11.970  16.083  0.0105 -0.1099  0.3102
11152W        W27626  14.637  11.798  16.741 -0.0664 -0.0245 -0.2204
11153W        W27627  15.586  11.945   5.178  0.1376  0.0321  0.4158
11154W        W27628   9.355   8.334  15.752  0.0104 -0.2041  0.1866
11155W        W27629  11.669   7.028   2.973 -0.1141  0.2359 -0.1657
11156W        W27630  10.165  16.238   4.448  0.0854  0.1951 -0.1803
11157W        W27631   2.555   2.033   3.720  0.0079  0.0923 -0.0040
11158W        W27632  14.110   0.227   1.469 -0.3498  0.0455  0.1487
11159W        W27633  16.701  15.435   4.510  0.1469 -0.0786 -0.2415
11160W        W27634   1.380  13.495   2.622 -0.0674  0.2659 -0.3480
11161W        W27635   9.487   1.709   6.294 -0.1812 -0.0484 -0.0500
11162W        W27636   1.852   6.431   0.821  0.1598  0.2094 -0.0975
11163W        W27637   1.198   6.743  14.980  0.1879 -0.1257  0.1087
11164W        W27638  10.759   6.029  14.087 -0.0479 -0.0526 -0.3005
11165W        W27639  16.978   0.360  13.252 -0.1216 -0.1147 -0.1692
11166W        W27640   6.654  16.940  16.178 -0.3646 -0.1762  0.1404
11167W        W27641   7.020   3.523  12.650  0.0729  0.3696  0.1746
11168W        W27642   6.428   0.779  13.697  0.1326  0.0825  0.0106
11169W        W27643   1.303  14.688   1.575  0.0358  0.1394 -0.0219
11170W        W27644   0.526  15.401  15.242  0.1190  0.1678  0.1467
11171W        W27645  14.823  11.103   1.458  0.2464 -0.1888  0.0463
11172W        W27646  16.199  15.210  12.552  0.0212  0.1580  0.1029
11173W        W27647   4.979   3.039  14.393  0.1691  0.1843  0.0296
11174W        W27648  10.520   1.975   3.730  0.0667 -0.0168  0.0905
11175W        W27649  17.922   1.089   2.751 -0.2921 -0.0507  0.0900
11176W        W27650   2.604   1.279  12.379 -0.0675  0.0902  0.1227
11177W        W27651  15.464  13.282  11.947  0.1664 -0.1612  0.1523
11178W        W27652  14.716  12.575  13.382  0.1297 -0.0028 -0.0967
11179W        W27653   5.632  17.872  16.172 -0.2653 -0.0282 -0.0482
11180W        W27654   3.925   7.281   2.220  0.0734 -0.0370  0.0837
11181W        W27655   5.510  17.438  12.760 -0.0925  0.0418  0.0586
11182W        W27656   8.666   9.265  12.754 -0.3071 -0.2700  0.1290
11183W        W27657   0.628  17.606   2.850  0.1512  0.2945  0.1670
11184W        W27658   8.102  15.860  15.604  0.0932  0.1293  0.3625
11185W        W27659  13.647   9.431  13.671 -0.1235 -0.1135  0.2157
11186W        W27660  11.673  15.306   0.973  0.2666  0.1740 -0.0456
11187W        W27661   7.752  11.697  13.467  0.1315  0.1079  0.1073
11188W        W27662  11.001   6.631   1.633 -0.2288 -0.1450 -0.2228
11189W        W27663   5.179   8.290   2.811 -0.0021  0.0268 -0.2580
11190W        W27664   4.809   9.828  14.545 -0.0234 -0.0030  0.0694
11191W        W27665   5.217   7.631  13.227 -0.0742 -0.2415 -0.1546
11192W        W27666  14.088  17.179   5.110  0.3491 -0.1196 -0.1840
11193W        W27667   4.270   5.454  12.315  0.0769 -0.1643 -0.1541
11194W        W27668   0.886   6.915   4.445  0.0959  0.0139  0.1036
11195W        W27669  16.863   4.705   1.930 -0.1787  0.1204  0.0289
11196W        W27670  12.165  15.923   1.038 -0.1307 -0.0061  0.0081
11197W        W27671  15.680  15.324  14.428 -0.1137  0.0261  0.1567
11198W        W27672   7.907  12.565   3.947 -0.0345  0.0269  0.0181
11199W        W27673  13.228  11.836   2.373 -0.1890 -0.0704  0.1353
11200W        W27674   1.864   3.926   1.391 -0.0217 -0.2922 -0.0300
11201W        W27675   8.318  15.283  12.222  0.7259 -0.0709  0.2169
11202W        W27676   6.726  17.575  16.405  0.1417  0.0359  0.2298
11203W        W27677   3.460   6.402   5.734  0.3028 -0.1294 -0.0010
11204W        W27678   6.299   1.666   2.915  0.0670  0.3187 -0.2012
11205W        W27679  14.380   7.676   1.357  0.1491  0.1558  0.0912
11206W        W27680   0.908  14.685   4.092 -0.3571 -0.0794 -0.0315
11207W        W27681   1.448   8.946   2.061 -0.2838 -0.1407 -0.0422
11208W        W27682   6.606   4.802   1.325  0.1738 -0.0209  0.0911
11209W        W27683  11.556  17.604   2.868  0.4407  0.0951  0.1401
11210W        W27684  14.643   6.120   3.554 -0.4011 -0.0612  0.1431
11211W        W27685   5.863  10.393   3.847 -0.2769 -0.4438  0.2397
11212W        W27686   6.488   9.708   5.507  0.2374  0.2590 -0.1173
11213W        W27687  15.647  12.494  13.338 -0.1083 -0.0885  0.1859
11214W        W27688  12.243   7.430  14.895 -0.0002 -0.0085  0.0754
11215W        W27689   5.048   7.504  16.524  0.3277 -0.1563  0.1444
11216W        W27690  17.876   1.767  13.771  0.2949 -0.2578 -0.1266
11217W        W27691   3.662  14.117   3.832  0.0329  0.4313  0.1873
11218W        W27692   5.172   5.572   5.226 -0.1483 -0.0633 -0.2426
11219W        W27693  11.188   4.105   2.279  0.1980  0.1311 -0.2412
11220W        W27694   2.277   7.334   1.358  0.0710  0.0834  0.2256
11221W        W27695  13.953  14.142  12.572 -0.0330 -0.1244 -0.0852
11222W        W27696   7.786   6.436  12.215 -0.1556 -0.1170 -0.0704
11223W        W27697   2.392  15.791  14.345 -0.1782  0.0336 -0.0569
11224W        W27698  14.607  17.619  12.157  0.0998  0.3543  0.1741
11225W        W27699  10.599  11.519   3.038 -0.2007 -0.0535 -0.2090
11226W        W27700   6.920   5.739  12.459  0.2592 -0.1966 -0.0854
11227W        W27701   1.680   5.888  13.489  0.3171  0.0513  0.1815
11228W        W27702   5.627  11.630   2.878 -0.0274 -0.0371  0.0932
11229W        W27703  14.090  13.014  12.806  0.2729  0.2200  0.4643
11230W        W27704   8.462   4.182  16.705  0.2928 -0.1359  0.0965
11231W        W27705   6.531   3.256   1.333 -0.0916 -0.0470  0.0761
11232W        W27706   4.169  11.490   2.951 -0.0851  0.1721  0.0660
11233W        W27707   0.775   3.517  12.912  0.0952 -0.1526  0.3854
11234W        W27708  13.506   9.518   0.136 -0.1975  0.0115  0.1883
11235W        W27709  17.335   2.656   4.932 -0.0823  0.1878 -0.2870
11236W        W27710   2.842   3.256   0.778 -0.1549  0.0164 -0.1524
11237W        W27711  10.324  12.126  11.608 -0.1640  0.1179  0.0582
11238W        W27712   3.523  12.426   5.463  0.1459  0.1683  0.0762
11239W        W27713   2.301  12.167   4.083  0.1587 -0.0301 -0.0570
11240W        W27714  10.423  15.183   6.241 -0.3442 -0.2603 -0.0721
11241W        W27715  13.206  11.090  14.727  0.0637  0.0811 -0.0415
11242W        W27716  13.828  15.134  12.940 -0.0300  0.3349  0.3096
11243W        W27717   5.108   2.915   4.754 -0.0775 -0.1441  0.0974
11244W        W27718   5.571   0.462  15.120  0.0133  0.0785 -0.0344
11245W        W27719   5.751  10.857   3.850 -0.0592  0.2891  0.1435
11246W        W27720  13.381   9.174   2.769  0.1019 -0.2795 -0.3868
11247W        W27721   8.675   1.280   1.369 -0.2093  0.1136 -0.3340
11248W        W27722   2.017   0.246  16.190 -0.1336  0.3915 -0.0571
11249W        W27723   6.250   1.882  13.675 -0.0517  0.1721 -0.1515
11250W        W27724   5.743  17.403   5.097 -0.0323 -0.1449  0.1496
11251W        W27725   0.355  17.305  14.680 -0.0207  0.3140  0.3153
11252W        W27726  16.044  17.566   0.877  0.0104  0.2323  0.1540
11253W        W27727   0.252  14.345  16.720 -0.2845  0.3002 -0.2771
11254W        W27728   0.626  14.144   2.517 -0.1887  0.1671  0.5174
11255W        W27729  15.064   8.716  13.673  0.3904  0.1459 -0.4990
11256W        W27730  17.614  12.222  12.777 -0.1076  0.2643  0.0554
11257W        W27731  16.630  10.482  16.131  0.0416 -0.0140 -0.2486
11258W        W27732   5.204   3.847  12.107 -0.0391  0.4153  0.2726
11259W        W27733   6.048  15.037  13.202 -0.1640  0.3055  0.1552
11260W        W27734   0.391   4.873   1.778  0.1185 -0.0712  0.0592
11261W        W27735  13.622   2.259  12.794  0.0963  0.4400  0.1744
11262W        W27736  15.980   1.049   0.487  0.0870 -0.2211 -0.0716
11263W        W27737  14.957  16.754   0.846 -0.0071  0.0007 -0.2098
11264W        W27738   1.198  17.838  16.712  0.1010 -0.1264  0.0653
11265W        W27739   8.660   0.088  15.708  0.0416 -0.3294  0.0861
11266W        W27740   4.187   8.176  15.469 -0.1795 -0.0830  0.0411
11267W        W27741  11.269  10.495  14.920  0.3262  0.0458 -0.1325
11268W        W27742   0.193  14.305   2.130 -0.1764  0.1565  0.2455
11269W        W27743  14.764   5.444  12.585  0.0999 -0.0497 -0.0219
11270W        W27744  17.642  15.737   3.525 -0.0938 -0.0248 -0.1350
11271W        W27745   2.590   0.892  11.525  0.1922  0.1507 -0.0246
11272W        W27746  13.305   5.420   3.725  0.2275  0.1020  0.0070
11273W        W27747  13.752  17.184   0.012  0.0622 -0.3167 -0.0202
11274W        W27748  15.574   9.740   3.117  0.1589  0.0629 -0.5544
11275W        W27749   2.702   6.686  12.421 -0.1093  0.3146 -0.0078
11276W        W27750  13.605   1.577  11.475  0.1401  0.1350 -0.2599
11277W        W27751  16.918  15.195   0.071  0.0482 -0.1007  0.0098
11278W        W27752   7.825  15.976   4.124  0.0727 -0.1522 -0.0525
11279W        W27753   0.401   3.814   5.338  0.2385  0.1342  0.0390
11280W        W27754  15.992   1.980   2.199 -0.0400  0.3891  0.3187
11281W        W27755   4.817   4.316  12.905 -0.0875 -0.2033  0.3014
11282W        W27756  11.880  14.185  15.276 -0.0065 -0.2249  0.1250
11283W        W27757   0.647  15.803  16.198  0.2323  0.0679 -0.2293
11284W        W27758  11.339   4.268  13.079  0.0465  0.2864  0.1298
11285W        W27759   1.325   1.577   4.093 -0.2556 -0.1923  0.2237
11286W        W27760   1.637  10.747  13.914 -0.0917  0.0953  0.3670
11287W        W27761   6.488  15.216  11.843  0.2003 -0.7080  0.3308
11288W        W27762   0.487  17.517   3.715 -0.1628 -0.3550 -0.1771
11289W        W27763  16.776   2.901  15.726  0.1796  0.2519 -0.2422
11290W        W27764  17.170   1.800  15.131 -0.1624  0.4785  0.0374
11291W        W27765   2.703   3.971  13.149  0.2480  0.0586  0.1740
11292W        W27766   5.520  16.653  12.491  0.1606  0.2499  0.4416
11293W        W27767  14.289   3.327   1.095  0.0644  0.0742 -0.1129
11294W        W27768  17.331   9.615   5.040  0.3092  0.0875 -0.0786
11295W        W27769  16.546  17.898   5.363  0.0828  0.2441  0.2079
11296W        W27770   2.231  13.799   2.633 -0.1269 -0.0348  0.6372
11297W        W27771   3.803  12.156  14.160 -0.0183  0.2971  0.0012
11298W        W27772   9.778   6.608   0.110  0.0243 -0.0701  0.1757
11299W        W27773  14.152   7.936  15.980 -0.1038 -0.1534 -0.4688
11300W        W27774   6.419  16.360   3.654 -0.3317 -0.2379  0.2586
11301W        W27775   6.444   1.330  13.823  0.0215  0.1438 -0.0990
11302W        W27776   6.457   2.001  11.631 -0.0342 -0.1980  0.1196
11303W        W27777  12.659  14.492   3.907 -0.0853  0.1828 -0.0124
11304W        W27778  11.293  14.823  16.169  0.0946 -0.1190 -0.2115
11305W        W27779   8.722  11.902   3.668 -0.0812  0.1218 -0.4259
11306W        W27780   1.581  16.647  12.904  0.0814 -0.1820  0.1684
11307W        W27781  14.118  10.107   4.633 -0.1861 -0.2825  0.0540
11308W        W27782   3.267  17.274   4.241 -0.0781 -0.1025  0.2422
11309W        W27783  16.511   8.819  14.337  0.0365  0.0452 -0.1041
11310W        W27784   8.038   8.340   5.066 -0.0448 -0.2448 -0.0817
11311W        W27785   8.389  14.654   1.197 -0.1935 -0.0826 -0.0700
11312W        W27786   3.221  12.144  13.808  0.0015 -0.2419  0.1653
11313W        W27787   1.318   1.258   4.476 -0.0748 -0.0244 -0.2671
11314W        W27788   1.044  15.423   3.643 -0.1423  0.0724 -0.0855
11315W        W27789   4.603  17.360  11.573 -0.0479  0.0647  0.4079
11316W        W27790   3.317   7.112  11.468 -0.1180 -0.0571  0.2510
11317W        W27791   2.966   7.093   3.879  0.1346  0.3836 -0.0310
11318W        W27792  16.196  12.041  16.520  0.0312 -0.0833  0.0303
11319W        W27793   0.178   3.787   6.160 -0.1010  0.1841 -0.0746
11320W        W27794   0.930   0.290  12.572  0.0397  0.1004 -0.2650
11321W        W27795   7.305   3.341   0.283 -0.0364  0.0670  0.0132
11322W        W27796   4.238   8.095  11.327  0.0572  0.0478 -0.0393
11323W        W27797  11.970   2.128  12.615  0.0869 -0.0042  0.0450
11324W        W27798  17.809   0.568   1.996 -0.0792 -0.2602  0.0836
11325W        W27799   0.972   7.839  10.861 -0.2494 -0.1582 -0.1477
11326W        W27800   6.299   9.060  11.574 -0.1047  0.2831  0.1298
11327W        W27801   7.634  10.308  11.692 -0.2066 -0.0016 -0.0067
11328W        W27802  16.444  17.762   1.570 -0.1930  0.1275 -0.1192
11329W        W27803  14.933   1.379  12.384  0.0888 -0.1509 -0.2733
11330W        W27804  17.558   8.590   4.284  0.0585  0.3372 -0.0851
11331W        W27805  15.133  16.695  12.031 -0.1431 -0.0655 -0.1342
11332W        W27806   3.658  16.883  12.019  0.0996 -0.2134 -0.0862
11333W        W27807  17.224   6.117  15.954 -0.1763 -0.1925  0.1841
11334W        W27808   3.002  15.685   0.065  0.1648  0.1083  0.1913
11335W        W27809   0.194  17.294  15.159  0.0650  0.0293  0.1248
11336W        W27810   9.072  12.161  12.968 -0.2302 -0.0066  0.2686
11337W        W27811  15.884  16.824  15.954 -0.3091  0.0387  0.1977
11338W        W27812  15.982  16.269  16.457  0.0559 -0.0306  0.0495
11339W        W27813   1.931  11.132  16.312 -0.0134  0.1584 -0.0709
11340W        W27814  14.528  15.129   0.057  0.0275  0.1792 -0.1416
11341W        W27815  16.283   5.368   2.565  0.0041 -0.0323 -0.3240
11342W        W27816   9.467  11.316  16.499  0.4898  0.2215  0.0741
11343W        W27817   5.804  12.903   0.404  0.0553 -0.1241 -0.0285
11344W        W27818   9.337   8.327  16.659 -0.0962  0.0367  0.2249
11345W        W27819   7.141   5.280   4.963 -0.1532  0.1199  0.0338
11346W        W27820   7.583  10.748   4.039  0.0077  0.2347  0.1601
11347W        W27821   9.882   2.422  16.028 -0.2047  0.0464  0.2542
11348W        W27822  16.484   9.774  13.888  0.0747 -0.0820  0.1900
11349W        W27823  14.720   6.927  13.224  0.0539  0.2429 -0.1461
11350W        W27824  17.005   8.432   3.686  0.3638  0.0949 -0.1240
11351W        W27825   1.002  13.160   3.054 -0.0293  0.3754  0.2460
11352W        W27826  12.533  12.288  15.300  0.0447  0.0304  0.3528
11353W        W27827  11.661   5.895   0.015 -0.0067 -0.1838  0.2654
11354W        W27828   5.391  13.734   0.323 -0.0813 -0.2332 -0.0703
11355W        W27829  11.107   9.079   3.466 -0.0209  0.2507 -0.0472
11356W        W27830   6.181  12.303  12.811 -0.0331  0.0009  0.0318
11357W        W27831   1.885   2.518  12.557 -0.1828  0.0856 -0.0028
11358W        W27832  17.594   8.790   0.383  0.1662 -0.2399  0.2353
11359W        W27833  15.192  11.023  13.106 -0.0307  0.3355 -0.0844
11360W        W27834  17.596  11.155   3.542  0.0051  0.0806 -0.3363
11361W        W27835  17.047  16.380  12.491  0.1058  0.0305 -0.1411
11362W        W27836   9.533  12.076   1.496 -0.3959 -0.0531 -0.0728
11363W        W27837  16.921  13.156   1.527  0.2023 -0.1693  0.1200
11364W        W27838   9.286   0.663  12.217 -0.0356 -0.1548 -0.1618
11365W        W27839  17.120   1.156  15.080 -0.0693 -0.0698 -0.1116
11366W        W27840   3.712  17.509  14.712 -0.0759 -0.0851  0.0826
11367W        W27841   2.146   4.084  12.541 -0.0895  0.1396 -0.3260
11368W        W27842  17.141   7.393  16.071 -0.0619  0.1029  0.2164
11369W        W27843  13.753  16.265  15.894 -0.3024  0.0520  0.0977
11370W        W27844  15.181  10.348  16.732  0.0383  0.2892  0.3583
11371W        W27845  10.846  13.809  14.270 -0.2785  0.2553  0.0881
11372W        W27846  12.445  15.926  15.041 -0.0486  0.2062  0.0672
11373W        W27847   4.322   3.968  15.802 -0.2026  0.1578  0.0309
11374W        W27848  10.252   1.653  16.712  0.0231 -0.0652  0.1875
11375W        W27849   0.890  13.959  16.201 -0.0666 -0.1349  0.1849
11376W        W27850   9.038  15.563  11.359  0.0453  0.2644  0.2176
11377W        W27851   0.811  14.594  11.290 -0.1146  0.1788 -0.0474
11378W        W27852  12.448  11.988  11.607  0.0251 -0.0514  0.0886
11379W        W27853   8.923  15.411  15.885  0.0131 -0.0229  0.0140
11380W        W27854   7.387   1.558  12.834  0.0491  0.3528 -0.3415
11381W        W27855  13.290  10.554   2.727  0.0121  0.2272 -0.0249
11382W        W27856  11.904  15.823  15.285 -0.3498 -0.0147  0.0407
11383W        W27857   3.210  12.592  15.564 -0.0491  0.4555  0.1138
11384W        W27858   0.191   3.007   2.069  0.2462  0.0559 -0.0973
11385W        W27859   0.995   2.015  16.181  0.1503  0.2940 -0.2444
11386W        W27860  15.105  17.214   3.809 -0.1889 -0.2145  0.0562
11387W        W27861  16.472   7.856  15.573  0.1365 -0.1968 -0.0708
11388W        W27862   8.662   7.475   1.414 -0.0723 -0.1209  0.0596
11389W        W27863  13.039   1.662  15.165 -0.0270 -0.0202 -0.0722
11390W        W27864   2.922   0.526   0.002  0.0834  0.2258 -0.1908
11391W        W27865   4.045   0.838   4.116  0.0063 -0.0300 -0.2662
11392W        W27866  14.498  15.740   3.388  0.1246  0.0164  0.3396
11393W        W27867   6.676  15.893   0.868 -0.1829  0.1200 -0.0885
11394W        W27868   8.688  14.112   1.767  0.4701 -0.0610 -0.0358
11395W        W27869  17.606   4.564  14.690  0.2560  0.2161  0.1325
11396W        W27870   0.555   4.444  15.227  0.2477 -0.0082  0.1106
11397W        W27871  15.255   0.409   5.231 -0.2187  0.3994  0.0567
11398W        W27872  17.534   7.699   1.346 -0.0515 -0.2125  0.0228
11399W        W27873   2.156  11.889   1.241 -0.1519  0.1660 -0.1089
11400W        W27874  13.899  17.533  14.743 -0.4039  0.0665 -0.1806
11401W        W27875   4.222  11.534   3.465  0.0142 -0.2098 -0.0053
11402W        W27876   1.403  15.624  11.477 -0.0430  0.3224  0.1757
11403W        W27877  14.590  15.550   2.055 -0.1327  0.2788  0.1848
11404W        W27878   9.591  12.508  15.902 -0.1615  0.0345  0.2965
11405W        W27879  10.504  11.700  14.243  0.2101  0.0515  0.2077
11406W        W27880   2.829  16.824   0.535 -0.0420  0.0807  0.3548
11407W        W27881   4.149  17.549   4.924  0.1715  0.1074 -0.0827
11408W        W27882   2.709  11.614   2.881  0.0515  0.2179 -0.1417
11409W        W27883  14.855  15.930   3.044 -0.1173 -0.1646 -0.1184
11410W        W27884   2.659  12.259   5.772  0.1279  0.2533 -0.0907
11411W        W27885  13.666  16.854   1.236  0.0587 -0.2366 -0.1063
11412W        W27886   6.045   4.501  14.503  0.0508  0.2266 -0.3407
11413W        W27887  15.268   2.969   4.286  0.0466  0.0475 -0.2973
11414W        W27888   2.859  12.293   1.739  0.0907  0.1599  0.1761
11415W        W27889  13.209  15.568  16.118 -0.2738 -0.2263 -0.1891
11416W        W27890   7.076  10.467   4.027 -0.0010  0.0631 -0.2424
11417W        W27891  13.861   0.656  15.685  0.0840 -0.2652 -0.1060
11418W        W27892   7.249   7.444   2.917 -0.0015  0.2366 -0.0778
11419W        W27893   1.384  17.400  13.751 -0.1180 -0.4220 -0.0081
11420W        W27894  12.848  13.547   3.651  0.1667  0.1890 -0.0657
11421W        W27895   6.278   8.979  12.094 -0.0296  0.2492 -0.4415
11422W        W27896   7.866  13.393   0.901  0.1395 -0.0570  0.2024
11423W        W27897  13.755  12.470  10.721  0.3246 -0.0767  0.0442
11424W        W27898   5.754   5.552  15.214 -0.2489  0.0692 -0.4265
11425W        W27899  15.857   4.797  14.077  0.3426  0.2769  0.0258
11426W        W27900   2.922  11.551   2.404  0.0348 -0.0393  0.0668
11427W        W27901   6.243   8.278   3.140  0.0927 -0.3479 -0.0602
11428W        W27902   0.626   8.515   1.674  0.1624 -0.3174 -0.0009
11429W        W27903  14.224  12.176  12.819 -0.0558  0.1268  0.0769
11430W        W27904   4.878  12.854   0.537  0.2663 -0.1044  0.1809
11431W        W27905  13.994  10.271   1.429  0.1406  0.0010 -0.1647
11432W        W27906  14.691   1.103   4.394  0.0856  0.0665 -0.2151
11433W        W27907   8.380  16.491   0.792  0.2874  0.0477 -0.0730
11434W        W27908   8.571   4.654   0.557 -0.0697  0.0737 -0.0963
11435W        W27909   5.116  13.985  16.752 -0.0568 -0.0836  0.0969
11436W        W27910  12.369  10.905   2.461  0.2067  0.1154  0.2844
11437W        W27911   8.853   6.435  12.767 -0.0359  0.0560 -0.1526
11438W        W27912  15.213   0.390   4.214  0.1614  0.0483  0.3061
11439W        W27913   1.897  16.324   5.426  0.0448 -0.1612  0.2666
11440W        W27914   6.847  12.443   3.393  0.1541 -0.1106  0.1904
11441W        W27915  13.462  12.813  14.890 -0.1228 -0.0074  0.3452
11442W        W27916   4.691   2.615   1.847 -0.2748  0.0640  0.2743
11443W        W27917   6.670   8.177  15.136  0.0683 -0.0243 -0.0132
11444W        W27918  15.101   2.592  15.641  0.0722  0.1364  0.1810
11445W        W27919   5.040  12.561  10.881 -0.1769  0.2959  0.0798
11446W        W27920  14.725   4.059   0.861  0.0387 -0.0825  0.2562
11447W        W27921   6.268   0.935  12.319  0.2082  0.1232 -0.1315
11448W        W27922  11.298   1.364   1.268  0.1617  0.2947  0.2458
11449W        W27923   0.670   5.795   0.301 -0.2766  0.0958  0.1419
11450W        W27924   7.885  14.048   5.430 -0.1503  0.3990  0.0171
11451W        W27925   1.029  17.292   2.094 -0.1444 -0.0616  0.3629
11452W        W27926   1.678  17.953  11.188 -0.0471  0.1367 -0.1744
11453W        W27927  12.592  12.931  13.289 -0.3327 -0.0898 -0.0841
11454W        W27928   2.643  12.894  12.646 -0.0767 -0.3285 -0.0712
11455W        W27929   3.035  13.177  14.895  0.0866  0.4230  0.0445
11456W        W27930   2.941  10.033  16.591 -0.0721  0.1105 -0.0424
11457W        W27931   6.446  10.966  13.071  0.1413 -0.0673  0.3084
11458W        W27932  14.077   7.252   5.256 -0.0930 -0.0419  0.2179
11459W        W27933   7.752  10.603   2.805 -0.1736 -0.4960 -0.2551
11460W        W27934   2.139   5.675   0.260 -0.0392  0.0345 -0.5616
11461W        W27935   2.403  10.871  14.576  0.2232  0.2990 -0.0256
11462W        W27936   3.830  17.045  15.948  0.0452  0.0389 -0.2737
11463W        W27937   1.081  13.023  15.362 -0.1354 -0.2552 -0.2700
11464W        W27938  11.160  10.835   5.582 -0.0297 -0.1815  0.3355
11465W        W27939  13.180   2.908   4.427  0.2380 -0.0546 -0.1536
11466W        W27940  14.160  16.180   4.238 -0.0151  0.2956 -0.0405
11467W        W27941   2.358   6.916   5.052  0.1775 -0.2290 -0.1829
11468W        W27942   2.499   8.056  13.954 -0.0700 -0.1837  0.1718
11469W        W27943   7.359   0.898  11.543  0.0010  0.2109  0.1016
11470W        W27944   4.593   9.640   4.631 -0.0525  0.0114  0.2385
11471W        W27945   9.156  12.667   0.335 -0.2257  0.0362 -0.0583
11472W        W27946  11.524  16.353   5.582  0.2769 -0.1031  0.2612
11473W        W27947  16.190   0.152  11.675  0.1933 -0.2467 -0.0398
11474W        W27948   1.128   7.421   2.226  0.0585 -0.0259  0.1751
11475W        W27949   8.906  10.171  16.658 -0.0290 -0.0880  0.0798
11476W        W27950  12.904  15.237   6.142  0.0739  0.1963 -0.1024
11477W        W27951  15.430   8.644   5.460  0.2062 -0.1034  0.4876
11478W        W27952  11.978  12.561  12.254 -0.0475 -0.0807 -0.1035
11479W        W27953  10.137  13.140  12.271  0.2059 -0.2761 -0.1629
11480W        W27954   3.885   9.409  11.730 -0.2161 -0.2971 -0.1809
11481W        W27955  14.528   9.590  15.635  0.2032 -0.1154 -0.2997
11482W        W27956   1.129   2.980   5.221 -0.0158 -0.1477 -0.1430
11483W        W27957   9.346  15.193  12.371  0.0978 -0.0496  0.0901
11484W        W27958   1.527   7.912  16.126 -0.0065 -0.1351  0.3216
11485W        W27959  11.460  16.493  12.005 -0.4624 -0.2578  0.1084
11486W        W27960  12.851   5.453   2.936  0.3873 -0.0224  0.0270
11487W        W27961  17.019   8.018  14.757 -0.1457 -0.2342  0.2617
11488W        W27962  17.243  11.287  12.250 -0.0209  0.2153 -0.1646
11489W        W27963  12.875  16.312   5.952  0.1171 -0.2951 -0.3456
11490W        W27964  17.969  14.717   5.707  0.0957 -0.0800 -0.1729
11491W        W27965  12.151   1.070   1.820  0.3759  0.1292 -0.1370
11492W        W27966   2.300   3.996   4.576 -0.0789  0.0433 -0.1494
11493W        W27967  10.958  14.048   2.310  0.1721  0.1907 -0.2408
11494W        W27968   4.387   5.030   1.307 -0.3613 -0.0647 -0.2538
11495W        W27969   7.549   5.564   5.225  0.0244  0.0556 -0.0424
11496W        W27970   2.142   0.780  13.365 -0.4423 -0.1942  0.0735
11497W        W27971   7.571  12.647  13.942 -0.3614  0.0172  0.0958
11498W        W27972  11.164  15.957  15.217  0.1787 -0.0793 -0.0605
11499W        W27973   1.690   1.148   3.385  0.0242  0.3197  0.1874
11500W        W27974  13.013  10.104  16.284  0.1718  0.0640  0.4408
11501W        W27975  16.193   7.574  12.299  0.1699  0.0154 -0.2746
11502W        W27976   2.500   0.059  12.722  0.1915  0.0155  0.0920
11503W        W27977   6.411   1.528  12.404 -0.0051 -0.1294 -0.1674
11504W        W27978  14.703   2.291  14.489  0.1873  0.1808  0.2318
11505W        W27979   8.111   3.469   1.963  0.1310  0.3458 -0.0819
11506W        W27980  14.754   0.342  16.727 -0.4331  0.2493  0.0287
11507W        W27981  12.440  11.492   3.833  0.1121 -0.3371  0.2723
11508W        W27982   4.772   7.053   1.974 -0.0275 -0.0892 -0.2919
11509W        W27983   2.235  16.074   1.074 -0.0762 -0.1641  0.1141
11510W        W27984   0.988  17.334  16.244  0.3234 -0.1188 -0.1463
11511W        W27985   3.585  14.169   0.765  0.0143  0.3124 -0.3839
11512W        W27986   2.270   0.868   5.508  0.1140 -0.2456 -0.0050
11513W        W27987   0.856   0.743   2.749 -0.0007  0.0428 -0.3251
11514W        W27988   9.476  11.532   4.270 -0.2172 -0.0122 -0.1191
11515W        W27989   8.557   9.801  12.080 -0.0794  0.1666 -0.0489
11516W        W27990   2.713   6.555   4.986  0.5607 -0.0472 -0.0543
11517W        W27991   4.587   0.836   1.205 -0.0252  0.1219  0.4114
11518W        W27992   3.442   8.719  15.279  0.1091  0.0416 -0.3341
11519W        W27993   0.198   8.110  12.474 -0.1771  0.1330  0.0649
11520W        W27994   4.331   6.492  12.608 -0.2410 -0.3382 -0.3741
11521W        W27995  13.938  16.472   5.854  0.3918  0.0483  0.0516
11522W        W27996  10.140   1.280   0.370  0.0057 -0.1211 -0.1126
11523W        W27997  10.555   7.631  12.935  0.1319 -0.2326 -0.4478
11524W        W27998   9.724  10.477  12.180 -0.0527 -0.3205 -0.2261
11525W        W27999   2.230   2.849   0.780 -0.2266 -0.0978 -0.0086
11526W        W28000   3.167   5.651   4.512 -0.1588  0.1200  0.1098
11527W        W28001  16.205   9.764   2.168 -0.1834  0.1203 -0.3405
11528W        W28002   0.290   1.488  13.791  0.1421 -0.2439 -0.1044
11529W        W28003   4.087   2.429   2.349 -0.0625 -0.2008 -0.1521
11530W        W28004  13.905  17.094  16.325 -0.1834  0.0844 -0.1180
11531W        W28005   3.690   5.490  12.517 -0.1850 -0.0917  0.1714
11532W        W28006   4.066   8.717  12.716 -0.0630 -0.2058 -0.3734
11533W        W28007   1.187   2.430   5.104 -0.0491  0.0049  0.0883
11534W        W28008   7.220   2.009   3.558  0.0857 -0.0562 -0.2252
11535W        W28009  12.290   3.239  13.909 -0.2040  0.2139 -0.2187
11536W        W28010   9.768   2.857   0.627 -0.0839  0.3280 -0.0108
11537W        W28011  12.215   2.653   0.115 -0.0091  0.2062 -0.1955
11538W        W28012   6.129  13.329  15.509 -0.0462  0.1224 -0.0894
11539W        W28013   1.884   8.146   3.593  0.0060  0.1031  0.1069
11540W        W28014   3.117   6.113   3.786  0.0253 -0.3400 -0.2949
11541W        W28015  14.376   0.145  12.145 -0.1121 -0.1683  0.0211
11542W        W28016  15.234   7.244   1.384  0.0195  0.0617  0.2482
11543W        W28017  15.025   0.778  14.951 -0.2183 -0.0919  0.0763
11544W        W28018  10.412   8.928  12.015  0.0083 -0.0287 -0.2539
11545W        W28019   6.145   9.972  14.486  0.0016 -0.0546  0.1806
11546W        W28020   1.724  15.232   3.251 -0.1280 -0.1104  0.1518
11547W        W28021   9.883   0.506  13.451 -0.1228  0.1570 -0.1112
11548W        W28022   0.666   2.923   3.541 -0.0399  0.1077 -0.1431
11549W        W28023   3.727  15.462  15.281  0.3373  0.0874  0.3995
11550W        W28024   5.049  12.483  13.541  0.0779 -0.3013 -0.0677
11551W        W28025   4.200   4.079  16.318 -0.1759  0.0596 -0.1883
11552W        W28026  12.385  11.625  13.739 -0.0409 -0.0839 -0.1147
11553W        W28027  10.784   9.739   2.082 -0.1183  0.1111 -0.3016
11554W        W28028   3.260   2.420   0.053  0.4143  0.3230 -0.3170
11555W        W28029  12.130  10.487   2.131  0.2787  0.0818 -0.1099
11556W        W28030  17.354   0.753  14.396 -0.0333 -0.2252 -0.0982
11557W        W28031  10.904   9.614  15.776 -0.4117  0.0695  0.0669
11558W        W28032  11.244   9.536   1.974 -0.2080  0.2862 -0.1447
11559W        W28033  16.149   6.010  15.468 -0.1202  0.2637  0.0489
11560W        W28034  17.251  13.908  11.446  0.2673 -0.0363  0.0165
11561W        W28035   7.554   5.964   0.898 -0.2142  0.0192  0.1089
11562W        W28036   5.927  15.708  14.662 -0.1472 -0.0243  0.1744
11563W        W28037   0.348   4.695   0.965 -0.2856 -0.0693 -0.0364
11564W        W28038   4.889  10.668  15.990  0.1779 -0.1138 -0.1251
11565W        W28039   9.948   8.097  13.459  0.2132  0.0294  0.1297
11566W        W28040   9.718   5.310   3.599 -0.2621  0.0532  0.2940
11567W        W28041  11.694   9.919  16.042 -0.2055 -0.1401  0.3557
11568W        W28042  10.542   0.166   3.128 -0.3670  0.3062 -0.1653
11569W        W28043  13.841   0.073   4.229  0.0312 -0.2175  0.0199
11570W        W28044  17.094   9.692  15.917 -0.3432 -0.1407 -0.1515
11571W        W28045   7.175   2.713   5.351  0.0210  0.2716  0.0448
11572W        W28046  13.108   5.619  13.387 -0.0785 -0.1911 -0.1664
11573W        W28047   7.753  16.350  11.147 -0.1403 -0.1864  0.1956
11574W        W28048  14.002   7.372  14.954 -0.3764 -0.1723  0.0590
11575W        W28049  16.086   0.519   0.261 -0.1936 -0.0397 -0.0783
11576W        W28050  16.600  11.209   0.590  0.0369  0.3115 -0.0952
11577W        W28051  10.216   1.834  14.972 -0.1462  0.2118  0.0078
11578W        W28052  10.840   2.718   0.803 -0.0168  0.2273 -0.0829
11579W        W28053   2.457  12.399  14.210  0.5331  0.0295 -0.0186
11580W        W28054  11.457   0.623  12.614  0.0044  0.2056 -0.0789
11581W        W28055  10.215   9.382  12.122 -0.0373 -0.0541 -0.2484
11582W        W28056  15.204   4.553  15.562 -0.0013 -0.3461  0.3347
11583W        W28057  10.584  14.948   0.685 -0.1023  0.1342  0.2092
11584W        W28058  11.890  14.297   2.713  0.1401 -0.2905  0.0552
11585W        W28059   0.259   9.144  15.399  0.2304  0.1232 -0.0377
11586W        W28060   0.173  16.589   5.501 -0.0457  0.0296 -0.0059
11587W        W28061   3.108  16.770   2.672 -0.2056 -0.4440  0.0010
11588W        W28062   7.162   9.718  15.536 -0.0968  0.0757  0.2001
11589W        W28063   5.862  10.249  12.834  0.4310  0.0680  0.0569
11590W        W28064   1.797   8.998  11.949 -0.1204 -0.1106 -0.0025
11591W        W28065  10.779   8.607  12.188  0.1429  0.0852  0.0488
11592W        W28066  14.471  17.050  15.192 -0.3898 -0.3734 -0.1940
11593W        W28067   4.854  11.370   2.549  0.3482 -0.0674  0.3589
11594W        W28068   4.735  16.530   3.820  0.2961  0.1476 -0.3495
11595W        W28069  12.894  16.012  14.266 -0.0227 -0.1169  0.1589
11596W        W28070   8.655   2.115  15.258  0.1067  0.0927 -0.0875
11597W        W28071   4.436   5.011  13.446 -0.0282  0.0672 -0.2750
11598W        W28072  16.013  14.211  13.636  0.0642  0.0172 -0.2893
11599W        W28073   8.728   4.804   2.923 -0.0196  0.2048 -0.0745
11600W        W28074  11.115   5.628   3.183 -0.3758  0.2090  0.2896
11601W        W28075  14.817   9.316  15.924  0.1346  0.2149 -0.1593
11602W        W28076  15.077  15.452   1.846 -0.1496  0.3670 -0.0454
11603W        W28077  16.578  11.700   2.252 -0.3086  0.0090 -0.2493
11604W        W28078   9.532  13.156  16.290 -0.1598  0.0172 -0.0620
11605W        W28079   5.856   3.023   5.105 -0.0364  0.0360  0.0686
11606W        W28080   6.351   4.586   0.365 -0.1365 -0.1631 -0.1413
11607W        W28081   9.909   4.731   3.293  0.0767 -0.2658  0.1676
11608W        W28082  10.146   6.255   0.326  0.3579  0.0983 -0.0716
11609W        W28083  13.119  13.285   5.195  0.1594 -0.1061  0.0498
11610W        W28084   3.579   1.542   2.583 -0.1166  0.0498 -0.0492
11611W        W28085   6.282  15.628   0.947 -0.3903  0.3378  0.2260
11612W        W28086  14.487   5.360   1.442  0.0574 -0.1495 -0.0613
11613W        W28087  17.631   6.994   2.902  0.1435 -0.0278 -0.2184
11614W        W28088   0.691  16.675   3.292 -0.0243 -0.0819 -0.1481
11615W        W28089  10.364  13.105   3.848 -0.0960 -0.0694 -0.2190
11616W        W28090   1.187  12.604  12.154  0.0900 -0.2015 -0.0028
11617W        W28091   4.604  13.518  12.195 -0.1226 -0.1046 -0.2878
11618W        W28092   8.572   8.344   2.094  0.0297 -0.2365 -0.4193
11619W        W28093   2.833   8.541   0.710 -0.0574  0.1483 -0.0493
11620W        W28094   6.538  11.050  15.353  0.1814  0.1913  0.0203
11621W        W28095   7.845   4.708   1.081  0.0403  0.0393  0.0986
11622W        W28096   9.989  10.574   2.924  0.3537  0.4455 -0.4431
11623W        W28097   4.988   3.039  12.961  0.2281  0.1210 -0.2038
11624W        W28098  10.867  17.746   0.410 -0.0705  0.0861 -0.0590
11625W        W28099  12.503  12.268   2.492  0.0055  0.0534 -0.1456
11626W        W28100   1.084   3.256  15.952  0.0888 -0.1605 -0.0152
11627W        W28101   5.027   8.094   1.840  0.1354  0.3506 -0.1023
11628W        W28102   7.126   3.952   2.776 -0.1850  0.1126 -0.0147
11629W        W28103   8.579  10.347   1.831 -0.0896 -0.0945  0.1406
11630W        W28104  10.011  13.572  11.685  0.1923 -0.0500  0.2456
11631W        W28105  10.519   3.128   1.740  0.1082  0.0710  0.0023
11632W        W28106  11.190   7.193   3.322 -0.0637  0.0813 -0.2196
11633W        W28107   6.805  13.438  12.160 -0.1598 -0.3150 -0.0245
11634W        W28108   2.110   2.766  14.319  0.2435 -0.2252 -0.1801
11635W        W28109   6.729  12.339   5.922  0.2166 -0.3372  0.1031
11636W        W28110   7.260  13.482   4.215 -0.0559 -0.3137 -0.3214
11637W        W28111   7.545  16.785  16.496 -0.2498 -0.0873 -0.0961
11638W        W28112   6.941   3.397   1.073  0.2230  0.4235  0.0153
11639W        W28113   3.917  13.082  16.744  0.0205  0.2008 -0.3279
11640W        W28114   8.501  13.241  14.516  0.1150 -0.2537 -0.0795
11641W        W28115   1.822  17.681   0.920  0.0319  0.1799  0.4814
11642W        W28116   0.917   2.104   2.680 -0.2395 -0.2496  0.1164
11643W        W28117   2.413   8.788   0.949  0.1640  0.2720 -0.0605
11644W        W28118   0.929   5.657  13.809  0.0922 -0.3048  0.2607
11645W        W28119   6.270   1.560   3.724 -0.0522  0.0904  0.3048
11646W        W28120   8.563   1.128  11.349 -0.0377 -0.2867 -0.1778
11647W        W28121  17.465  13.345  15.307 -0.0459  0.3713  0.1379
11648W        W28122   4.669   6.230  11.753  0.1614  0.0102  0.0826
11649W        W28123  17.792   3.422  12.300  0.0345  0.0516 -0.0008
11650W        W28124  15.971  14.938   2.831 -0.0951 -0.0668  0.2414
11651W        W28125   8.937   5.457  14.616  0.2334 -0.0661 -0.1706
11652W        W28126   6.944   8.937   3.393 -0.1519  0.1435  0.2018
11653W        W28127  11.776  14.701  14.381 -0.6010 -0.1211 -0.2683
11654W        W28128   2.938  12.822  15.260  0.0707 -0.4513  0.1131
11655W        W28129   7.844  13.663  12.604 -0.3608 -0.0232 -0.3440
11656W        W28130   9.714   5.285  11.826 -0.0379  0.1251  0.0375
11657W        W28131   5.462   0.040   2.077  0.0271 -0.2755  0.0534
11658W        W28132   6.922   9.464  14.205  0.0283  0.2315  0.0836
11659W        W28133  17.400   4.184  12.048 -0.0129 -0.0225  0.1963
11660W        W28134  13.842   8.833  12.852  0.0702  0.1737  0.0953
11661W        W28135  17.758   2.732   5.192 -0.3406  0.0757 -0.1120
11662W        W28136   5.437   3.481  13.905 -0.0399  0.0467 -0.0240
11663W        W28137   3.770   2.869   3.337  0.1087 -0.4053 -0.2766
11664W        W28138  16.051   6.272  14.353  0.2523  0.0168  0.1685
11665W        W28139  16.505  16.271  14.200  0.2989  0.0413  0.2130
11666W        W28140  14.333  10.744   1.642  0.1675  0.0774 -0.0514
11667W        W28141  10.418  11.645   4.423  0.1914  0.0958  0.2257
11668W        W28142  13.924  10.960  10.929  0.0835 -0.2550 -0.3935
11669W        W28143  12.712   1.353  16.634  0.0496 -0.3265 -0.1196
11670W        W28144  12.116  15.979   2.943  0.4857 -0.0996 -0.3183
11671W        W28145   3.480   4.770   2.933 -0.2405  0.3992 -0.0470
11672W        W28146   0.628  16.635   3.858 -0.1465 -0.1101 -0.1082
11673W        W28147   7.551   6.529  13.186  0.0934 -0.0077 -0.4015
11674W        W28148  10.396  16.714  11.351 -0.0452  0.1854 -0.2228
11675W        W28149   9.465  14.361  10.973  0.0044 -0.0244 -0.1509
11676W        W28150  10.933  17.066   0.801  0.1440 -0.3022  0.0085
11677W        W28151   0.787   4.363   0.508  0.2822  0.0535 -0.4684
11678W        W28152  16.095  14.011  12.193 -0.1330  0.0827 -0.0023
11679W        W28153  17.450   8.406  11.918 -0.0247  0.1673  0.0775
11680W        W28154  11.810   5.079   0.912 -0.0831  0.0397  0.1413
11681W        W28155   7.590   0.633   3.450  0.0611 -0.1193  0.1232
11682W        W28156   1.716  14.481  11.076 -0.1823  0.1800  0.1005
11683W        W28157   8.651  13.970  14.480 -0.2081 -0.0916  0.3538
11684W        W28158   7.312  16.386  16.737 -0.2156  0.0873 -0.0647
11685W        W28159  10.074   8.826   1.589  0.0450 -0.0863 -0.1446
11686W        W28160   8.423   2.420  16.569 -0.0675  0.2068 -0.3216
11687W        W28161  10.766   0.821   3.142 -0.0578  0.2390 -0.0338
11688W        W28162   6.716   2.796   0.007  0.0531 -0.1956 -0.1473
11689W        W28163  13.840   9.192   3.006  0.0874  0.1680 -0.3658
11690W        W28164   0.174  17.883   1.972  0.1734 -0.4588 -0.2355
11691W        W28165   6.232   7.342   3.841 -0.3387  0.0026  0.1705
11692W        W28166   4.625  15.068   5.992  0.0078 -0.1605 -0.2571
11693W        W28167   7.027   2.202   1.043  0.0465 -0.1007  0.3293
11694W        W28168  16.924  17.869  12.161  0.2048 -0.0069  0.5278
11695W        W28169   1.393   7.832   3.563 -0.2111 -0.0746 -0.0122
11696W        W28170   4.173   6.995   1.486  0.2298 -0.0014  0.1268
11697W        W28171  13.805   0.985   0.770  0.0861  0.3471  0.1513
11698W        W28172   0.316   0.851  12.019  0.1585  0.0608  0.1764
11699W        W28173   8.799   3.988   0.187  0.2039  0.1182 -0.1334
11700W        W28174   5.658  12.458  13.621 -0.1992  0.2679 -0.0045
11701W        W28175  13.965   2.862   0.784 -0.4062  0.1175 -0.1398
11702W        W28176  15.787   2.686  12.695 -0.1732 -0.1836 -0.0833
11703W        W28177   7.660  10.991  12.457 -0.1065  0.2346 -0.0757
11704W        W28178  14.280  15.106  11.916 -0.0064  0.0609  0.2822
11705W        W28179   2.540   9.703  11.887  0.0098 -0.1499  0.0707
11706W        W28180   2.834  13.605  16.508 -0.0866  0.0992  0.0682
11707W        W28181  16.379  17.472   3.434 -0.0069 -0.0977  0.0248
11708W        W28182  10.379   8.199  15.749  0.1422 -0.0549  0.0500
11709W        W28183   7.831   4.254   2.512  0.1446  0.0024  0.2910
11710W        W28184  17.822  10.160  11.570  0.0181 -0.0003  0.1412
11711W        W28185  13.623   3.734   2.433 -0.1970 -0.1068 -0.1294
11712W        W28186  13.181   7.549  13.731  0.2241 -0.1273 -0.0316
11713W        W28187  12.847   3.266   3.780 -0.1860 -0.1517  0.1207
11714W        W28188  10.824  14.893  12.696  0.1176 -0.0121  0.0950
11715W        W28189   9.764  15.231  15.519 -0.2982  0.0649 -0.2848
11716W        W28190   2.254   9.478  14.408 -0.3431 -0.1534 -0.1056
11717W        W28191   4.563  17.079   4.577  0.1643  0.0180 -0.2332
11718W        W28192  12.294   7.275   5.863 -0.2092  0.1141 -0.0652
11719W        W28193  12.706   9.854  11.890  0.1443 -0.2849  0.2142
11720W        W28194   9.630  17.091   1.467 -0.4065 -0.0252  0.1140
11721W        W28195  10.901  11.370  14.079  0.3829  0.0707 -0.0485
11722W        W28196   3.314  14.099  13.241 -0.0309  0.0278  0.5396
11723W        W28197   6.587   2.862  14.595 -0.1888  0.0684 -0.2327
11724W        W28198   5.949  14.907   0.580 -0.3123 -0.0971  0.3113
11725W        W28199  11.022   1.128   2.186  0.1220  0.1439  0.0653
11726W        W28200  14.317   3.075   2.941  0.0354  0.0696 -0.0040
11727W        W28201   0.602   1.603   4.894  0.1287  0.0333  0.0107
11728W        W28202  16.129  10.286  15.894 -0.3256  0.0578 -0.5244
11729W        W28203   3.925   4.556   3.545  0.0834  0.0030  0.1129
11730W        W28204   4.592  15.960   0.514  0.0311  0.0896 -0.2517
11731W        W28205   2.154   7.348  15.700 -0.1392 -0.3464 -0.2433
11732W        W28206  15.041   6.338  11.702 -0.2743  0.1324  0.1506
11733W        W28207   7.795   1.633   3.689 -0.0756 -0.0273 -0.0541
11734W        W28208   9.070   5.053  15.885 -0.0146  0.1293  0.2042
11735W        W28209  17.179  13.186  13.907  0.0538 -0.1522 -0.0974
11736W        W28210  17.434   5.253  15.088  0.0388 -0.1673 -0.0710
11737W        W28211  14.854  13.794   0.107  0.2632  0.2462 -0.1688
11738W        W28212  11.039   8.007  11.695 -0.0517 -0.0675  0.1340
11739W        W28213  12.935   6.790   2.882 -0.0197 -0.0626 -0.1154
11740W        W28214   4.543  11.058  14.019  0.0349 -0.1344 -0.0561
11741W        W28215  13.480   8.404   1.247 -0.3766  0.0199 -0.0415
11742W        W28216  12.427  16.333   3.337  0.2457 -0.0885  0.0691
11743W        W28217  15.229  15.769  11.477  0.0664 -0.0326 -0.0370
11744W        W28218   0.200  11.064   2.968 -0.0128  0.1589  0.1503
11745W        W28219  14.230   5.678  15.870 -0.0606  0.0388 -0.1961
11746W        W28220   1.254   8.411  15.253  0.1323  0.0520 -0.0182
11747W        W28221  16.847  10.168   5.182  0.1501 -0.2497  0.0547
11748W        W28222  16.167   2.556  11.710 -0.2206 -0.0334  0.4114
11749W        W28223  15.943   4.659   0.833  0.0031 -0.0264  0.0313
11750W        W28224  14.916  11.105  11.154 -0.0176  0.0477 -0.1712
11751W        W28225  14.949   9.695   4.401 -0.0321 -0.2388 -0.0265
11752W        W28226  14.182  12.721   1.531  0.0983  0.2895 -0.2249
11753W        W28227  14.112  15.972  12.526  0.0371  0.0508 -0.1157
11754W        W28228  16.736  12.322  15.436  0.1078  0.3849  0.0942
11755W        W28229  11.361  10.141  13.930 -0.1148  0.1352 -0.0469
11756W        W28230   2.243  16.777  13.574  0.1231  0.1991  0.1003
11757W        W28231  10.914   1.928  15.900  0.0276  0.0614 -0.0317
11758W        W28232   7.437   9.805  13.597 -0.2132  0.0145  0.0203
11759W        W28233   4.036  11.642   0.013  0.0607  0.0403  0.1268
11760W        W28234  17.396  11.926  13.638  0.0462  0.1473  0.0250
11761W        W28235  14.427   1.349   3.251  0.0479  0.0935  0.0553
11762W        W28236   2.041   4.049  15.943 -0.1208  0.0413 -0.0456
11763W        W28237  14.221   7.435  15.986  0.0901  0.1445  0.2306
11764W        W28238  17.053   4.135   5.625 -0.1661 -0.1625 -0.2388
11765W        W28239  17.190   4.660  11.852 -0.0474  0.2080  0.4708
11766W        W28240   1.183   4.681   2.975  0.0041  0.0905 -0.0800
11767W        W28241  15.227   4.134  15.347  0.0390 -0.2228 -0.0494
11768W        W28242  11.102  10.198   2.014  0.0611 -0.2326  0.2349
11769W        W28243  17.904  10.034  16.448 -0.1660 -0.0231  0.5452
11770W        W28244   5.778  11.753   1.400  0.0316 -0.2397  0.2464
11771W        W28245  13.913  17.578  11.841  0.0042  0.1049 -0.2601
11772W        W28246  16.529  11.413   4.667  0.0939  0.2584 -0.1670
11773W        W28247  17.960  17.219   4.710 -0.1800  0.0520  0.2116
11774W        W28248   8.008   2.857  11.696  0.1122 -0.1368  0.2348
11775W        W28249  12.242   8.750   3.030  0.0792 -0.0213  0.0380
11776W        W28250  14.463  17.936   4.679 -0.2359 -0.0017 -0.1082
11777W        W28251   4.310  13.740   3.246 -0.0267 -0.1963  0.0761
11778W        W28252   5.853  14.148  12.767 -0.1178 -0.0635  0.0765
11779W        W28253  16.666   0.391   5.343 -0.1672 -0.0135  0.2509
11780W        W28254  12.437   9.509   0.942 -0.2155 -0.0168  0.0422
11781W        W28255  17.872   9.616  15.540 -0.1914  0.3763 -0.2233
11782W        W28256   9.916  16.912  11.730 -0.3275 -0.2957 -0.0149
11783W        W28257  12.246  16.928   0.187  0.0407 -0.2242  0.1200
11784W        W28258  15.802   3.542   0.127 -0.1928  0.2091 -0.2190
11785W        W28259  13.093   9.440   0.384  0.1391  0.1570 -0.1904
11786W        W28260  13.322  11.931   5.294  0.0350  0.3101 -0.0352
11787W        W28261   5.291  10.542   4.427  0.1426 -0.2684  0.0302
11788W        W28262   5.710   8.046  12.929 -0.3004 -0.0921  0.0516
11789W        W28263   1.695  11.035   4.297  0.0467  0.3067  0.0027
11790W        W28264  12.311   6.374   5.477 -0.2631 -0.0998  0.0759
11791W        W28265   3.814   4.162   0.304  0.3233 -0.1374 -0.0851
11792W        W28266   9.883  11.719   0.849  0.0216  0.2646  0.5357
11793W        W28267  13.000  14.269  16.226  0.0710 -0.1540 -0.1141
11794W        W28268   7.716  13.542  13.116  0.2604 -0.0484 -0.1952
11795W        W28269   6.303   3.453  16.068  0.0285  0.0156  0.0135
11796W        W28270   9.789  14.734   2.116 -0.3238  0.3149  0.0661
11797W        W28271   7.418   1.292  14.783 -0.2501 -0.0178  0.3120
11798W        W28272  10.743  12.851  16.748 -0.0259 -0.1747 -0.2413
11799W        W28273  16.185   0.180  15.408  0.2705 -0.0455  0.0406
11800W        W28274  12.012   2.680   0.834  0.0929  0.3276 -0.2095
11801W        W28275  12.701   8.155   1.397  0.0175 -0.0406 -0.3668
11802W        W28276   1.706   0.325  15.789 -0.1148  0.1082 -0.0834
11803W        W28277  16.311   7.720   0.832 -0.0889 -0.0693  0.0614
11804W        W28278   7.875  11.436   3.309  0.0413  0.3729  0.0024
11805W        W28279  11.088  10.700   2.928 -0.0610  0.1507  0.1376
11806W        W28280   9.843  13.316  15.881 -0.1791  0.0487  0.3720
11807W        W28281   5.024   2.507   0.449 -0.0218  0.2533  0.0316
11808W        W28282  17.032   7.182   0.103 -0.0937  0.0849  0.2283
11809W        W28283  16.875   4.343   4.765 -0.2905 -0.0117 -0.0518
11810W        W28284  10.603   6.950   0.299  0.0591  0.1887  0.1999
11811W        W28285  13.704   8.325   2.739 -0.0183 -0.3114 -0.2175
11812W        W28286   1.346  13.002  10.929 -0.0648 -0.0229  0.0677
11813W        W28287  17.234   5.317   3.782  0.2139  0.2196 -0.1822
11814W        W28288  10.465  15.092   2.927 -0.0110 -0.2042 -0.1826
11815W        W28289  14.956  13.876   4.972  0.1158  0.0024  0.4201
11816W        W28290  11.321  15.549   0.518 -0.2347 -0.2712 -0.3642
11817W        W28291   3.573  17.768  13.077  0.0437 -0.1162 -0.2754
11818W        W28292  16.325   6.140  14.836  0.4103 -0.2031  0.1667
11819W        W28293  18.001   8.502  12.275  0.3771 -0.0411 -0.2412
11820W        W28294  15.322   5.325   4.227  0.0356  0.0730  0.0422
11821W        W28295  17.797   3.994   5.880 -0.2775 -0.1660  0.0722
11822W        W28296   6.434   8.652   0.905  0.0725 -0.2126 -0.0820
11823W        W28297   0.035   7.047   2.582  0.0494 -0.3132  0.2161
11824W        W28298  10.876  10.739   4.624  0.1308 -0.3205  0.1556
11825W        W28299  16.504   2.196  13.816 -0.1721  0.1572 -0.1639
11826W        W28300   5.718   7.992   4.610  0.1948 -0.1298  0.1067
11827W        W28301   7.332   7.117   1.782 -0.4158 -0.0396 -0.0199
11828W        W28302   4.206   7.606  11.578  0.0212  0.1294  0.0913
11829W        W28303  11.828   8.926   6.050  0.0751 -0.0331 -0.0581
11830W        W28304   2.523  14.687   0.946 -0.0021 -0.0840 -0.2200
11831W        W28305  15.617   0.970  13.647 -0.3439  0.0503  0.0374
11832W        W28306  13.740   1.886   2.061 -0.1563 -0.0526  0.2492
11833W        W28307  15.160   5.673   4.719  0.1324  0.3227 -0.0077
11834W        W28308  14.374  14.704  15.271 -0.0749  0.4162  0.0458
11835W        W28309  13.990  17.451   3.695 -0.3556  0.3439 -0.0421
11836W        W28310   7.778   1.794   0.740 -0.0330 -0.0394  0.1032
11837W        W28311  13.823   8.574  16.597 -0.0223 -0.1472  0.0744
11838W        W28312   6.601   8.424   6.427  0.0045 -0.0619  0.0238
11839W        W28313   9.505   3.559   2.013 -0.1096  0.2128 -0.1424
11840W        W28314  10.513  17.667  11.816  0.3807 -0.0352 -0.0697
11841W        W28315   0.707   1.092  12.169  0.2008  0.2381  0.0673
11842W        W28316   4.629  12.412   1.240 -0.0049 -0.3823  0.3557
11843W        W28317   6.789  15.501   3.819  0.0384  0.0297  0.0048
11844W        W28318   4.353   5.849   4.804 -0.1026  0.0241 -0.2213
11845W        W28319   0.799  13.755   3.680 -0.3860 -0.0159 -0.1742
11846W        W28320  11.965  11.543   2.692  0.1011 -0.1886  0.0796
11847W        W28321  14.247   6.423   5.521 -0.0263  0.0948  0.1353
11848W        W28322   7.444  10.629  12.920  0.2341  0.1662  0.2899
11849W        W28323   8.982  12.055   2.683 -0.0848  0.1118 -0.0397
11850W        W28324  10.048  15.395   2.749 -0.1057  0.0750 -0.3791
11851W        W28325   7.895  15.084  12.002  0.1617 -0.0307  0.1832
11852W        W28326   2.967   6.003   4.782  0.0701  0.1100 -0.1166
11853W        W28327   8.489  11.395   1.818  0.0877 -0.0426 -0.0457
11854W        W28328   0.035   5.260   1.835  0.3168  0.0748  0.0919
11855W        W28329  16.247   5.150   4.042 -0.0817 -0.2378 -0.2788
11856W        W28330  11.811  12.742   5.006 -0.1221  0.1133  0.2209
11857W        W28331  17.198   9.871   2.253 -0.0971 -0.3403  0.0840
11858W        W28332   7.109  12.172  12.347 -0.2669 -0.1435 -0.1281
11859W        W28333  13.283  16.504   3.507 -0.1305  0.0596  0.1523
11860W        W28334   8.930   2.057   2.933 -0.1613  0.1289  0.0384
11861W        W28335   1.725   0.216   5.341  0.0555  0.2363  0.3160
11862W        W28336  12.973  16.675  11.848 -0.0651  0.0780 -0.3166
11863W        W28337   1.900   3.462  11.304  0.0167  0.0083 -0.0905
11864W        W28338  11.556  15.084  14.764 -0.0143 -0.1599 -0.1243
11865W        W28339  12.811   6.270  14.870  0.1673  0.1252 -0.1236
11866W        W28340   1.122  10.217  14.444 -0.3011  0.0043  0.2967
11867W        W28341  15.796   8.743   1.815  0.5077  0.0810 -0.1644
11868W        W28342   3.930   5.059   5.275  0.2284 -0.0750  0.1231
11869W        W28343  12.308   0.237  13.899  0.2864  0.4685 -0.0256
11870W        W28344   9.148  13.404   0.828 -0.4424 -0.1895 -0.0562
11871W        W28345   5.688  15.208  14.627 -0.2909  0.1909  0.1802
11872W        W28346   5.071  15.864  12.128 -0.0585  0.1353 -0.5855
11873W        W28347   4.231  14.597   1.760  0.0913 -0.0169  0.2526
11874W        W28348  10.710   0.803  16.598 -0.0166  0.1372  0.1197
11875W        W28349  11.309   1.907   2.556  0.0524  0.1383  0.1047
11876W        W28350   6.354  14.900   3.352  0.0089 -0.1302  0.0833
11877W        W28351  17.199  11.988   0.573  0.1324  0.0704  0.0858
11878W        W28352  13.226   1.844  14.755  0.1279  0.1503  0.5516
11879W        W28353  15.423  12.494  11.548 -0.1402 -0.2387  0.3967
11880W        W28354  14.647   8.993   1.484  0.0719  0.1224 -0.3079
11881W        W28355   7.414  14.624   4.820 -0.0644  0.0066 -0.4821
11882W        W28356  10.684   2.658   1.475 -0.0024 -0.3047 -0.0845
11883W        W28357  17.366  15.982   1.890  0.0305  0.3210  0.1197
11884W        W28358   1.102   1.786  14.008 -0.1005  0.0308  0.1324
11885W        W28359  16.055  14.899  11.738  0.1720 -0.1314 -0.0235
11886W        W28360   9.366   8.634   3.397  0.0679 -0.3601 -0.2574
11887W        W28361   1.130   0.980  14.137  0.1034  0.0344 -0.3817
11888W        W28362   2.548   6.667  16.497  0.0302 -0.1310 -0.2936
11889W        W28363  17.413   3.757  14.133  0.0045  0.1048  0.0628
11890W        W28364   7.222   4.372  11.805  0.1192 -0.3103 -0.1285
11891W        W28365   1.900  16.636   3.365 -0.1552  0.1580 -0.0057
11892W        W28366   9.967  16.657   0.531  0.0509  0.1653  0.1225
11893W        W28367  13.980   2.482  16.129 -0.1960 -0.3103 -0.1346
11894W        W28368  13.180   7.238  15.582 -0.1179 -0.1402 -0.3201
11895W        W28369  15.376   1.384  12.067  0.1767 -0.2456 -0.0549
11896W        W28370   1.994   1.740   4.319 -0.3126 -0.3142 -0.0243
11897W        W28371  14.209   6.042   3.266  0.0527 -0.2450  0.0315
11898W        W28372  11.158   9.599  13.882  0.0474 -0.1156 -0.0358
11899W        W28373  14.681   1.915  11.785  0.0136  0.0004 -0.0593
11900W        W28374  13.368  13.307   2.055  0.0346 -0.1912  0.1156
11901W        W28375  16.889   3.795   0.351 -0.1874  0.2513  0.0501
11902W        W28376  12.305   6.579  16.736 -0.0935  0.0070 -0.0941
11903W        W28377   0.655   4.972  15.558 -0.0429 -0.0514  0.0058
11904W        W28378   2.845   8.553   5.102 -0.2081 -0.0599  0.2481
11905W        W28379  14.192  10.530  11.329 -0.3663  0.1358  0.3734
11906W        W28380   9.770  11.312  14.606  0.2207  0.0364  0.2273
11907W        W28381  12.046   4.899   3.182  0.1454 -0.2136  0.0997
11908W        W28382  16.389  11.983  15.061  0.2272  0.0719  0.0036
11909W        W28383  12.122   2.717  16.375 -0.0164  0.1069  0.2724
11910W        W28384  17.365  15.859   0.559 -0.0223 -0.2039  0.1238
11911W        W28385  14.820  17.019  14.440 -0.1517  0.1148  0.0543
11912W        W28386   8.497  15.643   1.926 -0.1485  0.0175 -0.0481
11913W        W28387  12.690   1.105   6.086  0.1328  0.0849  0.0040
11914W        W28388   2.547  12.831   2.448 -0.0100  0.2174 -0.4025
11915W        W28389  15.310   2.938  16.719 -0.0290 -0.0717 -0.0573
11916W        W28390  10.720  11.031   3.084 -0.2874  0.0414 -0.1719
11917W        W28391  17.857   5.371   0.385 -0.0729 -0.2071  0.3124
11918W        W28392  15.549  15.051   2.607  0.1181  0.0391 -0.3493
11919W        W28393  12.538  15.860   3.458 -0.1685  0.0787  0.0619
11920W        W28394   1.212  12.562   3.670  0.3538 -0.2154  0.0497
11921W        W28395  16.060   3.538   3.786  0.0838  0.1289 -0.0059
11922W        W28396  11.465   2.645   3.927  0.1695 -0.1621 -0.0811
11923W        W28397   5.926  12.853  13.404 -0.1504  0.5666  0.0289
11924W        W28398   4.700  13.359   4.559 -0.1503  0.2349  0.2056
11925W        W28399   9.892   4.632  13.404  0.1044  0.1382  0.2114
11926W        W28400   6.692  11.915  12.304 -0.3134  0.1084 -0.1404
11927W        W28401  17.326  13.417   3.623 -0.2108  0.0913  0.1337
11928W        W28402   1.991   5.565   3.742  0.1125 -0.0882  0.1130
11929W        W28403  14.226  17.450  16.629  0.1705 -0.1774  0.3298
11930W        W28404  15.256   1.849  14.250  0.1310 -0.1641 -0.0965
11931W        W28405  14.675  17.417  15.855  0.0634  0.1425 -0.0480
11932W        W28406  15.821   9.758   4.772  0.0706  0.2293  0.1330
11933W        W28407   5.569   6.376  15.853 -0.0882  0.2809  0.1045
11934W        W28408   9.404  10.747  11.918  0.1122 -0.1494  0.1109
11935W        W28409   8.616   3.223   1.969  0.0484 -0.0082 -0.0499
11936W        W28410   5.343  16.183   1.164 -0.0376 -0.1154  0.0397
11937W        W28411   8.190   2.842   5.190  0.1807  0.1022 -0.1530
11938W        W28412  15.044   3.068  15.722  0.0875  0.2066  0.0564
11939W        W28413   5.224   8.601  14.064 -0.1845  0.0120  0.2073
11940W        W28414   5.529   2.959  16.527  0.1474 -0.0165 -0.0468
11941W        W28415   6.356   8.269   3.765  0.0749 -0.0805  0.1296
11942W        W28416  11.150  10.297   1.496  0.2623 -0.1299 -0.0676
11943W        W28417   6.920  15.177  14.202 -0.1546  0.1418  0.0324
11944W        W28418   9.273   8.579   2.103 -0.1188  0.0362  0.1383
11945W        W28419  13.208   2.534  13.290 -0.1303  0.1241  0.1131
11946W        W28420  11.152  11.335   5.850  0.0267  0.0485  0.0120
11947W        W28421   9.823   4.023   4.393 -0.0587 -0.1709  0.0177
11948W        W28422   0.284   0.420   0.497 -0.0377  0.1359 -0.2359
11949W        W28423  12.301   0.534   5.494 -0.2303  0.0964 -0.0523
11950W        W28424  10.607  17.234   2.916 -0.0634 -0.0288  0.1008
11951W        W28425   0.374  17.182   1.613 -0.0130 -0.0683  0.0066
11952W        W28426   9.111  17.671   1.031  0.0229 -0.1699 -0.2516
11953W        W28427   2.478  16.734  12.186 -0.0261 -0.1348  0.0461
11954W        W28428   4.566   6.737  13.073 -0.2171  0.2586 -0.0084
11955W        W28429   9.794   3.393  15.717  0.3366  0.0160  0.1437
11956W        W28430   5.466   0.103   0.449  0.1988 -0.0641  0.2183
11957W        W28431  16.081   8.231  15.464  0.2003  0.0532 -0.1068
11958W        W28432   0.346   5.044   2.264 -0.2055  0.2620 -0.0780
11959W        W28433  17.401   3.775   4.354  0.0967 -0.0953  0.1158
11960W        W28434  15.873  11.850  15.245 -0.1866  0.3744  0.1683
11961W        W28435   4.517  10.992  12.217 -0.1428 -0.2269  0.0126
11962W        W28436   8.519  16.637  13.336 -0.0812 -0.2071  0.0657
11963W        W28437  11.909   5.632  13.401  0.0481 -0.0640 -0.0839
11964W        W28438  16.410   2.672   4.870  0.1792  0.2541 -0.2045
11965W        W28439   9.098   5.382   2.449  0.0964 -0.1829 -0.1647
11966W        W28440   2.408   9.716   4.149 -0.2523  0.1408  0.3788
11967W        W28441   1.778  10.265   2.757  0.3815 -0.1075  0.1147
11968W        W28442  15.183   8.836   4.043 -0.0331 -0.0695  0.3871
11969W        W28443  16.003   0.700   1.296 -0.1067  0.1098  0.2147
11970W        W28444   8.928   9.674  14.809 -0.0963 -0.2816  0.1638
11971W        W28445  11.131  16.447  12.799  0.0191 -0.1234  0.2678
11972W        W28446   7.865  11.030   5.109 -0.0186  0.0524 -0.0965
11973W        W28447  10.267   5.997  13.910 -0.2489  0.1297 -0.0167
11974W        W28448  17.928  12.951  14.254 -0.2118 -0.2020 -0.2464
11975W        W28449   7.513  10.532   4.881 -0.1041 -0.0119  0.2232
11976W        W28450  17.461   5.837  12.895 -0.0560  0.1966 -0.2215
11977W        W28451   9.481  12.364   3.470 -0.3666 -0.0115  0.0507
11978W        W28452   4.453  11.741  11.928  0.1565  0.2467 -0.1030
11979W        W28453  15.289   4.950   5.375 -0.0484 -0.4634 -0.0541
11980W        W28454   6.077  17.988   3.993  0.2988 -0.1927 -0.2015
11981W        W28455  14.410  11.449   0.192 -0.0497  0.3264 -0.0747
11982W        W28456  12.440   1.499   3.141  0.2384 -0.0097  0.3650
11983W        W28457  12.782   3.634   3.331 -0.0702 -0.2674  0.2547
11984W        W28458   5.506  14.735   2.218 -0.1588 -0.1827  0.2737
11985W        W28459  13.937   6.627  13.938  0.1579  0.1045 -0.1930
11986W        W28460   9.108  12.919   4.312 -0.3503 -0.1601 -0.0074
11987W        W28461   0.201  13.571   4.374 -0.1604 -0.0795  0.4754
11988W        W28462   0.729  13.661   5.184  0.0767 -0.4623  0.0165
11989W        W28463   7.385   1.298  16.307  0.2313  0.2084  0.1906
11990W        W28464   8.100  15.798   4.549 -0.1851 -0.0152  0.4108
11991W        W28465   3.022   8.981   0.532 -0.2431  0.0778  0.1818
11992W        W28466  12.006   2.234  16.513  0.1254  0.3877 -0.0794
11993W        W28467   1.489   3.958   5.561 -0.0900  0.0792  0.0864
11994W        W28468   9.838  10.652  14.788 -0.0327  0.1642 -0.0859
11995W        W28469   4.546   0.899  12.920  0.0561 -0.0721 -0.0183
11996W        W28470  11.143  13.410  14.324 -0.1107 -0.2203 -0.2093
11997W        W28471   0.911  13.481   1.254  0.0534  0.0494 -0.0434
11998W        W28472   7.738   0.900   1.371  0.1369 -0.0158  0.3727
11999W        W28473  13.490   8.976  14.208 -0.0360 -0.0248  0.1073
12000W        W28474   5.313   7.242   5.958 -0.0112 -0.0036 -0.1174
12001W        W28475  17.874  12.772   4.450 -0.1352 -0.0065 -0.2180
12002W        W28476   3.000   9.750   1.166  0.0309 -0.1413 -0.0739
12003W        W28477   1.381  17.121  11.690 -0.1034 -0.0756  0.2307
12004W        W28478  14.868  13.927   2.966  0.2103  0.1023  0.0275
12005W        W28479   2.475   0.348   1.664 -0.0511  0.1572 -0.0109
12006W        W28480   3.086  10.827  16.469 -0.1124  0.0496 -0.1121
12007W        W28481   5.829   7.817  14.292 -0.2102  0.1234 -0.1108
12008W        W28482  10.943  14.286  15.653 -0.3083 -0.1562 -0.1578
12009W        W28483  13.361   4.692   4.339 -0.1639  0.1597 -0.0448
12010W        W28484   0.927  17.334   1.615  0.0181 -0.1626  0.3280
12011W        W28485   1.584  10.771   2.024 -0.0406  0.3916 -0.1745
12012W        W28486  16.266   7.749   1.872 -0.2781  0.1549  0.2808
12013W        W28487   6.038  13.521  16.506 -0.0712 -0.1935 -0.2146
12014W        W28488  11.630   6.122  16.192 -0.1334  0.2022  0.2837
12015W        W28489   9.983  10.145  16.755  0.2434 -0.1079 -0.3310
12016W        W28490  14.338  15.036  13.810  0.0003 -0.2716 -0.0745
12017W        W28491   2.145   6.793  12.683  0.3252 -0.0311  0.0956
12018W        W28492  14.483  12.000   2.735 -0.3155  0.0319 -0.2415
12019W        W28493   5.345  12.734  11.992  0.1425 -0.2622 -0.0547
12020W        W28494   6.000  14.089  16.104 -0.1015 -0.0967 -0.0713
12021W        W28495   1.173   5.560   2.471  0.2966  0.1948  0.5593
12022W        W28496   9.665  14.147   1.183 -0.3374  0.1656 -0.0793
12023W        W28497  16.857  13.376   2.815  0.0355  0.1849 -0.1603
12024W        W28498   5.916  12.441   0.621 -0.0729 -0.0185 -0.0200
12025W        W28499  10.356   0.809  15.189 -0.1016  0.0978 -0.2169
12026W        W28500   4.387  16.264   4.064  0.1138 -0.2635 -0.1913
12027W        W28501  11.662  14.168   3.143  0.2244 -0.0331  0.1540
12028W        W28502  12.321  12.084  14.838  0.0731  0.2470 -0.0444
12029W        W28503  12.209  11.290   4.194 -0.0560 -0.1283 -0.2037
12030W        W28504  15.921  12.745  15.801  0.1036 -0.3903  0.0806
12031W        W28505  12.596  17.319  14.881 -0.1692  0.1251  0.2218
12032W        W28506  15.584   3.732   6.148 -0.0046  0.1112  0.0098
12033W        W28507   9.462  17.573   0.072  0.2565  0.0258 -0.0172
12034W        W28508  13.784   7.581   3.366  0.0215  0.2604  0.0744
12035W        W28509   7.055   6.114   0.928  0.2120  0.2444  0.2993
12036W        W28510   9.449   5.084  14.808 -0.1823  0.1585  0.0416
12037W        W28511   9.813   4.830   4.901 -0.1966 -0.1337 -0.0720
12038W        W28512   5.718   0.170  13.984 -0.2211  0.3046  0.3133
12039W        W28513  14.159   4.958  13.800  0.0508 -0.0678 -0.0563
12040W        W28514  12.616   6.870  12.463 -0.0360 -0.0670  0.2282
12041W        W28515  17.018   1.171   0.754  0.2114  0.5157 -0.0927
12042W        W28516  16.993   2.962   0.411 -0.0316 -0.1130  0.1414
12043W        W28517   1.457   2.147  11.646 -0.0936 -0.0128 -0.1075
12044W        W28518   0.204   5.646  12.239  0.0463 -0.0617  0.2235
12045W        W28519  13.981   9.593   2.613 -0.0305 -0.0661  0.0962
12046W        W28520   6.854   7.656  11.415 -0.1961  0.0482 -0.1718
12047W        W28521  17.690  13.413  14.056 -0.1140  0.0321  0.2511
12048W        W28522  14.186  17.763   1.666  0.1220 -0.1982 -0.2082
12049W        W28523   4.581   2.148   0.985 -0.0731  0.2879 -0.1078
12050W        W28524   1.950   6.925   2.028 -0.0302  0.1156  0.1607
12051W        W28525  10.888   4.751   0.930 -0.2873  0.3234 -0.1541
12052W        W28526   6.451   5.368   2.856  0.2606 -0.1486 -0.1194
12053W        W28527  15.055   7.334   4.007  0.1384  0.1604  0.1539
12054W        W28528  17.321  13.499  14.364 -0.2305 -0.0473  0.3011
12055W        W28529   0.905  11.661  12.407 -0.0912 -0.0303  0.0920
12056W        W28530   9.323  10.158  16.264 -0.1064 -0.1843  0.2189
12057W        W28531  14.657  10.026   0.683 -0.1829 -0.0405  0.2090
12058W        W28532   0.839   9.947   3.939 -0.2840  0.1403  0.3770
12059W        W28533   8.830  11.823  11.573 -0.1902 -0.1439  0.0426
12060W        W28534  13.095   0.782  14.928 -0.0526 -0.0097  0.1307
12061W        W28535   4.719  14.468   1.439 -0.2838  0.1753  0.1356
12062W        W28536   3.668   6.881   1.501 -0.1243 -0.2667 -0.0118
12063W        W28537  17.286  17.691  14.689  0.1073 -0.2272  0.1589
12064W        W28538  16.070   1.348   3.499 -0.0407 -0.1491  0.2291
12065W        W28539   7.999  15.068   5.382 -0.0865 -0.1919 -0.0334
12066W        W28540   9.357  13.400   1.349 -0.2345 -0.0234 -0.1924
12067W        W28541   0.961   8.080  14.690 -0.1756  0.0892 -0.0255
12068W        W28542  14.729   4.475  15.191 -0.1908  0.0544  0.1160
12069W        W28543  16.598   2.958   2.585  0.3276 -0.1084  0.0406
12070W        W28544  10.066  12.711   5.670  0.1042  0.0553  0.2041
12071W        W28545  15.372  12.684  13.751  0.0762 -0.0402 -0.2238
12072W        W28546  10.488  10.048   1.806 -0.0070 -0.2127 -0.0291
12073W        W28547   4.184  14.201  16.209  0.1584  0.0399 -0.2523
12074W        W28548  12.964   2.777   5.297  0.3912  0.2782  0.0696
12075W        W28549   6.440   5.645  13.932 -0.0727  0.0782 -0.1464
12076W        W28550   5.997   0.322  15.424  0.2870  0.1388 -0.0508
12077W        W28551   5.556  11.993  13.363  0.1438 -0.0358 -0.3018
12078W        W28552  14.946   8.662   1.317  0.0462 -0.1405 -0.0001
12079W        W28553   3.449  13.090   4.689  0.0116 -0.1020  0.2787
12080W        W28554   2.933  12.048   2.919  0.1510 -0.1736 -0.0872
12081W        W28555   3.548   6.580   2.322 -0.2026 -0.1648  0.0626
12082W        W28556   7.956  14.247  16.663 -0.0300  0.1783 -0.3555
12083W        W28557  10.062  11.791  13.319  0.1022 -0.0948  0.0543
12084W        W28558   1.409   4.662   3.526 -0.0383  0.0661  0.2353
12085W        W28559   2.115   6.244  11.906 -0.1468  0.0349 -0.0211
12086W        W28560   9.092  15.919  15.991 -0.0164 -0.1626  0.1126
12087W        W28561  11.460  16.263   2.273  0.2176  0.0688  0.2400
12088W        W28562   9.818  16.007  15.085  0.2818 -0.1368  0.1413
12089W        W28563  14.533   0.856   0.954  0.1571 -0.0778 -0.1280
12090W        W28564  16.954   1.581  16.582  0.1236  0.0189  0.2221
12091W        W28565   5.588  16.913   4.976 -0.2665 -0.3313 -0.1286
12092W        W28566  11.811  14.453   4.342 -0.0675  0.0021 -0.0034
12093W        W28567  16.530   5.358   5.775  0.0614 -0.1686 -0.1255
12094W        W28568   8.130   4.994  12.842 -0.0938 -0.2465 -0.1088
12095W        W28569   4.029   2.569  16.333 -0.1286 -0.0696  0.1991
12096W        W28570  12.840   6.472   0.723 -0.1189  0.0578 -0.1679
12097W        W28571  16.982   3.830   4.636 -0.0955  0.1197 -0.1084
12098W        W28572  14.606   7.512  15.489 -0.2183  0.1027  0.3815
12099W        W28573   2.302   4.463   1.332  0.4224 -0.1271  0.0228
12100W        W28574   5.098   4.273   1.557 -0.1693  0.2694 -0.0473
12101W        W28575   0.863   6.663  16.588  0.2718  0.0382 -0.2525
12102W        W28576   1.224  14.524  12.749 -0.3233 -0.0569 -0.3420
12103W        W28577   0.988   1.563   0.408  0.1782  0.2830 -0.1080
12104W        W28578   4.320   6.496  16.088  0.0228  0.0472  0.0557
12105W        W28579   6.710   4.941   4.606 -0.3140  0.1595  0.0392
12106W        W28580   4.898  13.669  11.615  0.0010  0.2781 -0.1495
12107W        W28581   2.883  16.151   4.717 -0.2503  0.1593 -0.1706
12108W        W28582  11.311  17.740   0.229  0.0337 -0.1006  0.0045
12109W        W28583   4.899   3.104   6.014 -0.0301  0.0273 -0.0084
12110W        W28584   9.773   3.177  12.590  0.1688 -0.0049  0.1693
12111W        W28585   1.010   8.402  12.729  0.0480  0.1158  0.0363
12112W        W28586   4.156   4.690   4.545  0.0691 -0.1167  0.3989
12113W        W28587   5.789  17.495  15.274 -0.1375 -0.1946 -0.1796
12114W        W28588  10.261  17.803  15.305 -0.0878  0.0379  0.5136
12115W        W28589   8.807   8.737   4.660 -0.1995  0.1142  0.0079
12116W        W28590   9.055  12.233  12.151  0.0149 -0.1140  0.0220
12117W        W28591  13.817   4.260   0.824  0.1704 -0.1614  0.0653
12118W        W28592  16.028   9.009  12.518 -0.0752  0.2332 -0.1645
12119W        W28593  12.869   0.576  14.069  0.0494 -0.1441  0.0334
12120W        W28594  14.191  11.190   5.293 -0.0714  0.1367 -0.0061
12121W        W28595   5.263  12.631   1.500 -0.1045 -0.0131  0.6005
12122W        W28596   1.870  16.050   0.693  0.0986 -0.0359 -0.1732
12123W        W28597  12.944  14.354  10.752 -0.2477  0.0422 -0.1716
12124W        W28598  10.012   3.979   2.705  0.3427 -0.1587 -0.2110
12125W        W28599  13.379  10.826  15.193  0.2062 -0.1362  0.1609
12126W        W28600  16.129   8.063  13.665 -0.2495 -0.0679  0.0561
12127W        W28601   0.084   1.026  15.627  0.1008 -0.1749 -0.0479
12128W        W28602   1.784  11.634  16.295 -0.1694  0.0920 -0.5088
12129W        W28603   0.916  17.750   0.338 -0.3282  0.0752  0.1884
12130W        W28604   3.067  14.167   2.616 -0.0522 -0.0835 -0.1277
12131W        W28605  13.573   1.631   4.707 -0.2339  0.3209 -0.2425
12132W        W28606   3.708   1.991  13.474  0.0612 -0.0209 -0.0665
12133W        W28607   3.501  15.733  13.372  0.2850  0.4998  0.0098
12134W        W28608  14.576   2.739  11.913  0.1502  0.0386  0.1788
12135W        W28609   8.702   5.133   0.422 -0.1154 -0.0303  0.3808
12136W        W28610   2.861   1.717  13.412 -0.1048 -0.1579  0.0552
12137W        W28611  13.568   4.867   4.987 -0.1253  0.1450 -0.2565
12138W        W28612  10.864  12.046  11.856  0.0205  0.2394 -0.0472
12139W        W28613  13.150  13.309   2.877 -0.1639  0.1422 -0.1049
12140W        W28614   5.712  17.510  16.508  0.0871  0.3621  0.0093
12141W        W28615   2.317  11.029  16.660 -0.1159 -0.0193 -0.2409
12142W        W28616   3.364  15.327   1.514  0.0221 -0.0538 -0.3130
12143W        W28617   8.511   1.976  14.665  0.0962  0.2836 -0.2774
12144W        W28618   9.658  11.765  13.629 -0.1770 -0.1654 -0.0261
12145W        W28619   2.936   9.727   2.830  0.2207  0.1445  0.1357
12146W        W28620  11.995  16.508  12.259 -0.3805 -0.2160  0.0989
12147W        W28621   4.123   7.163  11.818  0.2469  0.2759 -0.0538
12148W        W28622   3.781   6.733   0.500  0.1425 -0.0246  0.2592
12149W        W28623   1.558  11.593  12.717  0.0665 -0.1584  0.2420
12150W        W28624   3.117   6.147  15.329  0.0674  0.0435  0.0815
12151W        W28625   3.528   3.552  11.780 -0.0036 -0.2331  0.2601
12152W        W28626   6.382   7.473   0.567  0.2049 -0.2808 -0.0153
12153W        W28627   3.135   6.418  12.544  0.1824  0.0117  0.0484
12154W        W28628  13.291  17.493  12.372  0.0003 -0.1660 -0.2285
12155W        W28629  15.086   3.713  12.394  0.0695 -0.1615  0.3058
12156W        W28630   4.416  10.140   2.863 -0.0393  0.3753  0.1835
12157W        W28631  17.404  12.246   1.433 -0.0537  0.2050  0.0382
12158W        W28632  13.885   9.546   1.069 -0.0049  0.0104  0.1005
12159W        W28633  14.695   7.475   2.221 -0.2178  0.1237 -0.3224
12160W        W28634   9.118   4.004  12.232 -0.2237  0.2028 -0.2817
12161W        W28635   5.302   6.267  16.428  0.1557 -0.1621  0.2625
12162W        W28636   5.303   6.124  13.413  0.2851 -0.3149  0.0920
12163W        W28637  15.458  14.431  14.356 -0.0970  0.2507  0.0214
12164W        W28638   8.736  15.613  12.139 -0.0186 -0.1129 -0.4821
12165W        W28639   8.145   7.145  12.938 -0.1770 -0.0451  0.1495
12166W        W28640   6.689  16.910   4.190  0.0003 -0.0854  0.1226
12167W        W28641  12.937   5.741   3.881 -0.1082  0.0428 -0.2251
12168W        W28642  17.322  14.129  14.839  0.1598 -0.2868  0.0673
12169W        W28643   1.336   7.636  13.679  0.1653 -0.1775  0.1371
12170W        W28644   0.901   3.676  16.238  0.2137 -0.1018  0.1363
12171W        W28645   8.844   7.370   6.288 -0.0229  0.0076 -0.0622
12172W        W28646   3.609   4.703  13.328 -0.1953 -0.0467  0.1049
12173W        W28647   1.296   0.952  15.695 -0.0511 -0.1458  0.0413
12174W        W28648   6.497  12.565   1.574  0.0817  0.0266  0.0182
12175W        W28649  16.895  15.598  12.564  0.0710  0.0087  0.0405
12176W        W28650   0.309   7.613  14.528  0.1695 -0.0685  0.1312
12177W        W28651   2.108  15.218   0.251 -0.2132  0.0310  0.0869
12178W        W28652   0.552   5.361   2.622 -0.0724 -0.2374 -0.3904
12179W        W28653  13.939  14.592   2.245  0.0444  0.0679 -0.1908
12180W        W28654   2.690   1.286   0.605 -0.1427  0.2004 -0.3648
12181W        W28655  16.430   6.236   3.823 -0.2295 -0.1600 -0.0909
12182W        W28656   5.044   9.655   3.336 -0.3285 -0.0550 -0.0434
12183W        W28657  12.889  12.243  13.128 -0.1916 -0.2538  0.2742
12184W        W28658  17.657  12.647  11.933 -0.0323 -0.1630 -0.2052
12185W        W28659   4.220  17.252  11.849  0.2010  0.0887 -0.2007
12186W        W28660   7.676   2.088  15.279 -0.3445  0.0024  0.2269
12187W        W28661  17.756  17.576  12.519  0.2157  0.1610  0.2603
12188W        W28662   9.124   6.746   2.005 -0.1812  0.1696  0.0266
12189W        W28663   9.187   6.799  16.115 -0.0249  0.0880  0.0673
12190W        W28664   0.702   1.561   2.490  0.0015 -0.0741 -0.2801
12191W        W28665  17.729   6.617   4.860  0.0426 -0.2618 -0.1150
12192W        W28666   6.919  11.411  15.212 -0.2337  0.1109 -0.3702
12193W        W28667  17.860  15.543   0.361  0.0578  0.0093  0.1616
12194W        W28668  12.630  14.488   1.652 -0.1509 -0.1726  0.2378
12195W        W28669   7.471  11.269  13.524 -0.3999 -0.0598 -0.0754
12196W        W28670   1.310  14.592  11.390 -0.1971 -0.2119 -0.0952
12197W        W28671   1.928   7.740   2.240  0.2812  0.0253 -0.2748
12198W        W28672   9.915  14.716   4.658 -0.2773  0.0277 -0.4787
12199W        W28673   5.034   8.382  14.522 -0.2498 -0.0316 -0.2037
12200W        W28674  15.472  16.327  12.235 -0.3912 -0.4820  0.2378
12201W        W28675  17.505   3.277  14.247 -0.2358  0.2796 -0.0072
12202W        W28676   3.866  14.853   1.882 -0.1366 -0.3031 -0.1323
12203W        W28677   0.257   9.909   4.996 -0.1293 -0.0442 -0.3370
12204W        W28678   0.426   9.624  15.564 -0.1644 -0.1341 -0.1745
12205W        W28679  17.031  10.371  11.994  0.2260  0.0651  0.1007
12206W        W28680   2.968  15.821  15.043  0.0955  0.4863 -0.0106
12207W        W28681   7.311   6.367  13.593  0.0164 -0.1592 -0.0817
12208W        W28682   1.976  17.255   2.536  0.5481 -0.0775  0.0107
12209W        W28683   9.768  13.258   3.265 -0.1297  0.0801  0.0555
12210W        W28684  14.469   0.074   3.322  0.0175 -0.0907  0.1384
12211W        W28685   2.203   5.235   5.308 -0.1415  0.1422  0.0402
12212W        W28686  10.818   4.877  12.060 -0.3018  0.2011 -0.0971
12213W        W28687  14.215   3.070   1.615 -0.0771  0.2260  0.2436
12214W        W28688   5.002   3.893   1.228  0.3354  0.1162 -0.1980
12215W        W28689  12.209  17.716  14.529  0.1412  0.0463 -0.0454
12216W        W28690   2.130  14.286  11.717 -0.1529  0.0133 -0.1372
12217W        W28691   9.154  13.849  14.612 -0.3901  0.1582 -0.0183
12218W        W28692   6.527  12.372  14.471 -0.1329  0.1996 -0.0966
12219W        W28693  12.833  12.009  14.951  0.1930  0.1505 -0.0810
12220W        W28694   5.832   9.942   2.966 -0.5520  0.1776 -0.1009
12221W        W28695  14.414   4.673   3.310  0.1784 -0.0634 -0.0131
12222W        W28696  17.184   3.424  13.659  0.0062 -0.1805 -0.0541
12223W        W28697   7.020  13.958   1.988  0.0015  0.1370 -0.2530
12224W        W28698  15.846   0.639   0.792 -0.1591 -0.1846 -0.0761
12225W        W28699   7.661  16.701  15.960  0.2263  0.2166  0.2310
12226W        W28700   6.605  14.804   1.124  0.0105 -0.0612  0.0692
12227W        W28701  16.509   7.963  12.987  0.0873 -0.0259 -0.0687
12228W        W28702   9.714  15.655   1.861 -0.2228  0.0247  0.1993
12229W        W28703   9.452   6.873   2.522 -0.0193 -0.2223 -0.1392
12230W        W28704   8.327  10.225  12.339  0.0211 -0.0072 -0.1313
12231W        W28705  13.128   7.533  11.348  0.1719  0.1306 -0.0460
12232W        W28706   4.792   6.378   1.352  0.0744 -0.4649 -0.0856
12233W        W28707   2.332  12.465  15.139  0.0492 -0.1333 -0.3591
12234W        W28708   6.387   1.681   1.674  0.0886  0.0305  0.0960
12235W        W28709   4.766   0.349   4.998  0.1477  0.0386 -0.0780
12236W        W28710  16.856   4.459   2.889  0.2193  0.1596  0.2304
12237W        W28711  16.668  15.384   1.037  0.0399 -0.0569 -0.3734
12238W        W28712  16.649  11.741   1.311 -0.0803 -0.0652 -0.3566
12239W        W28713   9.356  13.339  12.108 -0.1545  0.1675  0.2541
12240W        W28714  13.423  11.561   2.772  0.0486  0.1757  0.3693
12241W        W28715   8.438   8.010   1.480 -0.1450  0.0775  0.3688
12242W        W28716  13.402  13.556  14.197 -0.0788 -0.3257  0.0846
12243W        W28717  15.086   5.641  16.114 -0.1768  0.0146 -0.0804
12244W        W28718   6.666  12.407  12.529  0.2058 -0.1032 -0.2339
12245W        W28719  15.592  13.448  14.785  0.0740  0.0598  0.0686
12246W        W28720   5.835  12.204  14.026 -0.0485  0.1235  0.1091
12247W        W28721   2.341   7.246   5.904  0.0468 -0.1370 -0.0469
12248W        W28722  14.336   6.264  11.627  0.1803 -0.2459 -0.0022
12249W        W28723  12.096  11.062  15.875 -0.1362 -0.2891 -0.1764
12250W        W28724  17.526   9.999   5.737 -0.0537 -0.4461 -0.2572
12251W        W28725   5.903   8.688   2.687  0.0199  0.0740 -0.2990
12252W        W28726  11.558   1.064  15.853  0.0501  0.2059  0.1566
12253W        W28727  17.930   9.864   1.610 -0.2569 -0.0512  0.1265
12254W        W28728   2.217   1.936  11.763  0.4902  0.1926 -0.4592
12255W        W28729   0.463  11.244   4.309  0.1312 -0.0542 -0.2575
12256W        W28730  14.924   3.460  14.634 -0.2622  0.2824 -0.0996
12257W        W28731   6.675   7.426   4.047 -0.1052 -0.3582 -0.0839
12258W        W28732   4.425  13.240  10.632 -0.0125  0.4533 -0.2934
12259W        W28733  16.524  14.416   1.987 -0.1970 -0.2916  0.0309
12260W        W28734   2.073  16.367  12.236  0.3930  0.2567 -0.0346
12261W        W28735   9.124  13.280   0.236  0.0731  0.3564  0.2146
12262W        W28736   3.462   5.853   4.073  0.0285 -0.0001 -0.1669
12263W        W28737  17.099   1.328  11.665  0.2282  0.1365  0.1911
12264W        W28738   2.925   6.846   1.592 -0.2064  0.4325 -0.0956
12265W        W28739  11.936  12.317   0.908 -0.1071 -0.2917 -0.1040
12266W        W28740   1.069   0.328   4.818 -0.1863 -0.1822 -0.1527
12267W        W28741  12.489   3.995  15.655  0.0604 -0.1618  0.3085
12268W        W28742  10.768   3.181   3.379  0.0824 -0.2905  0.2175
12269W        W28743   4.356   0.582  12.181 -0.0288 -0.0289 -0.1210
12270W        W28744  15.525  14.528   0.950 -0.1105  0.2774 -0.0585
12271W        W28745   3.533   2.177  16.544  0.0046 -0.0892  0.2210
12272W        W28746  16.028  11.343   3.508  0.1074 -0.0904 -0.0973
12273W        W28747   7.249   3.214   5.364  0.2785 -0.1377  0.0353
12274W        W28748  17.903  14.655   3.965 -0.4293 -0.0539  0.0945
12275W        W28749  14.044   9.009   0.269  0.2072  0.1335  0.2626
12276W        W28750   5.299   4.630  14.285  0.1553  0.0143 -0.1856
12277W        W28751   3.902   4.018  15.469 -0.0678  0.1106 -0.0243
12278W        W28752   6.691  11.347  12.884  0.1227  0.1788  0.2788
12279W        W28753   3.766  11.021   0.421 -0.6113 -0.0581 -0.2852
12280W        W28754   0.932  17.033   3.052  0.0533  0.1946 -0.2166
12281W        W28755   4.465   6.545  15.646 -0.1756 -0.3452  0.0712
12282W        W28756  12.633  12.747   4.407 -0.0973  0.0648  0.2104
12283W        W28757   7.371   8.873   4.159 -0.2369 -0.2083 -0.1326
12284W        W28758   9.757  17.533  13.929  0.0353 -0.4794 -0.1500
12285W        W28759  10.735   0.418  15.576 -0.1318 -0.2271  0.0210
12286W        W28760   3.253   1.553  15.877 -0.0347  0.1500 -0.1138
12287W        W28761   0.034   1.439  15.329  0.1545  0.2259 -0.0314
12288W        W28762  13.860  11.861  15.034  0.3825 -0.1776  0.4161
12289W        W28763  11.645  17.029  14.883 -0.2963 -0.1196  0.0226
12290W        W28764   5.002   0.689  13.554 -0.0131  0.0782 -0.1985
12291W        W28765  11.651  12.444  16.774 -0.2129  0.0399  0.4052
12292W        W28766  13.175  17.355   3.348  0.1736  0.3066  0.1395
12293W        W28767  15.980  14.771   5.340 -0.0792  0.1817 -0.2349
12294W        W28768   9.020  17.325   0.119  0.2583  0.0553 -0.3435
12295W        W28769   7.666   1.657  16.512  0.0296 -0.1298 -0.1120
12296W        W28770  13.839   3.208  12.879 -0.0960  0.0571 -0.1073
12297W        W28771   7.249   5.468  13.935  0.0274  0.3659  0.1507
12298W        W28772  17.855   4.701   3.493  0.1720  0.0879 -0.1790
12299W        W28773   7.454   7.563   1.995 -0.0835  0.1541 -0.0400
12300W        W28774   6.676  14.295  15.192 -0.0037 -0.3103  0.4004
12301W        W28775   6.915   8.889   4.535  0.0575 -0.1846 -0.2143
12302W        W28776  16.856   0.271  12.484 -0.2580  0.4239 -0.1198
12303W        W28777  11.726   1.705  14.605 -0.0068  0.0924 -0.0545
12304W        W28778   3.724   5.560   1.748  0.1264  0.0051 -0.0457
12305W        W28779  15.783   3.330  15.117  0.0547  0.0088 -0.1036
12306W        W28780   0.161  10.876   2.026  0.0167  0.0122 -0.0316
12307W        W28781   3.117   9.037   5.147  0.3441 -0.1333  0.0108
12308W        W28782  15.809   2.375  15.219  0.1513  0.0270  0.1078
12309W        W28783  10.691  13.806   0.376 -0.2214 -0.1172 -0.2176
12310W        W28784   1.003   2.777  15.814  0.0485  0.0703 -0.0212
12311W        W28785  17.116  16.124   0.187  0.0783 -0.0201 -0.1549
12312W        W28786   0.069  15.728   4.745 -0.0305 -0.2105 -0.1500
12313W        W28787  12.986   1.509  16.191  0.3366 -0.4160 -0.0833
12314W        W28788   2.150   4.306   4.160 -0.2944 -0.1948  0.2608
12315W        W28789   7.219  15.829   3.473 -0.1221 -0.1684  0.1263
12316W        W28790   8.941  12.630   1.400  0.1905  0.2201  0.3724
12317W        W28791  17.778   4.861  14.284 -0.1094 -0.1761  0.0228
12318W        W28792  10.916  15.991   4.800 -0.0920  0.2260 -0.0877
12319W        W28793   0.112  12.742   2.114  0.0923  0.1115 -0.0087
12320W        W28794  16.389  12.484  15.074  0.0282 -0.1012 -0.1230
12321W        W28795   3.542   9.504   3.897  0.0276  0.0234  0.2082
12322W        W28796  14.295   0.780   4.487  0.1159 -0.0191  0.2996
12323W        W28797  16.906   8.122  15.604  0.0465 -0.2159 -0.0292
12324W        W28798  10.691  17.261   4.697  0.0080 -0.1700 -0.2477
12325W        W28799  16.868   2.574  15.211  0.2148  0.3540 -0.1279
12326W        W28800  12.132  10.842   0.215  0.0330  0.0993 -0.2160
12327W        W28801  11.481   4.437   1.479  0.1840  0.0795 -0.1901
12328W        W28802   7.603  16.954   2.731  0.2903  0.0607 -0.3081
12329W        W28803   8.793  17.732  11.441 -0.0251  0.1897  0.1334
12330W        W28804  14.492   5.536   3.045  0.0052 -0.0509 -0.0504
12331W        W28805   4.668   2.665  13.934  0.2798 -0.2190  0.2720
12332W        W28806   6.764  15.856  14.765 -0.0068  0.1191 -0.2211
12333W        W28807  12.725   3.530  14.610  0.2103 -0.1283 -0.0345
12334W        W28808   6.940  13.260   5.170  0.0968 -0.3019 -0.1789
12335W        W28809   7.807  14.348   5.005 -0.0405  0.1237 -0.2024
12336W        W28810   4.554  16.279  16.034  0.1285  0.3207 -0.0356
12337W        W28811  11.495  16.163   4.112  0.0330 -0.2890 -0.2369
12338W        W28812   2.281   4.932   2.617  0.1374 -0.1064 -0.1708
12339W        W28813  10.628  13.195   1.199 -0.1413 -0.0187  0.2843
12340W        W28814  11.880   6.513  15.338 -0.2015 -0.2065 -0.1451
12341W        W28815   5.649  16.243  13.827  0.0873  0.0120  0.1588
12342W        W28816   1.839  13.512   2.253  0.1396 -0.0270  0.3382
12343W        W28817  10.456   9.615   1.639 -0.0737  0.2055 -0.0546
12344W        W28818   4.212  15.541   2.611  0.2004  0.0073 -0.3213
12345W        W28819  10.212   9.851  16.429 -0.1822  0.0577  0.0033
12346W        W28820   9.692  13.685  16.241 -0.2243  0.1409 -0.0830
12347W        W28821  10.261   8.562  12.358 -0.2019 -0.1428  0.0306
12348W        W28822   5.619   4.814   0.745  0.0760 -0.0336 -0.1691
12349W        W28823   8.404  16.539  11.642  0.2476 -0.1387 -0.1329
12350W        W28824   4.358   9.324   3.264  0.2787  0.1965  0.2174
12351W        W28825  15.817   7.912  15.949  0.1296 -0.0528 -0.2467
12352W        W28826  11.188   5.862   5.548 -0.2492 -0.1314  0.0714
12353W        W28827  17.401  11.694   4.932  0.1184  0.0116 -0.0165
12354W        W28828   4.796   9.694   5.161 -0.1423 -0.0837  0.2513
12355W        W28829   4.159  14.608   0.944  0.1258 -0.0417 -0.1002
12356W        W28830   7.054  17.251   5.157 -0.0328 -0.1338 -0.0924
12357W        W28831  15.285   3.478  16.570  0.2633 -0.0388 -0.0040
12358W        W28832   6.593   9.170   4.323 -0.0436 -0.1283  0.0427
12359W        W28833  17.029  14.875  12.308 -0.2953 -0.1740  0.0484
12360W        W28834   6.819   4.745  13.916  0.2019  0.4685  0.2686
12361W        W28835   7.967   8.405  12.454 -0.0134 -0.4724 -0.0015
12362W        W28836   6.193   8.055  14.505 -0.0946  0.0399  0.0511
12363W        W28837   8.837   8.054   3.297  0.1734 -0.3221 -0.0141
12364W        W28838  15.194   1.058  15.849 -0.0619 -0.0126 -0.2284
12365W        W28839   1.348   3.433  16.352  0.2318 -0.0872 -0.0835
12366W        W28840   9.168  16.162  12.752  0.0216 -0.1538  0.1992
12367W        W28841  14.443   2.202  16.281 -0.3459  0.1725  0.5232
12368W        W28842  12.248  11.641  16.639 -0.1553  0.1496  0.1724
12369W        W28843  11.964  16.955   5.404  0.2242 -0.0998 -0.0876
12370W        W28844  15.812   3.081  14.572 -0.1980 -0.1934  0.1173
12371W        W28845  13.430   3.803  12.714  0.0429  0.4007 -0.0297
12372W        W28846   7.177   1.855  16.350 -0.2119  0.2736  0.1205
12373W        W28847  12.560   5.194   3.780 -0.0368  0.0029 -0.0117
12374W        W28848   5.561   0.905  14.887  0.0631  0.1572 -0.0529
12375W        W28849  13.110  15.157  12.353  0.2166 -0.4042  0.3748
12376W        W28850   6.724   2.391  14.484  0.0388  0.0905  0.0432
12377W        W28851   9.505  16.431   3.603  0.1159 -0.1283 -0.0225
12378W        W28852  12.354   9.866  12.357  0.0545  0.0709 -0.0351
12379W        W28853   2.877   7.039  14.802 -0.1792  0.2131  0.1048
12380W        W28854   6.850   6.114   4.251  0.0681  0.1958  0.0976
12381W        W28855  17.373   8.830   6.002 -0.2531  0.3196 -0.0367
12382W        W28856  11.594  12.641  12.579 -0.1264  0.1320  0.0970
12383W        W28857   5.190   4.594  13.192 -0.2617 -0.3548  0.1013
12384W        W28858   2.573   0.056  16.023 -0.1845 -0.2932 -0.2005
12385W        W28859  14.996   5.183  13.164 -0.4460 -0.0543  0.0495
12386W        W28860   2.153   7.830  11.581 -0.0455 -0.2885  0.3059
12387W        W28861   2.163  17.005   3.677 -0.0587  0.0482 -0.0008
12388W        W28862  10.097  16.854   1.396 -0.2027 -0.0402 -0.0071
12389W        W28863  11.340  16.736  16.058 -0.1824 -0.0664 -0.0956
12390W        W28864   6.009   5.533  14.779  0.0114 -0.1416  0.0951
12391W        W28865   8.474  17.495   0.575 -0.2163  0.0990  0.0301
12392W        W28866   0.686   5.074   1.024  0.1060  0.0260 -0.0578
12393W        W28867  15.449  10.778   3.780  0.0664 -0.0579 -0.0493
12394W        W28868   7.094  15.872   5.790  0.1396 -0.0579  0.0901
12395W        W28869  10.885   3.244   5.809  0.0900  0.1952 -0.0130
12396W        W28870   1.959   1.193  14.797  0.0629 -0.1084 -0.2972
12397W        W28871   7.415   1.858  14.477 -0.1270  0.1970 -0.2318
12398W        W28872   3.915  14.013  15.449 -0.0044  0.0247  0.0530
12399W        W28873   8.394   5.229  16.279  0.0398 -0.1370  0.3127
12400W        W28874   8.069   0.603   1.100  0.0003  0.1789 -0.1764
12401W        W28875   9.383  11.801   3.076 -0.1175 -0.1647  0.0024
12402W        W28876   8.076  16.491   5.161  0.0743 -0.0748 -0.2644
12403W        W28877   6.778   1.092  11.582  0.1584 -0.2496 -0.1592
12404W        W28878  11.226  14.882   3.312  0.0166 -0.4661  0.0766
12405W        W28879  15.709   2.064  16.750  0.1210  0.1040  0.1887
12406W        W28880  13.775  10.248   4.238  0.1435 -0.0110 -0.2253
12407W        W28881   1.663   1.002   4.744  0.0424  0.3448  0.0832
12408W        W28882  15.476  12.813   3.058 -0.4326 -0.2345  0.2764
12409W        W28883  11.718  15.819   2.641 -0.0165 -0.1701 -0.1980
12410W        W28884   9.254   7.482  14.224  0.2187  0.1187 -0.0186
12411W        W28885   2.372   6.455   3.606  0.1566  0.1148  0.4081
12412W        W28886   3.313   9.386   2.958 -0.1216  0.3099  0.0317
12413W        W28887  16.872   2.558  16.111 -0.1478 -0.1821 -0.3130
12414W        W28888  12.779   3.476  14.095  0.2476 -0.0466 -0.0176
12415W        W28889   5.209  10.873   2.134 -0.0610  0.3245  0.0507
12416W        W28890  12.690   6.394   1.775 -0.0763  0.2697  0.0821
12417W        W28891   0.603   4.106   3.242 -0.1912 -0.0877 -0.1391
12418W        W28892   9.157  13.289  13.905  0.1940 -0.1302 -0.0037
12419W        W28893   7.155   2.261  15.151 -0.0366 -0.1180  0.0563
12420W        W28894   2.994   5.392  14.721  0.0142 -0.2459  0.0729
12421W        W28895   3.599   4.016   6.780  0.2025  0.1496  0.1230
12422W        W28896  12.947   7.827   5.143 -0.1300 -0.3589 -0.0777
12423W        W28897   3.131   6.141  13.003  0.2636 -0.2317  0.0040
12424W        W28898  15.695  11.983   0.435  0.0167 -0.0320 -0.0526
12425W        W28899   1.945   8.285   0.247  0.0038  0.1845  0.0753
12426W        W28900  14.076  15.278   4.082  0.0999 -0.0011 -0.3095
12427W        W28901   9.649   9.316  12.420  0.0321  0.2022 -0.3944
12428W        W28902   4.594  17.516   5.159  0.2355  0.1508 -0.0913
12429W        W28903   2.684   4.839   6.173  0.0274  0.1147 -0.1565
12430W        W28904  12.133   1.077   3.093  0.2080  0.0646  0.2683
12431W        W28905   9.709  13.384   2.214 -0.3337  0.0290 -0.1876
12432W        W28906   6.359   0.005   0.495  0.2163  0.1514 -0.2385
12433W        W28907   9.433   4.882  11.940  0.2208 -0.1888 -0.3218
12434W        W28908   1.925   4.897   5.618 -0.1847  0.1772  0.0092
12435W        W28909   8.426   8.547  12.542  0.1005 -0.0707 -0.2537
12436W        W28910   8.092   8.086  15.226  0.0170 -0.2788 -0.2079
12437W        W28911   3.133  12.289   5.086 -0.3060 -0.3549  0.0223
12438W        W28912   9.631  17.265  14.317  0.4960 -0.0291 -0.2588
12439W        W28913  15.378  17.272  15.850  0.2028  0.0925 -0.2632
12440W        W28914  10.188   4.205   4.015  0.3336  0.1746  0.0070
12441W        W28915  13.508  13.520   0.070 -0.0872  0.1429  0.0246
12442W        W28916  17.565   1.740  14.194 -0.1114 -0.2020 -0.3623
12443W        W28917   3.010   1.312  16.385  0.0618  0.1514 -0.0551
12444W        W28918   1.103  12.036  13.385 -0.1127 -0.1382 -0.0431
12445W        W28919  15.450   4.216   4.711  0.3359  0.1002  0.0568
12446W        W28920   2.555  13.383   0.647 -0.0683  0.2642  0.0405
12447W        W28921  10.331  15.585   3.080  0.3093  0.1043  0.0279
12448W        W28922   1.648  17.894  13.725 -0.0759 -0.0899  0.1563
12449W        W28923  11.366  17.974   1.729  0.0408 -0.2004  0.2973
12450W        W28924   5.639   6.918   3.560 -0.0523  0.1003  0.0745
12451W        W28925  11.124   1.104  16.759  0.2370 -0.0172 -0.1702
12452W        W28926  11.933   4.014  14.940  0.3066  0.1512  0.0162
12453W        W28927  10.518  13.873   2.026 -0.0490  0.1297 -0.1870
12454W        W28928   1.874  11.029  15.389  0.0670 -0.1405  0.2316
12455W        W28929   8.934   2.020  14.872  0.2589  0.1795 -0.0175
12456W        W28930   1.660   5.036  13.791  0.0854  0.1779 -0.1797
12457W        W28931   9.161   9.724  16.680  0.0995 -0.2852  0.0532
12458W        W28932   9.335   0.987  14.115  0.1698 -0.2509 -0.0962
12459W        W28933   9.963   4.130  13.639  0.0413  0.0580 -0.1551
12460W        W28934  16.760   1.432  11.295 -0.1106  0.2993 -0.1842
12461W        W28935  15.138   9.975   2.990  0.1207  0.0693  0.0193
12462W        W28936  16.895  15.742   2.086 -0.0359 -0.1569  0.4659
12463W        W28937  11.333  13.996   1.456  0.3214  0.0141 -0.0589
12464W        W28938   9.289   5.649  13.092 -0.1905 -0.1841  0.0706
12465W        W28939   1.612  15.368  12.975  0.1781  0.2406 -0.0334
12466W        W28940  11.410   6.096  13.545 -0.1580 -0.4120  0.2181
12467W        W28941   6.178   6.079   0.080  0.3050  0.0701  0.3444
12468W        W28942  10.230   4.489  12.506  0.3739 -0.1406  0.4009
12469W        W28943  12.128  14.018   5.633 -0.1919 -0.0604 -0.1500
12470W        W28944   9.518  12.528   4.953  0.0835  0.3256  0.2979
12471W        W28945  12.362   4.430  13.689  0.2077 -0.0803 -0.0589
12472W        W28946   0.594   6.378  14.351 -0.0229  0.1720 -0.0094
12473W        W28947   9.770   7.681  14.345  0.1048  0.0852  0.0265
12474W        W28948   7.156   4.290  13.716 -0.0794 -0.1128  0.3161
12475W        W28949   8.669   9.074   6.026  0.1945 -0.0093 -0.0568
12476W        W28950   5.530   9.623   3.288  0.0451 -0.0299 -0.0316
12477W        W28951   1.262  16.364   5.281 -0.0570  0.2071 -0.0198
12478W        W28952   3.230  15.393   2.482 -0.0536  0.0090 -0.2265
12479W        W28953  13.486   4.710  14.299  0.3966  0.0579  0.1002
12480W        W28954   1.814  16.730  14.390 -0.1531  0.1625 -0.0729
12481W        W28955   5.099  17.135   4.345  0.1278 -0.0466 -0.1793
12482W        W28956   6.775   6.351  13.560  0.5746 -0.1015 -0.4509
12483W        W28957   7.651  11.501  14.811 -0.1507  0.0143 -0.1268
12484W        W28958  13.616  15.327  13.797 -0.2828  0.0475 -0.1341
12485W        W28959  14.145   3.915  13.202  0.1456  0.2782 -0.4441
12486W        W28960   9.464   3.916   4.027  0.1194 -0.0694  0.1047
12487W        W28961   0.369  10.359  14.188 -0.0387  0.1632  0.0542
12488W        W28962   3.181  10.053   0.334 -0.0714 -0.1099  0.1244
12489W        W28963  16.836   8.401   5.343 -0.1772  0.0280  0.0485
12490W        W28964  15.333   9.267  13.577  0.0286  0.0268 -0.2277
12491W        W28965  12.229  11.154   4.725  0.0939  0.0748 -0.2538
12492W        W28966  12.368   8.980   0.817 -0.0223 -0.0908 -0.1238
12493W        W28967  13.487  13.486  16.366 -0.1716  0.2460 -0.0203
12494W        W28968  16.517   0.484  13.358 -0.0352  0.3595 -0.0560
12495W        W28969  16.329  12.960   4.355  0.0830  0.1511 -0.2787
12496W        W28970   9.505   7.567   2.164 -0.2327 -0.3465  0.1486
12497W        W28971   5.537   2.087   0.483  0.0101 -0.0104 -0.0067
12498W        W28972   5.510   3.564   3.607  0.0435  0.3164 -0.0071
12499W        W28973  15.498  11.219   1.424 -0.1730 -0.2040 -0.3075
12500W        W28974   7.966   9.357  16.497  0.0119  0.0084  0.0863
12501W        W28975   1.705  14.575  16.172 -0.1391 -0.0074 -0.0300
12502W        W28976   3.829  10.032  15.020  0.1098 -0.2489 -0.3935
12503W        W28977   6.848  15.758   0.136  0.3190  0.1024  0.4282
12504W        W28978   3.629  10.757   5.256 -0.0909  0.0188  0.0228
12505W        W28979  16.327   8.505   5.256  0.2671  0.1228 -0.1526
12506W        W28980  17.342   5.684   3.462  0.0075  0.0365 -0.0198
12507W        W28981   4.064  13.726  13.805 -0.4666  0.2964 -0.0806
12508W        W28982  10.497  12.728   4.840  0.1080  0.0723 -0.2940
12509W        W28983  15.202  10.534  12.023 -0.0012 -0.0477  0.0080
12510W        W28984  15.260   4.833   4.589  0.1941  0.0046 -0.1232
12511W        W28985  14.110   9.797   4.188  0.2531 -0.1653  0.0848
12512W        W28986  10.358   8.420  13.795  0.1538  0.4918 -0.1063
12513W        W28987   9.892   1.204   0.820  0.1597  0.0715 -0.2650
12514W        W28988   3.590   0.128  16.771  0.1642 -0.2230  0.0490
12515W        W28989  12.927   1.990   5.889 -0.0822 -0.0497  0.0757
12516W        W28990   8.405   8.354  13.413 -0.3843  0.1897 -0.1884
12517W        W28991   7.326  15.448   0.102 -0.1015  0.2645  0.1048
12518W        W28992   2.525   4.598  14.744  0.0719 -0.2940 -0.0352
12519W        W28993   3.846  17.911  15.468  0.0807 -0.1382 -0.1044
12520W        W28994  15.416  12.242  14.932  0.1053  0.0578 -0.1193
12521W        W28995  11.567  17.349   0.433  0.2979  0.2361  0.0726
12522W        W28996   6.116   5.116  15.896 -0.0094 -0.2757 -0.1680
12523W        W28997   2.830   7.875   2.138  0.1515  0.3944 -0.1398
12524W        W28998   0.049  15.283   5.128  0.1153  0.0468 -0.0639
12525W        W28999   4.545  14.830  12.326  0.1113  0.0173  0.1128
12526W        W29000  10.411  11.851   1.779 -0.3752  0.0907  0.3738
12527W        W29001  12.861   5.034   5.861  0.0040  0.1254 -0.1567
12528W        W29002  11.264  11.873   1.922 -0.2778  0.4668  0.0341
12529W        W29003   1.586  17.612  12.449  0.3125  0.1019  0.0090
12530W        W29004  14.865   3.817   2.896 -0.0267 -0.3084 -0.4775
12531W        W29005  10.281   3.507  13.103  0.2266 -0.1168  0.4128
12532W        W29006  10.167  15.638  12.364 -0.0761 -0.1327  0.0715
12533W        W29007   5.921  13.950  11.810 -0.0728 -0.0790 -0.0337
12534W        W29008   7.041   0.443   1.059  0.2065 -0.2526  0.2385
12535W        W29009   3.156  11.716   0.482  0.0674 -0.4364 -0.0148
12536W        W29010   0.837   5.747  14.872 -0.0874  0.0531 -0.1086
12537W        W29011   6.602   9.733   0.122 -0.0618 -0.2294  0.4728
12538W        W29012   1.792   8.871  16.406  0.3450 -0.0677 -0.1630
12539W        W29013  15.222   4.303  14.358 -0.2620  0.1488  0.0073
12540W        W29014  14.530   1.896  15.476 -0.2767 -0.1382 -0.2189
12541W        W29015   5.038   6.337  15.907  0.2568  0.2246 -0.0552
12542W        W29016  15.050   7.340  15.218  0.1952 -0.1477  0.5258
12543W        W29017  16.110   5.646   1.942  0.1298 -0.2253 -0.1691
12544W        W29018   8.897   1.527   2.824  0.0015 -0.1673 -0.4206
12545W        W29019   7.195  10.215   3.556 -0.5074 -0.2611  0.3036
12546W        W29020  13.515  12.097  13.790  0.0987  0.0293 -0.1008
12547W        W29021   9.327  16.101   1.827  0.0170 -0.2797  0.1991
12548W        W29022   9.794   5.247  16.772 -0.0052  0.0880 -0.0410
12549W        W29023   5.254   4.642   5.089  0.3263  0.0738  0.0262
12550W        W29024  16.378  10.673  12.680  0.0860  0.0806 -0.0344
12551W        W29025   6.501   8.709   5.563  0.0718 -0.0190  0.2238
12552W        W29026   1.351   9.157   1.602 -0.0059 -0.0262 -0.0566
12553W        W29027  17.340   0.581   5.433  0.2876 -0.0410  0.1365
12554W        W29028   7.290   9.048   0.347 -0.2277  0.2746  0.0575
12555W        W29029   8.665  11.392  11.852  0.1011 -0.1760 -0.0469
12556W        W29030  12.717  11.567   0.419  0.0319  0.1011 -0.3147
12557W        W29031   8.668   6.834   4.476 -0.1060  0.0413 -0.0997
12558W        W29032   4.089  13.298  14.090  0.1356  0.0622 -0.0630
12559W        W29033  13.005   7.466   4.678 -0.1075  0.2512  0.1159
12560W        W29034   5.573   8.561   1.057  0.1786 -0.4099 -0.3513
12561W        W29035   8.528  15.676   3.900  0.0450 -0.1997  0.1028
12562W        W29036  14.768  12.285  16.071  0.1696 -0.0244  0.1105
12563W        W29037   1.449  16.639  15.636 -0.0376  0.2643 -0.2003
12564W        W29038   2.779  11.162  12.119  0.0488 -0.1127 -0.1390
12565W        W29039   8.665  12.233   1.065  0.1684  0.1533  0.0077
12566W        W29040  16.069  14.133   3.118 -0.2754  0.1956 -0.2258
12567W        W29041   1.753  11.296  14.237 -0.1900  0.1976  0.0764
12568W        W29042  15.349  11.287  10.990  0.0389 -0.2579  0.0643
12569W        W29043  16.245   1.661  14.161 -0.4888  0.0557 -0.0154
12570W        W29044   8.372  17.261  16.719  0.1643  0.0098  0.0992
12571W        W29045   0.440  10.408  13.682  0.0291 -0.1092  0.1674
12572W        W29046   7.885  14.667   1.342  0.0591  0.1541  0.2383
12573W        W29047  14.771   7.330  12.916  0.0703  0.2452  0.2123
12574W        W29048   3.770  17.358  11.724 -0.0959  0.2078 -0.1164
12575W        W29049  13.010   0.093  12.830  0.1103  0.3792 -0.1582
12576W        W29050  12.850  11.764  11.785  0.0166 -0.0671  0.1668
12577W        W29051   9.363  17.096  11.361  0.3002 -0.0594  0.0037
12578W        W29052   1.475   2.162  15.222  0.1473 -0.1716 -0.3082
12579W        W29053  17.872   8.868   3.911 -0.3874 -0.4906  0.0493
12580W        W29054  15.432   1.678  16.213 -0.1949  0.0515 -0.0878
12581W        W29055   6.909   2.930   1.357 -0.0574 -0.1586 -0.3765
12582W        W29056   3.114   0.068   0.206 -0.1426 -0.1954 -0.0751
12583W        W29057  15.463   1.207   0.281 -0.2496  0.0083  0.0791
12584W        W29058   9.786  16.909   1.883  0.1862  0.0652 -0.1082
12585W        W29059  13.543  12.588   3.043 -0.1548  0.0574 -0.2147
12586W        W29060  10.517   3.112  13.253  0.1412 -0.2413 -0.0784
12587W        W29061   0.552   2.864  16.031  0.0920  0.3909 -0.3005
12588W        W29062   4.707   2.638  12.111 -0.1059 -0.0174  0.0923
12589W        W29063  15.892   9.430   4.078  0.3251  0.1437  0.0084
12590W        W29064   9.174   1.731   0.712  0.0239 -0.0414 -0.1990
12591W        W29065  13.931  11.940  15.849 -0.1422 -0.0131  0.0169
12592W        W29066   1.669  12.951  14.091 -0.0221  0.0142 -0.2174
12593W        W29067  13.781   6.245   3.594  0.0888  0.0437 -0.3000
12594W        W29068   7.537   3.743  12.963  0.2480 -0.1146  0.0998
12595W        W29069  14.111   6.707   2.241 -0.1826 -0.0292 -0.0563
12596W        W29070   4.411   8.185  12.907 -0.0460 -0.0428 -0.0332
12597W        W29071  13.040  14.588   1.369 -0.1699 -0.2732  0.1020
12598W        W29072   6.697  10.381   3.651 -0.3925 -0.3902 -0.1333
12599W        W29073  17.751   2.157   5.060  0.1271  0.1619  0.0927
12600W        W29074   2.636   3.762   3.245  0.0296  0.0399  0.1276
12601W        W29075  16.752  16.994  11.731 -0.0739 -0.0515 -0.0481
12602W        W29076   3.131   5.942  16.270  0.2686  0.0020  0.1712
12603W        W29077   6.611  11.646   1.882  0.1155 -0.0622 -0.1267
12604W        W29078   5.249  16.765   0.282  0.3882  0.0868 -0.0740
12605W        W29079   4.835   6.589  16.468  0.1772 -0.0823 -0.0467
12606W        W29080  14.517  15.792  11.967 -0.2333 -0.0428 -0.0913
12607W        W29081   0.337   8.187  12.018  0.0294 -0.2695 -0.0242
12608W        W29082  14.674   5.991   4.047 -0.0546 -0.2682 -0.2824
12609W        W29083  10.340  14.084  16.738 -0.0712 -0.3655 -0.2032
12610W        W29084  11.914   2.345  13.146  0.0935 -0.0802  0.2477
12611W        W29085   4.151   5.314  11.548  0.0147  0.0106 -0.0541
12612W        W29086  15.616  10.318  15.671 -0.0756  0.1619  0.1962
12613W        W29087  13.154   1.419   4.916  0.0781 -0.2087 -0.0540
12614W        W29088  10.451  10.595   3.123 -0.1915  0.1898 -0.3504
12615W        W29089   6.277  15.529  15.501 -0.0667  0.0492  0.4123
12616W        W29090   1.370   9.082   1.117 -0.0802  0.0047 -0.0273
12617W        W29091  14.661   9.915   5.451 -0.3244  0.0415  0.2194
12618W        W29092   9.000  13.131  16.464  0.0571  0.2927 -0.2908
12619W        W29093  12.233   2.071   5.321  0.0229  0.0002  0.0033
12620W        W29094   6.763   7.560   2.702 -0.4804 -0.1641  0.1629
12621W        W29095   2.091  13.903   0.738  0.1335  0.1713  0.2503
12622W        W29096  14.575   6.481   2.108  0.0097 -0.1682  0.2700
12623W        W29097  11.670  17.972   5.609  0.2202  0.3461  0.0735
12624W        W29098   1.434   6.704   4.230  0.2007 -0.0020 -0.1155
12625W        W29099  16.627  11.597  14.801  0.0142  0.0068 -0.0454
12626W        W29100   2.200   3.183   4.321  0.4782 -0.2496 -0.1111
12627W        W29101  15.214   2.316  14.363  0.1280 -0.0163 -0.1813
12628W        W29102  13.556  16.660  16.180  0.0134 -0.1682 -0.0604
12629W        W29103   9.760   6.551   1.270 -0.1332 -0.2548  0.0514
12630W        W29104   1.225   7.280  12.370  0.0512 -0.1659  0.3142
12631W        W29105   3.810   1.098  16.451 -0.1674  0.0236 -0.1197
12632W        W29106   9.154  10.943   2.803 -0.0271  0.0608 -0.0259
12633W        W29107   2.862  12.532   1.106  0.0692  0.0222  0.1677
12634W        W29108   9.149   9.648   4.472  0.0015  0.3401  0.0394
12635W        W29109  12.624   1.690   3.611 -0.1737 -0.0136 -0.2094
12636W        W29110  16.183   0.647   2.329 -0.0540  0.1771 -0.6156
12637W        W29111   7.933   3.865  11.570 -0.2240  0.0918  0.0244
12638W        W29112   7.932   9.325   3.681 -0.0821 -0.3605 -0.2257
12639W        W29113   4.117  14.628   3.458 -0.3074 -0.0050 -0.1124
12640W        W29114   0.050  10.090   2.461  0.0012 -0.0450  0.1929
12641W        W29115   3.536   0.053   5.906 -0.3952  0.1095 -0.0711
12642W        W29116   9.183   1.131  16.618 -0.3191 -0.1548 -0.1899
12643W        W29117   3.622   4.274   1.514 -0.0492 -0.0670  0.1148
12644W        W29118   1.144  17.842  12.274 -0.0299  0.1927  0.0509
12645W        W29119  16.368  15.217   3.659  0.3004  0.0505 -0.0371
12646W        W29120  16.558  10.348  11.809  0.2824 -0.1421  0.1081
12647W        W29121   7.654   0.417   2.679  0.0412  0.0422  0.0757
12648W        W29122  13.439  16.661  13.838 -0.0715 -0.0190  0.5114
12649W        W29123   3.448   3.203   1.893  0.0358 -0.1528 -0.1687
12650W        W29124   0.511   0.456   4.166 -0.1085 -0.3097  0.0217
12651W        W29125  15.145  11.066  16.298  0.0975 -0.1487 -0.0465
12652W        W29126  11.490  10.433   2.189 -0.3024  0.2161  0.1338
12653W        W29127   2.380   0.020  15.312 -0.2221  0.2134  0.0787
12654W        W29128   7.691  10.177  14.054 -0.0102 -0.1793 -0.1592
12655W        W29129   3.501   8.128   1.570 -0.4155 -0.0693  0.0755
12656W        W29130   5.690   0.366   0.019 -0.1090  0.1473  0.1325
12657W        W29131   2.915   3.331  11.623  0.1357 -0.0011 -0.2648
12658W        W29132  11.340   1.002  12.272 -0.2169  0.2945  0.0180
12659W        W29133   1.851   9.240  15.744 -0.0164  0.0615 -0.1680
12660W        W29134   2.480  11.017  12.546 -0.2207  0.1277 -0.1330
12661W        W29135   5.709   2.837  15.140  0.2513 -0.2564 -0.2970
12662W        W29136   6.886   4.213   3.434  0.0113 -0.0633  0.1186
12663W        W29137   6.592   6.360  16.707 -0.1933  0.1508 -0.1423
12664W        W29138   6.643   2.614   1.710 -0.1879 -0.1760  0.0442
12665W        W29139   1.016   0.550  15.676 -0.0432 -0.0740 -0.0959
12666W        W29140  16.724   5.307   1.176  0.1604 -0.1935  0.1237
12667W        W29141   7.347  13.014   2.386 -0.1906 -0.2012 -0.1815
12668W        W29142   1.746   3.153  14.526 -0.2677  0.2609  0.1659
12669W        W29143   2.340   8.517   2.897 -0.1682  0.0324  0.1575
12670W        W29144  14.550   8.123  12.724 -0.2363 -0.0074 -0.2247
12671W        W29145   3.944  12.404  16.114  0.1277  0.1471  0.0528
12672W        W29146  15.607  15.672   1.006 -0.0416  0.0889  0.1178
12673W        W29147  17.316   9.470   1.366  0.0784  0.0258 -0.0620
12674W        W29148  16.900   4.451   3.799  0.2113  0.0587  0.2179
12675W        W29149   2.705  10.733   2.359  0.0387  0.0664  0.2764
12676W        W29150   6.709   9.735   1.033  0.3763 -0.2166  0.1137
12677W        W29151   0.562   4.585  13.229 -0.1764  0.0494 -0.1262
12678W        W29152  10.187  14.951  13.883  0.0148  0.2520 -0.0631
12679W        W29153  11.525  16.983   2.361 -0.3298  0.0856  0.2372
12680W        W29154   4.935  15.400  14.110  0.2575 -0.0935 -0.0984
12681W        W29155   9.342  10.476  14.977  0.2588  0.1058 -0.1318
12682W        W29156  16.418   6.341  13.526 -0.0930 -0.0471 -0.2938
12683W        W29157  12.590  11.480  10.862  0.1337  0.3699  0.1368
12684W        W29158  13.092  14.769  12.114  0.0462  0.4309  0.3591
12685W        W29159  17.961  11.423   3.250  0.1816  0.0545 -0.0251
12686W        W29160  10.359  18.002  12.150 -0.1911  0.1272  0.0643
12687W        W29161   6.060  10.532   0.779  0.0894  0.3349  0.1552
12688W        W29162  13.924  14.445  16.348  0.1911 -0.3969  0.0859
12689W        W29163  13.497  14.839  12.429  0.2169  0.0800  0.1529
12690W        W29164   2.293   8.693  16.362  0.1622  0.1708 -0.2078
12691W        W29165  10.804   1.089   3.921  0.0284  0.0745  0.0582
12692W        W29166  17.469  15.907  14.503 -0.1658 -0.3157  0.0666
12693W        W29167   1.215  16.794  12.114  0.1236 -0.0876 -0.0886
12694W        W29168  16.615   9.826  14.485 -0.0061 -0.1098  0.1602
12695W        W29169  13.737  12.005  12.995  0.1078 -0.0434  0.1079
12696W        W29170  12.988  14.134   1.808 -0.4436 -0.0388 -0.1252
12697W        W29171  17.212  15.245  15.650  0.0328 -0.0136 -0.1667
12698W        W29172   5.047  17.264   1.651  0.0649 -0.1875 -0.0557
12699W        W29173   2.118  14.131   3.619 -0.1066 -0.0326 -0.2844
12700W        W29174  13.324   7.363  12.917 -0.1046 -0.1300  0.2040
12701W        W29175   8.968  13.162  14.586 -0.0773 -0.1232  0.5524
12702W        W29176   4.427   8.081   4.279 -0.2656  0.2636 -0.0480
12703W        W29177  15.075  14.708  15.050  0.0059 -0.0542  0.2996
12704W        W29178  16.525   8.899  13.105 -0.1959 -0.0274  0.1318
12705W        W29179  10.593   8.144   2.141  0.4840  0.1590 -0.0049
12706W        W29180   1.235  15.201  15.701  0.0273 -0.0608  0.0118
12707W        W29181   4.012  13.789  12.958 -0.3290  0.0920 -0.1315
12708W        W29182   9.063   5.244   4.310 -0.1426  0.1406 -0.1089
12709W        W29183   9.492   1.617  15.427 -0.2103 -0.1200  0.0010
12710W        W29184  17.987  16.327  16.115 -0.3326 -0.1418  0.1224
12711W        W29185   9.479  10.043  12.267  0.1236  0.1904  0.3289
12712W        W29186  16.002  11.929   3.412  0.1353 -0.1671 -0.0865
12713W        W29187   8.934   5.463  16.144 -0.4117 -0.1012  0.2010
12714W        W29188   7.991  16.766  11.487  0.1183 -0.0190 -0.2497
12715W        W29189  15.709   5.225   5.501 -0.1169  0.2836  0.1336
12716W        W29190   0.183  17.776  14.899 -0.0184  0.0285  0.0691
12717W        W29191   3.335   9.759   0.774 -0.0031  0.0218 -0.0419
12718W        W29192   8.466   5.986  12.414  0.1398  0.0773 -0.0679
12719W        W29193  16.648   8.941   5.245  0.1635  0.2132  0.4522
12720W        W29194   3.024   5.424   2.615 -0.1087  0.0941  0.3716
12721W        W29195  10.276  11.255  11.989 -0.4233 -0.1474  0.1583
12722W        W29196  15.760   0.504   4.857  0.0419 -0.2359 -0.0898
12723W        W29197   9.971   1.897   2.689  0.0048 -0.1179  0.0868
12724W        W29198   0.758  15.057  15.583  0.3066 -0.1191 -0.1193
12725W        W29199   5.953  14.010   1.149  0.1100  0.1081  0.2908
12726W        W29200   4.933   4.407   6.390 -0.0375  0.3276 -0.0249
12727W        W29201   9.685   7.582   3.079 -0.0641 -0.0556  0.3155
12728W        W29202   1.123   7.557  11.870  0.4307  0.1045 -0.0329
12729W        W29203  17.773   5.083   1.021  0.3501  0.0510 -0.1491
12730W        W29204  14.523  15.973   5.617  0.2445 -0.1913  0.1077
12731W        W29205  17.853   9.097   1.637  0.0998 -0.0046  0.0486
12732W        W29206  13.848   8.441   4.546 -0.1139  0.1010 -0.1965
12733W        W29207  14.543   8.915   0.065  0.0118  0.0029 -0.0512
12734W        W29208  14.984  15.179  14.848 -0.1237 -0.0617 -0.1184
12735W        W29209   8.975  17.351  13.700  0.1163  0.1481 -0.3645
12736W        W29210   4.160   2.370   5.709 -0.1126  0.0692 -0.0111
12737W        W29211   6.741  14.667  14.389  0.0277  0.2385 -0.0176
12738W        W29212  12.677   9.517  11.509  0.1502 -0.0501 -0.0035
12739W        W29213  11.309   1.967   5.584  0.1375 -0.2182  0.0878
12740W        W29214   3.061   9.066   3.962  0.0755 -0.3557  0.1177
12741W        W29215   0.447   0.856  12.558  0.0775 -0.1131  0.2069
12742W        W29216  12.019   1.584   2.121 -0.0768  0.2405  0.2417
12743W        W29217   3.917  15.088   3.315 -0.0835 -0.0105  0.1093
12744W        W29218   9.660  15.926  13.555  0.0193  0.1204  0.2847
12745W        W29219  10.884   1.068   5.169  0.1447 -0.1586 -0.5879
12746W        W29220  16.325  17.287   4.427 -0.0567 -0.1576  0.0322
12747W        W29221  12.657   4.581   0.766  0.0112 -0.0481 -0.1437
12748W        W29222   9.893  10.891  12.737 -0.0473  0.0078  0.1042
12749W        W29223   3.992   8.374   4.180  0.2299 -0.2645  0.1478
12750W        W29224   1.410   9.474  13.833  0.1178 -0.0756  0.1078
12751W        W29225   7.017   5.668   5.290  0.0518 -0.0955 -0.1019
12752W        W29226   0.422   3.410   2.683 -0.2936 -0.0594 -0.1076
12753W        W29227  16.363   6.960  12.886 -0.2375  0.1689  0.0431
12754W        W29228  16.381   2.962  12.788 -0.0040 -0.0126 -0.1373
12755W        W29229   4.664  12.176  14.739  0.0849  0.4337  0.0780
12756W        W29230  10.299   6.639   0.022  0.0239  0.2738 -0.1636
12757W        W29231   8.319   7.955   3.961  0.0395 -0.0522  0.1869
12758W        W29232   9.284  17.279  15.124  0.2048 -0.0517 -0.0924
12759W        W29233   9.756   5.228   0.490  0.3057  0.1603  0.1166
12760W        W29234   7.740   6.532   0.659 -0.1750  0.3147 -0.3975
12761W        W29235  15.487  16.616  15.021  0.1673 -0.0830  0.1340
12762W        W29236  17.503   0.608  16.741 -0.2138  0.0919  0.1577
12763W        W29237   9.903   2.873  14.289  0.0872  0.0425  0.4891
12764W        W29238   3.167   4.669  13.012 -0.2078 -0.3427 -0.0201
12765W        W29239  10.032  17.388   1.602  0.2781 -0.2361 -0.0588
12766W        W29240  11.287   3.494   0.099  0.0143  0.1742 -0.2333
12767W        W29241   8.999  10.947   3.906  0.1365  0.3406  0.0086
12768W        W29242  12.096   2.009   6.254 -0.1160 -0.1576  0.2072
12769W        W29243   2.129   7.275   5.367 -0.0357 -0.1686 -0.2449
12770W        W29244   2.329   4.515   4.596  0.1334 -0.0984 -0.1828
12771W        W29245  12.263   1.672  11.630 -0.2730  0.2184  0.0232
12772W        W29246  14.729   5.295  16.320 -0.3278  0.0223 -0.2302
12773W        W29247  15.824  11.856   5.665  0.2414  0.1749 -0.0389
12774W        W29248  14.037   2.969  16.455  0.0543 -0.0269 -0.0299
12775W        W29249   3.290   1.738  16.433  0.0211  0.1052  0.1070
12776W        W29250   2.993  11.631  12.971 -0.0713 -0.0651  0.0707
12777W        W29251   9.488  14.867   4.504  0.0011 -0.1330 -0.1848
12778W        W29252  16.466   8.612  11.894  0.0592 -0.0450  0.2853
12779W        W29253  13.163  11.331  12.599 -0.0042  0.1928  0.0449
12780W        W29254   5.419  14.672  15.290  0.0258  0.0287 -0.4694
12781W        W29255  14.640   4.994   0.279  0.0696 -0.0393 -0.1983
12782W        W29256   5.411  17.640  13.291  0.2522  0.1436  0.1262
12783W        W29257   1.295  15.406  12.553 -0.3338  0.2408 -0.1683
12784W        W29258   3.246   7.656   4.437 -0.2153 -0.0878  0.2885
12785W        W29259   0.755  16.023   5.160 -0.0419 -0.1395  0.2667
12786W        W29260   7.818  10.184  15.592  0.1070  0.2258 -0.0116
12787W        W29261   8.401   2.756   0.393 -0.0424  0.1959  0.3249
12788W        W29262   2.006  15.442  16.111  0.0118  0.0619  0.0536
12789W        W29263  16.085  17.914  14.825  0.0854 -0.1022 -0.1428
12790W        W29264   2.399   0.826  15.672 -0.0676 -0.0107  0.0725
12791W        W29265   4.422  15.283   3.048  0.3179 -0.0408 -0.1095
12792W        W29266   1.436   8.259  13.013  0.0765  0.1036  0.0104
12793W        W29267  11.232   6.136   1.169  0.0005  0.1275 -0.0429
12794W        W29268   6.271   7.255  11.815 -0.1060 -0.1601  0.3215
12795W        W29269   3.847  13.423  11.415  0.0881  0.3472 -0.1521
12796W        W29270   1.096   7.720   4.672  0.2781 -0.0316 -0.2220
12797W        W29271   8.358   0.754  13.966 -0.2047  0.1802 -0.0238
12798W        W29272   7.410   7.971   3.751 -0.0749  0.1289 -0.0573
12799W        W29273   1.506  10.517   0.159  0.1809  0.0748  0.2041
12800W        W29274  15.477  14.280  12.815  0.0721 -0.0346 -0.0221
12801W        W29275  11.016   1.059  15.846  0.0218  0.2074 -0.3923
12802W        W29276  12.511   8.105  12.657 -0.1571 -0.0029 -0.0107
12803W        W29277  13.848   4.669  12.602  0.1691 -0.1181 -0.0379
12804W        W29278  16.989  17.872  15.868  0.4530  0.0314 -0.0546
12805W        W29279   5.029  12.776   0.078  0.1028  0.1033 -0.0481
12806W        W29280  12.889   1.880  13.424 -0.0008 -0.2694 -0.1734
12807W        W29281   2.744   2.641   0.676 -0.2000  0.0941  0.1358
12808W        W29282   9.136   9.971  15.802  0.0781 -0.1042 -0.0269
12809W        W29283   8.981   4.827  11.719 -0.0442 -0.0851 -0.0671
12810W        W29284   2.064  15.600   4.476  0.1846 -0.0469 -0.0693
12811W        W29285   5.561   9.048  15.313  0.2668  0.0548  0.3390
12812W        W29286  15.749  14.217  16.572  0.2490 -0.1622  0.0977
12813W        W29287  15.594  17.055   3.803 -0.0187 -0.0405 -0.1425
12814W        W29288  16.330   7.749   1.383 -0.0660 -0.2389 -0.1057
12815W        W29289   9.968   6.529  12.352  0.2183 -0.1773 -0.3305
12816W        W29290   3.890  16.981  13.822 -0.0403  0.0340  0.2558
12817W        W29291   3.201   5.802  13.383 -0.0880  0.0639  0.1394
12818W        W29292   3.266  13.583   1.817 -0.0457 -0.0135  0.0884
12819W        W29293   5.551  13.528  14.875  0.0027  0.2428  0.2154
12820W        W29294   4.079   6.576  14.362  0.2105 -0.0834 -0.0886
12821W        W29295  10.390   4.991   3.159 -0.0190 -0.0349  0.0750
12822W        W29296  13.011   2.827   3.966  0.0726 -0.1582 -0.1337
12823W        W29297   2.423   4.847  16.676 -0.1141 -0.3803 -0.2542
12824W        W29298   2.486  16.474   1.183 -0.4010 -0.0054 -0.2067
12825W        W29299   0.290  17.705   3.234  0.0903 -0.1810  0.3160
12826W        W29300   5.692   9.828  13.142 -0.3716  0.2929  0.0762
12827W        W29301   7.115   1.949   2.373 -0.2015  0.0513 -0.0205
12828W        W29302   3.388  13.540  11.661  0.1868  0.0305  0.1828
12829W        W29303   3.550   0.971  14.389 -0.0568 -0.1084 -0.1345
12830W        W29304  13.387   3.020   0.065 -0.0080  0.0015 -0.2852
12831W        W29305   5.531   6.272   5.457 -0.0493 -0.3518 -0.0090
12832W        W29306  15.056   5.812  15.245 -0.2516  0.0472  0.0470
12833W        W29307  17.250   0.612   3.463  0.0845  0.0889 -0.0352
12834W        W29308   7.724   5.839  14.722  0.3925 -0.0184  0.2350
12835W        W29309   6.085   5.549   5.197 -0.0895  0.1308 -0.1075
12836W        W29310  10.200   3.906   1.743  0.2058  0.0184  0.0868
12837W        W29311  12.191  12.476   3.262 -0.1728 -0.1115  0.1719
12838W        W29312   5.956   6.639   4.934  0.1091  0.1062 -0.1166
12839W        W29313  11.643   6.561   4.285 -0.0018 -0.0746 -0.1253
12840W        W29314   5.465   4.079  13.686 -0.2976 -0.0412  0.2045
12841W        W29315  11.210   7.460   1.271  0.1263  0.0191 -0.1347
12842W        W29316  12.354   0.980  15.430 -0.1331 -0.2638  0.2285
12843W        W29317  10.333   9.492   2.094 -0.1376  0.3117 -0.1377
12844W        W29318  15.873   6.822   3.352  0.2273 -0.0090 -0.0627
12845W        W29319   2.881   8.502   2.085 -0.2650  0.0493  0.2490
12846W        W29320   9.779  10.182   1.990  0.0557  0.0695 -0.2175
12847W        W29321   0.970  13.630   0.779  0.2113 -0.0932 -0.0714
12848W        W29322  12.758  13.251  13.969 -0.0038 -0.3072  0.0802
12849W        W29323   6.503  10.808   1.888  0.1096 -0.1782  0.2254
12850W        W29324  15.878  11.345  14.975  0.0582  0.1020  0.0973
12851W        W29325   3.166   5.784   5.866 -0.1212 -0.1099 -0.1456
12852W        W29326  12.707   6.036   3.578  0.0061 -0.0585 -0.0321
12853W        W29327   0.457   1.102  15.364  0.0518 -0.1948  0.2417
12854W        W29328   5.713  12.603  14.345 -0.0279  0.0405  0.4154
12855W        W29329  13.765  15.457  10.786 -0.1282  0.0277  0.2056
12856W        W29330   6.133  10.474   5.276  0.0371  0.1097 -0.1972
12857W        W29331  15.807   5.026   4.197  0.3075 -0.2456 -0.1735
12858W        W29332  11.607  11.056  15.593 -0.2728 -0.0281  0.1884
12859W        W29333   4.127   3.214   1.345 -0.1261  0.0538  0.1136
12860W        W29334   6.451  11.179   2.816  0.1893 -0.0380  0.3806
12861W        W29335   5.068  15.995   3.188 -0.0624  0.1102  0.0702
12862W        W29336   8.386   9.673   2.876 -0.2403 -0.1379 -0.0262
12863W        W29337   6.917  15.755  13.058  0.0753  0.0371  0.0720
12864W        W29338  12.974  10.234   1.976 -0.0541 -0.1895  0.1417
12865W        W29339   5.922   5.989  14.993  0.1298  0.2201 -0.1424
12866W        W29340  17.369   6.776  15.368  0.1369 -0.2225 -0.0436
12867W        W29341  17.069   6.680   3.626  0.0638  0.0416 -0.2844
12868W        W29342  17.596  17.204  12.234 -0.2524 -0.1605  0.2604
12869W        W29343   3.465   6.082  11.663  0.2662  0.0594 -0.2929
12870W        W29344   9.730   0.759   3.917 -0.3804  0.1822  0.1525
12871W        W29345   0.577   4.492   4.795  0.2104  0.0050  0.2962
12872W        W29346   0.523  17.970   1.049 -0.0167  0.2607 -0.1366
12873W        W29347  11.502  17.111  14.367 -0.2122 -0.2747 -0.1802
12874W        W29348  15.996   8.765  13.032 -0.1787  0.0930  0.0031
12875W        W29349   7.245  16.508  10.980 -0.1595 -0.2089  0.0459
12876W        W29350   5.510   9.452   2.215 -0.1621 -0.2101  0.0479
12877W        W29351  17.662   7.984  11.133 -0.3313  0.2230  0.4238
12878W        W29352   7.019   0.669   5.122  0.2041 -0.0264 -0.2245
12879W        W29353   9.290  17.165  15.598  0.1296 -0.1089 -0.3972
12880W        W29354  17.102   6.164  14.441  0.0517 -0.3026  0.0473
12881W        W29355  11.263  17.351  12.233  0.4194  0.4117  0.1221
12882W        W29356   1.104   3.988  11.159  0.3939  0.1686 -0.0503
12883W        W29357   6.163  11.840   0.018  0.0831  0.0251  0.0298
12884W        W29358   3.564   7.486  13.047 -0.2583  0.1411  0.0514
12885W        W29359  13.946  11.421   2.680 -0.1114  0.0264  0.1156
12886W        W29360   5.815  16.113  13.244  0.1718  0.2353  0.0897
12887W        W29361  12.929   3.933  16.357  0.1087 -0.0160 -0.2257
12888W        W29362   1.120   0.044   5.236  0.1909  0.0653  0.3957
12889W        W29363  10.410  16.317  12.151  0.0849 -0.0289 -0.2554
12890W        W29364  10.528  14.481  12.602 -0.1728 -0.0113  0.2791
12891W        W29365  12.114   7.649   4.957 -0.1292 -0.3327 -0.0395
12892W        W29366   3.162   8.467  12.280 -0.4696  0.0760 -0.0906
12893W        W29367   4.229  11.105  13.128 -0.1249 -0.1215 -0.0683
12894W        W29368   7.685   5.300   0.134 -0.2159 -0.1132  0.1647
12895W        W29369  12.458   2.636   3.199  0.0839  0.1006 -0.1050
12896W        W29370   9.304   6.025  12.752  0.0975  0.0680  0.3625
12897W        W29371   2.178   0.309   4.076  0.0636 -0.1798 -0.4833
12898W        W29372   2.905   3.258  13.997 -0.0664  0.0696  0.0260
12899W        W29373  17.970  17.555  15.917 -0.5790 -0.0889  0.1683
12900W        W29374   2.238   3.763  12.964  0.1263  0.0564 -0.1681
12901W        W29375  11.589  16.648   5.095  0.1620  0.3896  0.3080
12902W        W29376  13.155   9.663  14.624  0.4755  0.0111 -0.0060
12903W        W29377   4.914  13.018  12.103 -0.3102 -0.1088 -0.0283
12904W        W29378   8.378  14.674  11.740  0.1977 -0.1044  0.1153
12905W        W29379   8.368  12.131  13.826  0.0499 -0.1865 -0.1440
12906W        W29380   9.558   2.416   3.730  0.1573 -0.2086 -0.1027
12907W        W29381  15.624  13.253   5.390  0.0528 -0.0376 -0.0791
12908W        W29382   1.528  12.080  13.054 -0.3267 -0.0059  0.0261
12909W        W29383   3.862   8.783   2.610 -0.1532 -0.2711  0.0223
12910W        W29384   0.594  17.645  14.366  0.2835 -0.0124 -0.1033
12911W        W29385   8.351  15.393  14.147 -0.1699 -0.1624  0.0204
12912W        W29386   0.068   6.036   3.106 -0.0290  0.1178 -0.3195
12913W        W29387   4.769   7.562   0.798  0.1156 -0.2924  0.0845
12914W        W29388   5.946   7.869  13.386  0.1584 -0.3854 -0.0807
12915W        W29389  15.556   6.799  15.688 -0.0000  0.1303  0.1588
12916W        W29390   6.818  12.370   2.848 -0.4004 -0.0411 -0.2028
12917W        W29391   9.343   1.009   3.701 -0.1485 -0.0647 -0.1582
12918W        W29392   0.708   9.640   4.917 -0.2070  0.0159  0.1199
12919W        W29393   3.163   1.302   2.273  0.0675 -0.2061 -0.2276
12920W        W29394   2.940  13.950  12.898  0.1405  0.3216 -0.0614
12921W        W29395  17.355   8.812   3.938  0.1571 -0.3359  0.1961
12922W        W29396   7.083   6.079  12.159 -0.2687 -0.0333 -0.1922
12923W        W29397   9.556  10.909  15.182  0.0213  0.1714 -0.0006
12924W        W29398  14.593   7.685  13.801  0.0855  0.0163  0.0812
12925W        W29399  10.222  16.648  13.745 -0.2093  0.2155 -0.2483
12926W        W29400  14.080  10.330  16.724  0.0085 -0.1400 -0.1439
12927W        W29401   9.395  16.453   3.089 -0.1205 -0.0334 -0.2032
12928W        W29402   8.969  13.150   3.866 -0.1956 -0.1209  0.0364
12929W        W29403   8.848  13.287   3.432 -0.0448 -0.0528 -0.0732
12930W        W29404  10.299  13.510  15.972  0.0835  0.2403  0.2840
12931W        W29405   3.921  11.927   3.208  0.1577  0.1064 -0.0996
12932W        W29406  11.236   7.847   2.453 -0.1976  0.1833 -0.4109
12933W        W29407  17.786   7.090  15.262  0.1067 -0.0917  0.2331
12934W        W29408   5.833   8.371  13.344 -0.0664 -0.2456  0.0875
12935W        W29409   9.012  17.424  11.800  0.0334  0.1033  0.1024
12936W        W29410   4.298  12.629  12.990  0.0590 -0.0534  0.0934
12937W        W29411   5.193   5.370  15.903 -0.1079  0.1550  0.3198
12938W        W29412   7.503  11.759   1.895 -0.2960 -0.3202 -0.0458
12939W        W29413   7.045  12.365   4.968  0.0990  0.0561 -0.0832
12940W        W29414   6.777  15.348  12.738 -0.0833 -0.2387 -0.2483
12941W        W29415   3.181   9.250  16.038 -0.0416 -0.0351  0.2850
12942W        W29416   6.921  13.204   1.185 -0.2021  0.0820  0.0184
12943W        W29417   7.019   8.401  12.015 -0.2046  0.0494  0.1172
12944W        W29418   3.389  13.605   3.859 -0.1980  0.3290 -0.0674
12945W        W29419   4.509   0.419  12.624  0.1501 -0.0123 -0.0596
12946W        W29420   4.985   0.459   4.265  0.3389 -0.1786  0.0128
12947W        W29421   8.683   1.515  16.561  0.2851 -0.1276  0.1824
12948W        W29422  13.914  16.064  14.904  0.2829  0.2314 -0.2891
12949W        W29423  10.506   2.392   5.851 -0.2490 -0.2618 -0.0586
12950W        W29424  10.199   1.872   1.688  0.2008 -0.0319  0.2511
12951W        W29425   5.949   4.287  12.056 -0.1588 -0.0000 -0.2060
12952W        W29426   9.183  16.913   2.882 -0.1447 -0.0497 -0.0867
12953W        W29427   5.867  16.650  14.795 -0.1196 -0.1533 -0.0133
12954W        W29428  17.262   3.441   0.511 -0.0382 -0.0665  0.3096
12955W        W29429  12.011   7.492   3.710 -0.1788  0.1211  0.2505
12956W        W29430  10.303   5.009   5.025  0.0769 -0.2844 -0.0989
12957W        W29431   2.236   9.077   2.580  0.0127  0.0708 -0.2397
12958W        W29432   6.783   0.582  15.127 -0.1021 -0.0651 -0.0659
12959W        W29433  10.353   5.059  15.069 -0.0628  0.0514 -0.3400
12960W        W29434  10.754   3.977  11.839  0.3374 -0.0394 -0.1004
12961W        W29435  10.798  15.931  14.214  0.1018 -0.0488 -0.0845
12962W        W29436  16.249  14.749   3.523 -0.1584  0.2600  0.1770
12963W        W29437   1.365   8.425  14.697 -0.1001 -0.1350  0.2355
12964W        W29438   3.471   3.523   3.657  0.3071  0.0502  0.0328
12965W        W29439  10.825   3.083   4.308  0.1313  0.0007 -0.1907
12966W        W29440  10.388   7.470  16.108 -0.0231 -0.1588 -0.0374
12967W        W29441   1.198  15.808  12.894 -0.3980 -0.1952 -0.1494
12968W        W29442  13.487  15.323  12.686 -0.0285 -0.5651  0.0044
12969W        W29443  15.350  13.093  12.859  0.3780 -0.0177  0.1275
12970W        W29444   7.125  14.697   3.004  0.2595  0.2131 -0.4499
12971W        W29445   6.379   7.453   1.858  0.3390 -0.1408  0.1147
12972W        W29446   4.644  14.689   3.222  0.0289 -0.0777  0.2119
12973W        W29447  16.383   4.551  13.989  0.3040  0.0537  0.2238
12974W        W29448  10.296  13.974   2.769 -0.0339 -0.1211 -0.0786
12975W        W29449   3.012  13.123  11.401 -0.1421  0.2428  0.0202
12976W        W29450  12.320  12.447   4.242 -0.0969 -0.0172 -0.1103
12977W        W29451   5.834   1.041   3.350 -0.4701 -0.0313  0.1586
12978W        W29452   5.893   9.874  13.616 -0.0815 -0.0860 -0.0494
12979W        W29453   8.063   4.609  14.638  0.0320 -0.1117  0.0186
12980W        W29454   3.593   6.760  14.697  0.1973 -0.0648  0.2532
12981W        W29455   3.580   8.949   3.204  0.3066  0.3922  0.1353
12982W        W29456   8.985   3.239  12.436 -0.1495  0.0961 -0.0716
12983W        W29457   0.121   4.310   1.233 -0.0680 -0.0081 -0.2629
12984W        W29458   3.695  12.054   1.306  0.2299  0.2094  0.0213
12985W        W29459   2.194  12.517   5.736 -0.0750 -0.0078  0.1348
12986W        W29460  12.660  15.038   4.324 -0.0319 -0.0391  0.1680
12987W        W29461  14.627   5.756  16.219  0.3053 -0.0428  0.0007
12988W        W29462  11.353  14.239  13.146 -0.2097  0.1026 -0.0664
12989W        W29463   8.312   4.140  14.548 -0.1140 -0.0127  0.1713
12990W        W29464   1.208   9.312  15.064  0.0918 -0.1860  0.0658
12991W        W29465   9.212  10.658  15.417 -0.0014  0.0132 -0.0967
12992W        W29466  14.782   1.012   3.561  0.1425 -0.0447 -0.5546
12993W        W29467  14.745  13.287   0.167 -0.0794 -0.2412  0.1446
12994W        W29468  14.791   4.047  12.613 -0.0100 -0.3421  0.0151
12995W        W29469   1.418   1.180  14.475  0.1687 -0.2412 -0.0819
12996W        W29470   0.734   7.004   2.049  0.0244 -0.1005  0.2011
12997W        W29471   2.262  11.981  12.730  0.1329 -0.1328  0.0956
12998W        W29472  17.305  13.667  13.863  0.0575 -0.2054  0.2273
12999W        W29473   5.258   4.433   3.917 -0.1617  0.0030 -0.1857
13000W        W29474  17.909   5.919  13.235  0.0930 -0.1144  0.1147
13001W        W29475  13.348   2.762  14.252 -0.0088  0.0894  0.0639
13002W        W29476   3.179   5.323  15.716  0.0637 -0.2548  0.1099
13003W        W29477   6.405  10.515  12.362 -0.2149  0.1085 -0.1693
13004W        W29478  12.663   1.932   3.142 -0.3788  0.1108  0.2813
13005W        W29479   6.586   3.572  15.617 -0.0951 -0.3060  0.2614
13006W        W29480  16.047  10.456  15.437  0.1244 -0.0359 -0.1271
13007W        W29481  17.755   0.420   0.366 -0.1064  0.2394 -0.1217
13008W        W29482   5.130  16.655  16.587 -0.0751  0.0738 -0.1525
13009W        W29483   8.227  12.681   0.413 -0.0697  0.0138 -0.4293
13010W        W29484   5.837   7.057  16.636 -0.0628  0.0149 -0.0556
13011W        W29485   9.923  17.990  13.117  0.0988  0.0252  0.2959
13012W        W29486   6.416   5.267   4.357  0.3596 -0.0966 -0.0116
13013W        W29487   1.762  14.736   4.366 -0.1615 -0.0349  0.0396
13014W        W29488  12.672  16.995   5.442 -0.1376  0.1493 -0.0868
13015W        W29489   7.443   0.917   1.772 -0.0410 -0.0668 -0.3206
13016W        W29490  13.550   4.518   3.671 -0.0660 -0.1213  0.1298
13017W        W29491  15.688  11.430   2.053 -0.0357 -0.2700 -0.1109
13018W        W29492  10.930  14.680  14.350 -0.0138 -0.1609  0.1893
13019W        W29493  10.711   6.004  15.981 -0.1834 -0.1651  0.0153
13020W        W29494   7.729   6.634   0.142 -0.1630  0.0442 -0.4967
13021W        W29495   5.700  12.723   4.526 -0.2545  0.0108 -0.0898
13022W        W29496   3.527   9.021   4.776 -0.0901 -0.0189 -0.4240
13023W        W29497   6.988  10.767   4.884  0.3908 -0.0005 -0.0655
13024W        W29498   7.169   6.446   0.067 -0.1261  0.1726  0.2314
13025W        W29499  16.084   9.617   0.849 -0.2821  0.1190 -0.1267
13026W        W29500  11.783   7.895   5.157  0.2303  0.3674  0.1549
13027W        W29501   4.790  13.752   0.835  0.1033  0.1757 -0.2010
13028W        W29502   2.112   0.662  14.813  0.2242 -0.2115  0.3369
13029W        W29503   5.908  15.218   2.932  0.2733 -0.1690 -0.0739
13030W        W29504   4.557   9.797  12.196 -0.0857 -0.0066  0.0729
13031W        W29505  17.121  12.629   1.388 -0.0180  0.0804  0.1102
13032W        W29506  12.429  12.644  16.351  0.0108 -0.2118 -0.1751
13033W        W29507   1.597   1.618   0.877 -0.0656  0.0204  0.1006
13034W        W29508   4.634  12.314  13.225 -0.0951 -0.2225 -0.1931
13035W        W29509   8.376  13.465  15.856  0.0537 -0.0585 -0.2610
13036W        W29510  13.499  17.402   4.347 -0.0439 -0.0218 -0.1514
13037W        W29511   6.619   7.146  14.066 -0.2117 -0.1758  0.0462
13038W        W29512   3.915  12.262  16.704  0.0709 -0.0823 -0.0125
13039W        W29513   5.969  16.511   3.474  0.2341 -0.2036  0.1620
13040W        W29514  12.893  13.002   1.995 -0.0815  0.0172  0.0953
13041W        W29515   3.235  16.072  12.280 -0.3143 -0.1351 -0.0316
13042W        W29516   5.704   1.335  15.105 -0.3011 -0.0621  0.0390
13043W        W29517   2.688   9.187   0.940  0.2103 -0.1224 -0.0523
13044W        W29518   5.721   5.318  13.270  0.1021 -0.0971  0.0860
13045W        W29519  11.077  10.397   6.414  0.1309  0.0443 -0.1884
13046W        W29520   5.927  17.687   3.566  0.0839  0.0252  0.3545
13047W        W29521   0.927   7.390   1.160  0.0427  0.0096 -0.1181
13048W        W29522   4.969   7.383  13.562 -0.0494 -0.2983  0.1083
13049W        W29523  17.431  13.154  12.686 -0.1389 -0.2088  0.3956
13050W        W29524  15.301   8.909   0.173  0.1462 -0.2076  0.2643
13051W        W29525  17.594   4.786  13.523 -0.0893 -0.0300  0.0532
13052W        W29526   6.700  10.848  14.364 -0.0773  0.3018 -0.1296
13053W        W29527  13.569   8.747   2.466  0.1954 -0.0548 -0.1481
13054W        W29528  11.241   2.437   3.454  0.2799  0.1076  0.0694
13055W        W29529   4.110  14.992   0.477 -0.0681  0.0693  0.2659
13056W        W29530   2.786   2.667   0.075  0.2485  0.0903 -0.0184
13057W        W29531  17.258  16.850  15.788  0.3268 -0.0381  0.3404
13058W        W29532   0.233   7.067  16.547  0.0231 -0.1508 -0.2103
13059W        W29533  12.581  13.393   1.813  0.2002 -0.0476  0.1915
13060W        W29534  11.723  10.232  11.772 -0.1713  0.2546 -0.1203
13061W        W29535  14.159   7.425   3.026  0.0486  0.1979  0.1700
13062W        W29536   5.284  17.457   4.859  0.0379  0.0912 -0.1320
13063W        W29537   2.152  13.014   4.186 -0.0014  0.0234 -0.1275
13064W        W29538   0.972   0.854  12.773 -0.0666 -0.1803 -0.0077
13065W        W29539   8.693   0.192  11.644 -0.2806  0.0583 -0.1183
13066W        W29540  13.332   7.719  16.174  0.2243 -0.0966  0.0004
13067W        W29541  10.995  14.365   3.707 -0.4501  0.1792 -0.0480
13068W        W29542   4.925   5.408   2.532 -0.2341  0.0811 -0.0385
13069W        W29543   5.374   5.977   5.019  0.2426  0.1582 -0.3734
13070W        W29544  14.265  11.728   1.968  0.3179  0.2048  0.0529
13071W        W29545   8.833  16.294   2.990 -0.1418  0.1869 -0.1508
13072W        W29546   2.461  15.919   4.280 -0.0226  0.1965  0.0357
13073W        W29547   7.227   0.610   2.996  0.2977 -0.2810 -0.0416
13074W        W29548   6.290   5.902   1.401 -0.0961  0.3392  0.0105
13075W        W29549  17.582   5.165   2.877 -0.1470 -0.4101 -0.2231
13076W        W29550  12.161   1.782  16.704 -0.0391 -0.2276  0.2115
13077W        W29551  11.137   9.127  16.268 -0.1970 -0.2589 -0.0036
13078W        W29552  15.148  15.399   0.798  0.2016 -0.0333 -0.2236
13079W        W29553  15.295   3.333  14.346  0.1896  0.0224  0.0504
13080W        W29554   6.226   7.902  14.009  0.0497  0.1077  0.2131
13081W        W29555   3.184   2.213   4.454  0.1204  0.2189 -0.0100
13082W        W29556  13.698  13.981   4.434 -0.0906  0.0611 -0.1822
13083W        W29557   0.201   2.828  13.944  0.0863  0.1727  0.0788
13084W        W29558  11.221   6.443  15.606  0.1443  0.2504 -0.0728
13085W        W29559   6.452  15.625  15.933  0.1362  0.0138  0.1227
13086W        W29560   7.996  16.498  15.538  0.0298 -0.3498  0.2166
13087W        W29561  14.020  17.140   3.266  0.0176 -0.0219 -0.2261
13088W        W29562   3.193   7.643  13.792  0.0498 -0.0541 -0.2446
13089W        W29563  17.137  17.785   0.758  0.1923  0.0244  0.0334
13090W        W29564   1.266  13.941  13.281 -0.1727 -0.2096 -0.1938
13091W        W29565  13.628  11.151  16.084  0.1327  0.1148 -0.3628
13092W        W29566   2.997  13.392   0.910 -0.1977 -0.0225 -0.1374
13093W        W29567   7.787   1.041  15.308 -0.1639 -0.1385  0.2549
13094W        W29568  12.959   1.350   0.328  0.0197  0.3107 -0.2321
13095W        W29569   2.611  10.707   3.558  0.0651 -0.1039 -0.0249
13096W        W29570  10.152  11.809   3.673 -0.0007 -0.1533  0.1523
13097W        W29571   3.958   5.893   1.036  0.2694  0.1195 -0.0710
13098W        W29572   5.107   2.225   1.317  0.2026  0.1201  0.0697
13099W        W29573  16.409   3.871   3.668 -0.0979  0.0283  0.2684
13100W        W29574  12.346  15.514  11.975  0.1342  0.0529 -0.0898
13101W        W29575  11.936   1.136   2.253 -0.1459 -0.0224  0.1933
13102W        W29576   7.604   8.652   0.597 -0.3296  0.1273 -0.1765
13103W        W29577  12.972  11.776  12.302  0.0951  0.4759 -0.1345
13104W        W29578  14.792  12.378  12.950 -0.0708 -0.0685 -0.2044
13105W        W29579   9.514   7.865  13.922  0.1234  0.1930  0.0983
13106W        W29580   8.233  15.959   1.638 -0.3642  0.0098  0.0979
13107W        W29581  13.992   1.748  13.454 -0.1333 -0.3646 -0.1020
13108W        W29582  12.271  17.939   4.394 -0.0359 -0.0755 -0.3285
13109W        W29583  14.205  14.214   4.398  0.2101  0.4655  0.3402
13110W        W29584   4.621   4.535  12.450 -0.3022  0.1137  0.0093
13111W        W29585  16.881   5.742   3.656  0.0906  0.2523  0.1758
13112W        W29586   2.541   5.050   4.791 -0.0769 -0.1747 -0.1170
13113W        W29587   9.149   2.929   4.410  0.0159 -0.1005  0.0977
13114W        W29588  16.954   7.013  15.770  0.0852  0.0098 -0.2891
13115W        W29589  11.829   3.203  15.907 -0.2034  0.3190 -0.1011
13116W        W29590  11.400  11.557  11.313 -0.2166 -0.0020  0.1647
13117W        W29591   9.851   9.011  13.399  0.0886  0.2682  0.2562
13118W        W29592   8.397  14.227   5.524  0.3422  0.0780  0.3548
13119W        W29593   3.326  13.990  10.254 -0.0141  0.1041  0.0728
13120W        W29594  14.657   1.271   1.241 -0.1669 -0.1080 -0.1501
13121W        W29595  16.418  14.436   5.567  0.0580  0.1822  0.3184
13122W        W29596  10.361  12.241  12.536 -0.1476 -0.1819 -0.1864
13123W        W29597   5.041  16.631  11.480  0.0043 -0.2932  0.0623
13124W        W29598  12.882   9.836   5.917  0.1042  0.0770 -0.2305
13125W        W29599   3.425   9.561  12.953 -0.1320 -0.0222 -0.0298
13126W        W29600  15.290   0.408   1.944  0.4206 -0.1038  0.0388
13127W        W29601  14.405   6.603   3.077 -0.0636 -0.0373 -0.1236
13128W        W29602   0.829   3.968  13.162  0.0473 -0.0839 -0.1647
13129W        W29603  11.241  10.244  11.674 -0.0331 -0.3589 -0.3357
13130W        W29604   4.577  12.084  11.216  0.2719 -0.1839  0.2496
13131W        W29605   3.709  12.734  15.613 -0.0857 -0.1672 -0.2452
13132W        W29606  13.354   1.198   0.720  0.4327  0.0061  0.1639
13133W        W29607  12.770   5.551   0.867 -0.1760  0.1488  0.2565
13134W        W29608   0.752  15.027  12.238 -0.1488  0.1388 -0.4071
13135W        W29609   3.229  14.496  16.714 -0.2983 -0.0473  0.0554
13136W        W29610  12.993  15.417   4.044  0.1041 -0.0528 -0.1930
13137W        W29611   7.746  13.394  14.072  0.1315 -0.2315 -0.0453
13138W        W29612  14.983   7.628  16.336 -0.0417 -0.0246  0.1123
13139W        W29613  11.373   5.706  14.318 -0.0719  0.1457  0.0311
13140W        W29614  11.450  13.237   1.029 -0.1956  0.1622 -0.0954
13141W        W29615  17.584   1.364  14.480  0.0518 -0.0140  0.2138
13142W        W29616  13.506  14.637   4.893 -0.1347 -0.2306 -0.1929
13143W        W29617   6.097   8.544   4.600 -0.3654  0.2066 -0.1104
13144W        W29618  13.206  10.315  12.837  0.0163  0.0215 -0.3249
13145W        W29619  14.735   1.773   3.028  0.1302  0.0391  0.1567
13146W        W29620   6.060  10.390   3.403 -0.0384 -0.0612  0.1182
13147W        W29621  11.405   5.311   5.547 -0.0127 -0.1096 -0.1273
13148W        W29622   3.463  17.820  11.866 -0.0291 -0.2211 -0.2703
13149W        W29623   3.796   6.829   1.971  0.0923 -0.0806  0.0729
13150W        W29624  12.612   4.160  15.220  0.0468 -0.0366 -0.1200
13151W        W29625  14.155   6.902  15.059  0.0135  0.0874  0.0497
13152W        W29626   2.391   6.324  15.495 -0.1504 -0.1776 -0.0669
13153W        W29627  15.946   4.869   3.652  0.2297 -0.1277  0.1140
13154W        W29628   3.428  10.403   1.715 -0.1032 -0.1740  0.2668
13155W        W29629   9.318   3.565  12.397  0.0107 -0.2110  0.0632
13156W        W29630  14.522  13.786   2.580  0.4184  0.0829 -0.1705
13157W        W29631  16.458   8.028   4.957 -0.0938 -0.0246  0.0446
13158W        W29632   9.823   1.947  13.260  0.0167 -0.0446  0.0481
13159W        W29633   8.763   2.356  14.270 -0.0117 -0.2952 -0.0792
13160W        W29634  17.601  17.522   3.118 -0.0125  0.3495 -0.0740
13161W        W29635   9.189   6.592  13.796 -0.0889 -0.1173 -0.0741
13162W        W29636   5.781   4.313  14.987 -0.0404 -0.3017 -0.0690
13163W        W29637  12.624  13.744  11.323  0.0560  0.2438  0.1333
13164W        W29638  15.573   8.715  16.027  0.0030 -0.1561 -0.1867
13165W        W29639   1.706   4.537   1.586 -0.1028  0.0077  0.1167
13166W        W29640  12.904  17.966   3.049  0.1144  0.1717 -0.4276
13167W        W29641   2.243  13.849   4.631  0.1138  0.2448 -0.1757
13168W        W29642  14.306  15.353   5.004  0.1153  0.0353  0.0083
13169W        W29643  13.777  10.350  12.095 -0.1464  0.4300 -0.1538
13170W        W29644  11.605   6.655  12.797 -0.0304  0.3871 -0.2465
13171W        W29645   3.757  10.981  16.012  0.0809  0.2539  0.2113
13172W        W29646  16.872   5.220  13.783 -0.0038 -0.0657  0.1114
13173W        W29647  10.736   0.272   5.583 -0.1042 -0.2042 -0.3244
13174W        W29648   8.645  13.000   4.868  0.1467  0.0904  0.1346
13175W        W29649   4.959  12.478   2.563 -0.0099  0.1262 -0.1706
13176W        W29650   1.987  16.345  11.725  0.0899 -0.0840  0.0353
13177W        W29651   8.125  14.868  11.290  0.0429 -0.1759  0.0560
13178W        W29652   8.013   9.029   0.547  0.0249  0.0427  0.0987
13179W        W29653   3.918   5.925   0.503 -0.0468 -0.3733 -0.4408
13180W        W29654  11.562   4.595   5.731  0.0124  0.1046  0.0381
13181W        W29655  13.386  10.490   4.450 -0.1022 -0.0471 -0.4362
13182W        W29656  13.739   7.580   2.297  0.0031  0.0159  0.1294
13183W        W29657   7.743  14.919   0.655  0.1702  0.1368  0.0114
13184W        W29658   7.354  11.281  14.430  0.1033  0.0055 -0.5919
13185W        W29659  16.600   2.457  16.513  0.4266 -0.1951  0.0274
13186W        W29660   1.609   0.198   6.132  0.0419  0.0732 -0.0380
13187W        W29661   1.955  17.117   6.108  0.0602 -0.0007  0.0789
13188W        W29662  16.668   9.236   5.662 -0.2447 -0.1134 -0.0537
13189W        W29663  13.394   7.342   0.447  0.0506  0.0210  0.2435
13190W        W29664   7.759  17.679  14.882 -0.0062  0.1713  0.1837
13191W        W29665   0.812   1.198   3.067 -0.3627  0.0070  0.2131
13192W        W29666  14.873   3.560   1.734  0.1526  0.2156  0.4434
13193W        W29667   8.493  15.248   2.306  0.2265  0.0479  0.0654
13194W        W29668  17.381   0.878   2.048  0.0303  0.0468  0.0783
13195W        W29669  13.710   5.180   0.668 -0.1464  0.2295  0.0560
13196W        W29670  17.852   8.006   1.119 -0.1195  0.0168 -0.0182
13197W        W29671  12.494  10.135  11.497  0.2393 -0.0918 -0.0473
13198W        W29672  14.539   3.170  14.824  0.1281  0.2526 -0.1732
13199W        W29673  10.611   8.893  12.615 -0.1369 -0.1856 -0.0012
13200W        W29674  15.243   1.021  11.683  0.1203 -0.2845 -0.0763
13201W        W29675   4.554   2.450   6.102  0.0027 -0.1088 -0.1256
13202W        W29676   2.431   5.815  15.773 -0.1803  0.3277 -0.0437
13203W        W29677   3.558  11.768  16.671  0.1380 -0.3401 -0.3169
13204W        W29678  12.991  13.965  12.803 -0.0866  0.1666 -0.2335
13205W        W29679  12.193   1.682   1.038  0.0360  0.2851 -0.1441
13206W        W29680   9.271   9.292   0.098 -0.3596  0.0928  0.0218
13207W        W29681  14.019  15.268   0.097  0.2866 -0.0922 -0.3550
13208W        W29682  11.961   0.913   5.673  0.0620  0.0686  0.0392
13209W        W29683   8.203  15.320  15.832 -0.1296  0.2638 -0.3289
13210W        W29684  14.458  16.761  14.760  0.1251  0.1649  0.1512
13211W        W29685  13.177   2.026   2.141 -0.2006 -0.2072 -0.1024
13212W        W29686   0.887   9.510   1.671 -0.2376  0.0164 -0.1965
13213W        W29687   0.561   8.129  12.871  0.0427 -0.0173  0.2237
13214W        W29688  14.647  17.490  16.390 -0.0518 -0.1607 -0.1878
13215W        W29689   6.965  17.602  12.382  0.0500 -0.1654  0.1092
13216W        W29690   1.078  16.867  15.246 -0.0734  0.1850 -0.0182
13217W        W29691  17.218  12.355   2.197  0.0613 -0.0700 -0.1983
13218W        W29692  10.377  11.698   2.543 -0.0585  0.2211  0.1204
13219W        W29693  17.751   7.983  16.411  0.1733 -0.0538 -0.0371
13220W        W29694   2.473  11.397   1.087 -0.1051  0.0787  0.0234
13221W        W29695   0.206   4.721   5.569 -0.2270 -0.1700  0.1378
13222W        W29696  16.985  15.663   5.690 -0.1741 -0.0909  0.1254
13223W        W29697  13.593  13.496   3.140  0.2335  0.0449 -0.0177
13224W        W29698   6.958   8.145  13.607  0.1558  0.4417  0.0585
13225W        W29699  12.997  11.629   4.616 -0.3217 -0.1078  0.0215
13226W        W29700   5.570  13.655   4.204  0.1683 -0.3618  0.0507
13227W        W29701  11.067  12.776   2.558 -0.1545 -0.1289 -0.1323
13228W        W29702   3.407  17.588  15.590  0.1572  0.1626 -0.1150
13229W        W29703   8.086  10.600  14.183 -0.1306  0.2881  0.1147
13230W        W29704  17.557   6.527  15.829 -0.0422 -0.1216  0.0935
13231W        W29705   1.446   8.494  16.138 -0.1441  0.0771 -0.2726
13232W        W29706  11.516  11.421   3.645  0.0463 -0.2870 -0.1465
13233W        W29707  14.241  16.010  13.898  0.0370  0.0525 -0.0971
13234W        W29708  10.399   1.006   2.741 -0.0226  0.0734 -0.0293
13235W        W29709   0.687   6.796   4.888  0.1497 -0.0487 -0.1295
13236W        W29710   6.808   0.367  15.576 -0.0910  0.0588 -0.0347
13237W        W29711   7.806  12.091   5.286 -0.1887  0.1389  0.0305
13238W        W29712  12.770   9.995  14.581 -0.0779 -0.1578  0.1880
13239W        W29713   4.020  17.157   2.815 -0.1921  0.1844 -0.1603
13240W        W29714   6.708   2.700   4.522 -0.0762 -0.0141  0.0634
13241W        W29715   0.222  13.722  15.126  0.3723  0.0682  0.3137
13242W        W29716  14.762   1.319  13.556  0.0617  0.1574 -0.3305
13243W        W29717  17.404  17.871  16.707  0.0802  0.2834 -0.2201
13244W        W29718  11.511  10.199   6.343 -0.0150 -0.0369 -0.1264
13245W        W29719  14.968   8.769   2.874 -0.0903 -0.1834 -0.1474
13246W        W29720  11.387  15.274   1.779  0.3800  0.1772  0.2931
13247W        W29721   5.977   6.689   4.372  0.1183 -0.1468  0.1028
13248W        W29722  17.282  11.980  16.304  0.0407 -0.0055 -0.0950
13249W        W29723  13.559  16.934   3.463 -0.3172  0.2270 -0.2125
13250W        W29724   7.647   4.276   1.242  0.1213  0.0973 -0.1475
13251W        W29725  12.418   3.452  12.229 -0.1137  0.1447  0.0524
13252W        W29726   9.511  16.720  13.573 -0.2475 -0.0373 -0.1608
13253W        W29727   5.348   2.613  14.299 -0.0272  0.0949 -0.0805
13254W        W29728  17.422   7.985   0.306  0.5723  0.3068  0.1166
13255W        W29729   7.668   5.944  15.674  0.2071  0.1046 -0.0550
13256W        W29730  12.422   6.361   3.238 -0.0794 -0.0956 -0.0095
13257W        W29731   0.964   1.488  14.406 -0.1197 -0.0319  0.0887
13258W        W29732   8.127   0.584  13.108 -0.2856  0.3354  0.1039
13259W        W29733   2.518  12.094  13.325  0.0919 -0.2586 -0.3611
13260W        W29734  10.501  15.698   4.478  0.1430  0.0625 -0.0102
13261W        W29735   1.802  12.879  12.271 -0.1540 -0.0846  0.0502
13262W        W29736   3.550  13.724   2.766  0.1575  0.1861  0.4260
13263W        W29737   9.481  15.026   3.982  0.1936 -0.0341 -0.1505
13264W        W29738  14.833  13.673   5.455  0.1657 -0.0358  0.2848
13265W        W29739   9.289  16.273  13.652 -0.0782  0.2937 -0.0164
13266W        W29740  14.982  15.292  15.641  0.2256  0.0153  0.2691
13267W        W29741  15.752   2.381   1.898 -0.0446  0.1398  0.3663
13268W        W29742   3.488   3.602   4.935 -0.2523 -0.0547  0.0589
13269W        W29743   5.053   7.044  15.737 -0.2593  0.1881 -0.1106
13270W        W29744   9.075   4.005   2.395  0.0765 -0.0045  0.0492
13271W        W29745   7.124   1.884   4.826 -0.1211 -0.2121  0.0849
13272W        W29746  15.233  13.465   4.104  0.2035  0.5353 -0.0755
13273W        W29747   4.828   8.708  16.761  0.2080 -0.1876 -0.0282
13274W        W29748   6.787   9.874   5.025 -0.1039 -0.2610 -0.0192
13275W        W29749   9.185   3.259  13.930 -0.1417 -0.0956  0.0457
13276W        W29750   2.304   4.089  13.973 -0.0394  0.2615 -0.1104
13277W        W29751   3.781  10.128  16.259 -0.2259 -0.2293  0.1823
13278W        W29752  16.843   8.706  11.016 -0.1815 -0.2010  0.4964
13279W        W29753  15.501   5.115   1.885  0.1825 -0.1332  0.4833
13280W        W29754  13.683  10.477  13.089  0.1795 -0.0351  0.1824
13281W        W29755   1.747  10.122   4.128  0.2212  0.0476  0.1712
13282W        W29756  16.564   4.668   0.167  0.1396 -0.0009  0.1553
13283W        W29757   1.473   6.744  13.609 -0.0730  0.1044 -0.1370
13284W        W29758   5.820  14.843   3.335  0.0452 -0.0570 -0.0296
13285W        W29759   8.760   3.840  15.814  0.1328  0.0084  0.0756
13286W        W29760   2.218   8.236  15.365  0.0727  0.0321 -0.1596
13287W        W29761   4.409   7.954   2.909  0.1805  0.0348 -0.1129
13288W        W29762  15.057  11.584  15.489  0.1489 -0.1087 -0.0210
13289W        W29763  11.055  13.896  15.967  0.0615 -0.0790  0.0462
13290W        W29764   9.072   4.138  13.205  0.2601 -0.1586  0.0332
13291W        W29765   4.844   3.433   4.236 -0.2561 -0.2444  0.0398
13292W        W29766  13.963  12.249  13.338 -0.1186 -0.1417  0.1067
13293W        W29767   5.346   6.278  12.375  0.1539 -0.3565  0.0079
13294W        W29768   7.368  10.948   3.062  0.1081  0.2747 -0.0314
13295W        W29769   6.053  11.919  13.692 -0.0433 -0.0912  0.1522
13296W        W29770  13.533  10.937   1.490  0.1958 -0.1847 -0.0073
13297W        W29771  15.618   8.693  11.279 -0.1308  0.2735  0.1024
13298W        W29772   4.582   9.282  15.583 -0.1602 -0.1265  0.2254
13299W        W29773   4.659  11.761   3.690 -0.0221  0.0707 -0.0523
13300W        W29774  10.441  12.603   3.101  0.1032  0.1157  0.2486
13301W        W29775  16.401   4.799  14.811 -0.0885 -0.0419  0.2288
13302W        W29776  10.301  12.675   0.493 -0.2036 -0.1834  0.0766
13303W        W29777  12.733  16.755  16.173  0.0006 -0.4356  0.0026
13304W        W29778   2.043  11.295  14.686  0.1125 -0.0175  0.3734
13305W        W29779   6.751   3.485  13.806  0.0306  0.1831 -0.0069
13306W        W29780   2.166  12.913   2.792  0.0485 -0.0782  0.1398
13307W        W29781   7.377   3.995  14.241  0.0838 -0.0783 -0.1037
13308W        W29782  14.257   6.304  15.916  0.0002 -0.1655 -0.4220
13309W        W29783   3.617   6.492  15.118  0.0729  0.0547  0.3655
13310W        W29784   0.365   1.165   4.713 -0.2509  0.1311  0.2413
13311W        W29785  13.329  17.575   5.154 -0.4832  0.1139  0.0541
13312W        W29786   4.475   5.070   4.135  0.0591 -0.2401 -0.1370
13313W        W29787   1.906   0.920   1.746 -0.1735  0.2883  0.0436
13314W        W29788   7.041   0.981  16.525 -0.2226  0.0877 -0.0522
13315W        W29789  15.078  12.578   2.546 -0.1203 -0.0052 -0.0174
13316W        W29790   7.784  12.704   4.440 -0.0696 -0.0763  0.0361
13317W        W29791   2.359   3.509   4.658  0.1128 -0.1222 -0.0505
13318W        W29792   8.042   8.588   0.885  0.0507  0.0097 -0.1309
13319W        W29793  13.039  11.955   0.486 -0.2833 -0.0334  0.0708
13320W        W29794  12.142   9.040   1.797  0.0132 -0.1482 -0.1956
13321W        W29795   7.945   9.810  13.254  0.1045 -0.0509 -0.0730
13322W        W29796  13.163   8.103   1.505  0.2456  0.0049 -0.0390
13323W        W29797   3.636   8.471   2.938 -0.2482  0.1146 -0.1790
13324W        W29798  10.051  15.158   1.928  0.3132  0.0939  0.0822
13325W        W29799   6.876  16.711  14.337  0.0818 -0.1090  0.0552
13326W        W29800   6.763  15.150   2.259  0.0595 -0.1378 -0.2176
13327W        W29801  12.065   0.324  16.273 -0.1910  0.2288 -0.0454
13328W        W29802  13.260   5.967  14.848 -0.2697  0.4253  0.0262
13329W        W29803  13.366   2.783   1.860 -0.0341  0.3834  0.0369
13330W        W29804   3.107   7.648  13.303 -0.4956 -0.0207 -0.0740
13331W        W29805   8.873   2.914  12.888  0.1981 -0.1909  0.0117
13332W        W29806  15.465   7.961   3.800 -0.0349 -0.0827 -0.0110
13333W        W29807   7.674  13.192   4.346 -0.3194  0.0526  0.0406
13334W        W29808   0.496   4.227   6.310  0.4205  0.0910 -0.0577
13335W        W29809   8.542  17.678  15.433  0.0086  0.1651 -0.2562
13336W        W29810  16.108   6.046  16.007  0.1866 -0.0304 -0.0096
13337W        W29811   8.819  15.521  10.425  0.0531 -0.4978  0.1061
13338W        W29812  16.677  14.627   4.754  0.0601 -0.1422 -0.0494
13339W        W29813  10.956   8.193  12.432 -0.0784 -0.1075 -0.0210
13340W        W29814  11.484   1.310   2.167  0.2939 -0.0581 -0.1157
13341W        W29815   3.983   3.359   5.599  0.2217  0.3065  0.1788
13342W        W29816  11.957   3.481   2.757  0.0863 -0.3341  0.0710
13343W        W29817   5.720  15.438   6.054 -0.1425 -0.0071 -0.0150
13344W        W29818   8.808  14.653   2.818  0.3493  0.1214 -0.3832
13345W        W29819   2.206   4.033   0.661 -0.3654  0.0604 -0.0383
13346W        W29820  14.678  10.426  16.716 -0.2255 -0.1070 -0.4516
13347W        W29821  16.898   3.986   1.713 -0.2947  0.1294 -0.1175
13348W        W29822  16.895   6.337  13.938 -0.1335 -0.2143 -0.0065
13349W        W29823   4.112   7.721   3.575 -0.0251  0.2329  0.0141
13350W        W29824  14.003  13.925   0.141  0.1689 -0.3319  0.1726
13351W        W29825  12.536   8.234   0.920 -0.0251 -0.0096 -0.0815
13352W        W29826   2.016   3.614   3.617  0.1313  0.1467  0.0634
13353W        W29827  13.223  13.489  15.888  0.1073 -0.0497  0.2360
13354W        W29828  11.558   5.479   4.092  0.0524  0.0581  0.3687
13355W        W29829   1.794   7.594   5.217 -0.0643 -0.1609  0.0268
13356W        W29830   9.673  13.799  15.760  0.3783 -0.2262  0.2331
13357W        W29831  15.195  12.641  14.751 -0.0393 -0.2645 -0.1359
13358W        W29832   6.313  12.125   2.785 -0.1457 -0.0633 -0.1531
13359W        W29833  11.140   1.515  12.250 -0.1135  0.0695  0.2022
13360W        W29834   3.689   6.198   3.234  0.0216 -0.0060 -0.0147
13361W        W29835  12.896  13.258  11.449  0.0826 -0.0542  0.0255
13362W        W29836  17.609   9.799  15.176 -0.0806  0.1073 -0.0267
13363W        W29837   3.757   3.277   2.830  0.1957 -0.0788  0.2021
13364W        W29838  15.281   0.479   3.324  0.0499 -0.1159  0.3232
13365W        W29839  11.771   1.730   5.493 -0.2159  0.0542 -0.0614
13366W        W29840   5.359  16.599   2.488 -0.0184 -0.1628 -0.1780
13367W        W29841   2.950  14.509   4.944 -0.1708 -0.1167 -0.1651
13368W        W29842   7.743   1.663  13.634 -0.1941 -0.1107  0.1582
13369W        W29843  15.842  13.461  12.798 -0.1108  0.0015 -0.2999
13370W        W29844  17.842  15.808  14.829 -0.0530  0.0398  0.0757
13371W        W29845   5.702   8.323   3.006 -0.2098 -0.2616 -0.1853
13372W        W29846  17.914   9.678  13.614 -0.1231 -0.1000 -0.1987
13373W        W29847  13.895  15.091  13.481 -0.0171  0.0844  0.0829
13374W        W29848   4.898   6.853  13.488 -0.1684 -0.2142 -0.0614
13375W        W29849  14.887  12.859  12.820 -0.0624  0.2133 -0.0385
13376W        W29850   1.601   8.063  15.378 -0.0315 -0.4548 -0.0527
13377W        W29851   7.013  14.500   6.285 -0.1160 -0.1756 -0.1186
13378W        W29852  12.370   6.744  16.091 -0.0038  0.0349 -0.0869
13379W        W29853   7.630   8.424   5.459 -0.2232 -0.1039  0.1126
13380W        W29854  13.217   4.267   0.733  0.4807  0.1136 -0.5449
13381W        W29855   7.578  13.957  14.369 -0.0074  0.1148 -0.2322
13382W        W29856   6.355  17.361   0.524 -0.2979 -0.1081 -0.1212
13383W        W29857   3.031   5.842  14.907  0.4715 -0.0642 -0.1128
13384W        W29858   0.280   3.284   5.268  0.0600  0.1393 -0.0692
13385W        W29859  10.247   8.193  14.938  0.0508 -0.0742 -0.2835
13386W        W29860   9.640   0.042   0.359  0.1464  0.3137  0.0479
13387W        W29861   6.099  13.927   2.579 -0.0154  0.1128  0.0401
13388W        W29862   1.021   4.912  16.544 -0.0817 -0.0137 -0.2662
13389W        W29863  17.906   2.689  12.706 -0.1153  0.1578  0.1174
13390W        W29864  14.332  12.501  13.733 -0.1770 -0.3069  0.1924
13391W        W29865   3.960   1.472   0.369  0.1480 -0.1255 -0.0236
13392W        W29866  13.107  10.712   0.252  0.3033 -0.0304  0.1055
13393W        W29867   2.569  11.779  14.468  0.4087  0.1938  0.1397
13394W        W29868  11.758   9.558   1.775 -0.2579  0.1663 -0.0241
13395W        W29869  11.332   3.652  16.405  0.0840  0.0738 -0.2101
13396W        W29870   6.202   0.912   5.912  0.0720 -0.2337  0.1364
13397W        W29871   3.723  11.265  15.590  0.3185 -0.1386  0.0055
13398W        W29872   6.730   0.740  13.249 -0.1628  0.0716  0.0429
13399W        W29873   7.279  17.647  14.993 -0.0572  0.1695 -0.0355
13400W        W29874   2.572  11.132   2.711 -0.1082 -0.0760  0.0852
13401W        W29875   2.271   2.869  15.224 -0.0907  0.5649  0.3762
13402W        W29876   6.255  15.841  13.795  0.0535 -0.3045  0.0467
13403W        W29877  10.023   0.384   1.900 -0.0018  0.0681 -0.0090
13404W        W29878   1.471   5.545   3.955  0.1322  0.0070 -0.0823
13405W        W29879   1.323   4.245   3.163  0.3003  0.4349 -0.3155
13406W        W29880  10.499   9.114   1.396  0.3894 -0.0117 -0.2067
13407W        W29881   0.835  16.448   2.306 -0.0425  0.3358 -0.1416
13408W        W29882   9.279   4.226   0.241  0.0264 -0.2647  0.0719
13409W        W29883   1.819   9.417  16.624  0.1535  0.0721 -0.0773
13410W        W29884   7.287   4.817  15.953 -0.4425  0.2718 -0.0349
13411W        W29885   9.822   3.199  11.660 -0.3018 -0.0541  0.0901
13412W        W29886  15.099   2.536   4.497 -0.0834 -0.3230  0.3084
13413W        W29887   8.246  10.235  13.298 -0.4813  0.2643  0.0831
13414W        W29888   5.312   6.640  15.507 -0.0696 -0.0639  0.0107
13415W        W29889  12.731   7.423   0.866 -0.1968  0.0154 -0.0823
13416W        W29890   0.933   4.385   5.130  0.1455  0.2162 -0.1276
13417W        W29891   6.882   8.509   0.245 -0.1573  0.2932  0.0410
13418W        W29892   2.748  14.399   1.655 -0.2259 -0.1839  0.0608
13419W        W29893  15.828   9.970   3.417 -0.1506  0.1263 -0.2476
13420W        W29894   7.823  12.982  16.264  0.0163  0.0604  0.0204
13421W        W29895   7.425   6.734   1.478  0.0905 -0.1688  0.0557
13422W        W29896  16.107   8.558  12.451  0.1643  0.2525  0.2187
13423W        W29897  13.307   2.994  16.308 -0.0011  0.3884 -0.0763
13424W        W29898   0.292   8.439  13.769  0.0194 -0.1225 -0.0581
13425W        W29899   8.692  12.229  16.324  0.0087 -0.7486  0.3484
13426W        W29900   3.465  15.907  14.228  0.0284  0.0435 -0.1668
13427W        W29901   9.521  17.729   2.376 -0.1155 -0.0544 -0.0763
13428W        W29902   1.549   3.720   3.882  0.0984 -0.2978  0.0256
13429W        W29903   9.055  17.588  15.485  0.0897 -0.0176 -0.0708
13430W        W29904   2.756  12.314  13.713  0.2803  0.0735  0.2916
13431W        W29905   1.196  11.268   0.685 -0.0056  0.1159 -0.3992
13432W        W29906   2.048   9.935   3.744 -0.3043 -0.0264  0.1262
13433W        W29907  11.173  14.380   3.186  0.3970  0.2622 -0.0798
13434W        W29908  14.127   7.154   1.506 -0.3289 -0.1141 -0.0743
13435W        W29909  10.535   7.357  13.510 -0.4773  0.1895  0.3664
13436W        W29910  11.529   9.115   0.977 -0.2358 -0.1824 -0.1164
13437W        W29911  13.630  11.163   3.942 -0.0598  0.2244  0.2463
13438W        W29912   5.339   4.940   0.367  0.1432  0.2838  0.1228
13439W        W29913  13.288   2.276  12.212 -0.2901 -0.0238  0.1019
13440W        W29914  13.509  16.785  16.675 -0.2261 -0.0034  0.0686
13441W        W29915   9.671  13.835   1.933  0.0383 -0.2998 -0.2776
13442W        W29916   1.829  10.903   1.442  0.0315 -0.1545  0.2535
13443W        W29917  15.006   0.777  14.440 -0.1363  0.2099 -0.2102
13444W        W29918   0.801  17.018  12.607 -0.2046 -0.1240 -0.2589
13445W        W29919   2.792  17.894   1.943 -0.0290  0.1163  0.0623
13446W        W29920  15.661   2.149   1.415  0.1039 -0.0426 -0.4554
13447W        W29921   1.541  13.172   2.957 -0.2771  0.1279 -0.0926
13448W        W29922  16.307  12.901  11.406  0.0229 -0.1567  0.0327
13449W        W29923  17.431  10.387   4.664  0.1865 -0.2918  0.2483
13450W        W29924   3.555   9.900   3.537 -0.2703 -0.1864 -0.2846
13451W        W29925   8.488  17.170  14.954 -0.2415  0.3004  0.2149
13452W        W29926  11.590   7.466  14.719  0.2894  0.2176  0.0228
13453W        W29927   8.113   2.066   4.895 -0.0406 -0.0452 -0.1436
13454W        W29928   6.208   9.665   1.035  0.0826 -0.4160 -0.0829
13455W        W29929   0.342   9.195  15.880  0.0710 -0.1630  0.1316
13456W        W29930   3.007   6.764  16.599 -0.0601 -0.0418  0.0798
13457W        W29931  16.986   1.343   1.322  0.0616  0.0434 -0.1948
13458W        W29932  10.689   1.742  15.366  0.1833  0.1324  0.1551
13459W        W29933   2.389  10.781   4.047  0.0858 -0.0976 -0.1436
13460W        W29934   8.210   0.724   1.562  0.0197 -0.2563 -0.1699
13461W        W29935   2.012  13.082  14.438 -0.1647  0.0880 -0.0855
13462W        W29936   1.753  15.237   4.308 -0.0061  0.2576 -0.1546
13463W        W29937   9.310   0.173  12.129 -0.0255 -0.0845 -0.0570
13464W        W29938   4.601   3.857   2.032  0.2324 -0.2866 -0.2758
13465W        W29939  14.002   4.037   2.419 -0.1109  0.0467  0.0272
13466W        W29940  11.135  13.575  12.334 -0.0968 -0.1562  0.0903
13467W        W29941  15.876  15.338  15.903 -0.0231  0.2370  0.2426
13468W        W29942  17.349   7.436   0.965 -0.0907  0.0969  0.2296
13469W        W29943   0.768   2.869  14.013  0.1866 -0.0484  0.0433
13470W        W29944   9.776  17.749   2.885 -0.1049 -0.0525 -0.1672
13471W        W29945  15.249   0.905  12.949 -0.0648  0.3058 -0.0263
13472W        W29946  14.258   2.809   2.324  0.1176 -0.0613  0.1134
13473W        W29947   7.593   6.803   6.341 -0.0301  0.0131  0.1340
13474W        W29948   4.869   7.640  12.243 -0.0371  0.3717  0.3391
13475W        W29949   6.917  11.596   3.493  0.1267 -0.1798  0.0452
13476W        W29950  13.381  14.574  16.389 -0.1558  0.1260 -0.0882
13477W        W29951  13.610   6.516   6.374  0.2716 -0.1357  0.1365
13478W        W29952   3.437  17.986  14.436 -0.2814  0.0848 -0.3370
13479W        W29953   7.376   8.369  14.652  0.0087 -0.1762 -0.0561
13480W        W29954   0.647   5.559   5.529  0.2932  0.2278 -0.1983
13481W        W29955  12.425  12.476   0.803 -0.1677  0.0323  0.1491
13482W        W29956  12.139  13.753  12.956 -0.0865 -0.1415 -0.0753
13483W        W29957   5.133  17.995  15.985 -0.0527  0.2946 -0.0455
13484W        W29958  14.077   6.290   5.050 -0.2016  0.2345  0.1070
13485W        W29959   4.566   4.273   0.014  0.2584  0.2109  0.3264
13486W        W29960  10.953   5.336   4.051 -0.0152  0.4426 -0.0136
13487W        W29961   1.444  10.978   0.385 -0.0382  0.2571 -0.1541
13488W        W29962   0.085  14.718  14.566 -0.1827 -0.0921  0.0194
13489W        W29963   2.666   7.589  14.247 -0.2008 -0.1448 -0.1624
13490W        W29964  13.647   3.056  15.536  0.1606 -0.0299  0.2141
13491W        W29965  15.499   2.352  11.770  0.1512 -0.0227 -0.2998
13492W        W29966   3.844   5.513  13.990 -0.2103 -0.1035  0.2463
13493W        W29967   4.908   5.219  11.799 -0.0408 -0.3945 -0.0727
13494W        W29968  14.483   5.038  15.151  0.1223  0.0709 -0.3062
13495W        W29969  14.919  11.379   0.176 -0.1884 -0.0370  0.0229
13496W        W29970  12.587   6.580  12.899  0.0177 -0.0264 -0.0116
13497W        W29971   0.209   5.595  13.583 -0.0205 -0.1712  0.0343
13498W        W29972  13.636   7.158   3.639 -0.1743  0.1815  0.0564
13499W        W29973   5.963  11.563  15.800 -0.0977  0.3604 -0.2525
13500W        W29974   3.076   3.674   5.240 -0.1566  0.1575  0.3903
13501W        W29975  15.673   2.672   5.911  0.0291 -0.2319 -0.2379
13502W        W29976   6.172  12.067  15.631 -0.2444 -0.1534  0.1006
13503W        W29977  11.503   2.157  14.399 -0.1903 -0.0293  0.1686
13504W        W29978   4.678  15.338  15.041  0.0636 -0.3123 -0.1890
13505W        W29979  11.432  14.231  11.732  0.1015  0.0984 -0.2970
13506W        W29980   8.740   7.332   2.608  0.0714 -0.0844 -0.0849
13507W        W29981   3.946   6.734  16.311 -0.0271  0.2944  0.3129
13508W        W29982   8.454   8.134   5.695 -0.0271 -0.1008 -0.0642
13509W        W29983  12.027  12.472   5.842 -0.0266  0.2136  0.2350
13510W        W29984   7.711   3.668  13.410  0.0669  0.1484 -0.1886
13511W        W29985   6.061  17.155   4.076 -0.2721  0.0069 -0.0004
13512W        W29986  16.040   6.222   1.865  0.0812  0.0076  0.3687
13513W        W29987  10.015  15.706   6.021  0.0525  0.3197  0.1156
13514W        W29988   8.139  16.749   1.148 -0.0778 -0.2761 -0.0271
13515W        W29989   0.604  17.465   0.576  0.0685 -0.3402  0.2830
13516W        W29990  17.497  10.947   1.297  0.4817  0.3636  0.2958
13517W        W29991   5.193   2.091   3.105  0.2044 -0.1140  0.0168
13518W        W29992  11.318   2.719   4.365 -0.0571  0.1733  0.0549
13519W        W29993   9.593  16.252  11.363 -0.0854 -0.0991  0.0169
13520W        W29994   9.926   8.442   3.591  0.3011 -0.0325  0.2606
13521W        W29995   4.390  12.587   3.495 -0.1232  0.0591  0.1005
13522W        W29996  14.295   6.711   1.137 -0.2977  0.2177 -0.1740
13523W        W29997   3.044  15.868   3.684 -0.3479 -0.2580  0.3123
13524W        W29998   1.511  11.377  13.208  0.1524 -0.0370 -0.0236
13525W        W29999   5.799  13.759  11.069 -0.2921  0.0671 -0.1363
13526W        W30000  10.790  12.430  16.327 -0.1543  0.1127  0.0148
13527W        W30001   0.119  12.523   4.028  0.1487 -0.0797 -0.2833
13528W        W30002   3.231   6.749   1.975  0.0103 -0.2054 -0.0922
13529W        W30003   7.240   1.908   0.728 -0.0168  0.1036 -0.2211
13530W        W30004  13.257  12.773   0.195  0.0046  0.0114 -0.2109
13531W        W30005  15.755   2.144   4.902  0.0437 -0.1136  0.0153
13532W        W30006   1.842   2.386   1.495  0.1227  0.3096 -0.2178
13533W        W30007  10.974   5.358   5.824  0.1091 -0.1980  0.0769
13534W        W30008   3.693   5.144   0.213 -0.0726 -0.3559  0.0270
13535W        W30009   9.253   7.364   3.104  0.1701 -0.2568 -0.1236
13536W        W30010   0.890   5.138   1.513  0.2236 -0.1369  0.1516
13537W        W30011   9.816   9.358   3.797 -0.3649  0.0786  0.1249
13538W        W30012  13.140  15.557  14.842 -0.0177  0.1309  0.1040
13539W        W30013  14.753  11.837  16.228 -0.2267 -0.0464  0.2236
13540W        W30014   7.033   2.884   0.404 -0.2954  0.0858  0.0822
13541W        W30015  13.201   3.729  14.385 -0.0087 -0.1234 -0.2247
13542W        W30016  10.787   0.067  12.925  0.1322 -0.1631 -0.2992
13543W        W30017  12.474  13.303  15.411 -0.0330  0.2392 -0.0778
13544W        W30018   7.365   7.705   3.284  0.3500  0.3931 -0.1004
13545W        W30019   7.414  16.364   4.550  0.1022  0.1598 -0.0481
13546W        W30020   7.242   3.498   2.553 -0.1915 -0.3266  0.0969
13547W        W30021  10.861   9.313   1.661 -0.0340 -0.1252 -0.4161
13548W        W30022  13.370   8.214   0.564  0.1049 -0.1557 -0.1559
13549W        W30023  14.576  17.523   2.505  0.1974 -0.1486 -0.0812
13550W        W30024  10.992  17.509  15.795  0.1276 -0.0565 -0.0321
13551W        W30025  11.631  13.250   3.590 -0.0225  0.1792 -0.1886
13552W        W30026  13.058   5.058   1.463  0.0615  0.4150 -0.2389
13553W        W30027  11.721  11.485  15.889  0.0210  0.3453  0.1261
13554W        W30028   9.904  14.362   0.279 -0.2302 -0.1379  0.0257
13555W        W30029  12.367   2.079  13.312  0.0223  0.1083 -0.0130
13556W        W30030   3.439  13.858   0.409  0.1204 -0.2615  0.3373
13557W        W30031   9.926  12.316   1.198 -0.1895  0.1034  0.0916
13558W        W30032   4.293   5.133  16.303  0.0395  0.1467  0.0870
13559W        W30033   1.707  10.153  15.458  0.2816 -0.1023  0.1409
13560W        W30034   9.652  12.940  12.229 -0.2383 -0.0270 -0.3069
13561W        W30035  16.911   3.012  13.429 -0.0384  0.0013  0.3014
13562W        W30036  16.781  15.726   4.034 -0.3643  0.1639  0.0689
13563W        W30037  12.156   7.486   1.402 -0.2674 -0.0379 -0.0521
13564W        W30038   7.973   9.452   4.975  0.1997 -0.3014  0.2802
13565W        W30039  16.324  11.490  15.238 -0.2970 -0.1155  0.1770
13566W        W30040  15.176   3.549  16.026  0.0481  0.1929  0.3246
13567W        W30041   6.966  14.609  13.899 -0.4577 -0.1036  0.0271
13568W        W30042   8.230   3.927  14.053  0.0041  0.2712  0.0289
13569W        W30043  16.922   7.714  12.848 -0.0309 -0.1839  0.1020
13570W        W30044  13.573   0.339   5.646 -0.0217 -0.0714 -0.1043
13571W        W30045   8.079   8.259   2.942  0.1309 -0.0700  0.2800
13572W        W30046   8.798  11.719  13.235 -0.0966  0.5605 -0.1415
13573W        W30047  12.685   7.901   4.307 -0.0391  0.3085  0.1961
13574W        W30048   1.347   5.697   5.383 -0.0386  0.2240  0.0824
13575W        W30049  16.151   3.355   4.237  0.0145  0.0835  0.1603
13576W        W30050   4.778   8.846  12.096  0.3704 -0.0650 -0.0314
13577W        W30051   2.103   5.486   5.760  0.0305  0.1671  0.0972
13578W        W30052  17.014   2.948  12.239  0.0001 -0.1769  0.0224
13579W        W30053  15.778  11.986   2.009  0.0058  0.2505  0.3123
13580W        W30054  12.788   2.623   4.390  0.1563  0.0813 -0.2384
13581W        W30055   9.054  13.759   4.675 -0.1883  0.1945 -0.1657
13582W        W30056  10.455  10.296   0.851 -0.0203 -0.2551 -0.0955
13583W        W30057   8.319   1.781   5.324 -0.1916  0.0927  0.2121
13584W        W30058   9.997  12.420   4.827  0.2087  0.0584 -0.0183
13585W        W30059  14.395   8.015  12.268 -0.2037 -0.0998 -0.0226
13586W        W30060  17.707   8.783  13.794 -0.0925 -0.0877  0.3135
13587W        W30061   5.693  14.014   0.632  0.1431 -0.0674 -0.1888
13588W        W30062  12.063   0.545  15.308 -0.0714  0.0166  0.2624
13589W        W30063   3.188   4.911  13.471 -0.2128  0.0252  0.0956
13590W        W30064  16.691  13.087   2.283 -0.0265  0.2315 -0.0944
13591W        W30065  16.909  17.018  16.150 -0.2156 -0.0706 -0.0808
13592W        W30066   7.161  16.070  14.270 -0.4437 -0.2724  0.0374
13593W        W30067   3.525  14.439   3.413  0.0310  0.2518  0.0054
13594W        W30068  17.389   3.103   5.119 -0.0169 -0.0808 -0.1526
13595W        W30069   8.950   8.207   5.932 -0.2174 -0.1857  0.0122
13596W        W30070  15.639   0.127   1.582 -0.4010  0.2624  0.0675
13597W        W30071  10.212   0.446  12.399  0.1701  0.2717  0.2436
13598W        W30072   7.484   5.337   2.405 -0.1915 -0.1249  0.0164
13599W        W30073  10.724   0.382   1.512  0.0021  0.2215 -0.0386
13600W        W30074   2.325   7.286   4.667 -0.0174  0.0576  0.0488
13601W        W30075   9.420  12.049   2.048 -0.0877  0.0757  0.1209
13602W        W30076  17.070  14.516  12.720 -0.0716  0.1084  0.0129
13603W        W30077   6.094  15.200  16.521 -0.1343  0.1990  0.1918
13604W        W30078   0.633   5.731   0.814 -0.3439  0.0571  0.0246
13605W        W30079  14.888  11.080  15.353 -0.0065  0.2661  0.1423
13606W        W30080   4.243   8.140  11.933  0.4979 -0.0475  0.3156
13607W        W30081   6.235  12.965  15.201 -0.3972 -0.1275  0.0186
13608W        W30082   1.070  13.265  14.844  0.3018 -0.3278  0.1301
13609W        W30083   7.030  10.456   1.784 -0.2212  0.0243 -0.1556
13610W        W30084  13.814   5.294   3.561 -0.2015 -0.1752 -0.2195
13611W        W30085  16.242   6.911  13.709 -0.2130 -0.0323 -0.0007
13612W        W30086  16.570   9.203  16.413  0.2253 -0.0372  0.2677
13613W        W30087  14.180   5.285   4.439 -0.1173 -0.2496  0.0253
13614W        W30088   1.337   4.927  15.148 -0.0247  0.0206 -0.0534
13615W        W30089  12.126   5.401  11.762  0.0902  0.2353 -0.1385
13616W        W30090  12.688   0.733   3.657  0.3286 -0.0048  0.1280
13617W        W30091  16.152  13.380   2.100  0.1032 -0.0749 -0.3618
13618W        W30092   4.966   7.651   4.937 -0.4281 -0.0432 -0.0087
13619W        W30093  17.683   5.317   3.516  0.2437 -0.2454  0.1162
13620W        W30094   0.693   6.950  13.307  0.1197  0.2056  0.0815
13621W        W30095   7.633  14.418   0.951  0.0140  0.0855  0.1141
13622W        W30096  13.522   7.627  14.060 -0.1515 -0.1434  0.2275
13623W        W30097   3.372  14.550   2.071  0.0320 -0.1912 -0.1525
13624W        W30098   0.634   7.411  15.373 -0.2809 -0.1015 -0.1542
13625W        W30099  17.104   0.459   1.929  0.0532 -0.0558  0.1153
13626W        W30100  10.123   0.827   2.208 -0.0030  0.4107 -0.0907
13627W        W30101   9.866  11.305  13.779  0.2442 -0.0272 -0.0265
13628W        W30102  12.179   8.548   0.723 -0.0351  0.2018 -0.0087
13629W        W30103   5.775   7.140  16.111 -0.3083 -0.3033 -0.1656
13630W        W30104  15.913   4.344   3.770  0.3060  0.2313  0.2251
13631W        W30105  10.861   3.889   0.515  0.0107  0.2915  0.2910
13632W        W30106   5.981   8.445   2.178  0.1872  0.3234  0.0194
13633W        W30107   0.327   1.266   2.155  0.2223  0.1919  0.2089
13634W        W30108   3.288   5.337  16.705 -0.1077  0.0198 -0.0521
13635W        W30109   5.776  11.438   1.794  0.2308  0.0378 -0.1715
13636W        W30110   6.713   9.853  13.860 -0.1927  0.0168  0.1284
13637W        W30111  11.085  15.077  11.610 -0.0516  0.1213 -0.4403
13638W        W30112   9.787  14.091  16.647 -0.0018 -0.2686  0.4406
13639W        W30113  14.766  17.519   0.080  0.2448 -0.0513  0.1825
13640W        W30114   4.380   3.278  12.799  0.0816 -0.1150 -0.1993
13641W        W30115   3.206   2.275  12.362 -0.1624 -0.0688  0.0854
13642W        W30116   3.415  10.224   5.414  0.2132 -0.0155 -0.1786
13643W        W30117   7.831   6.275   3.255  0.0131  0.0316 -0.1266
13644W        W30118   9.301  14.467  13.876 -0.3291  0.0841 -0.1401
13645W        W30119   4.961   1.889   5.494  0.1574  0.1126  0.1094
13646W        W30120   8.099   1.940   5.791 -0.0147 -0.1375  0.0266
13647W        W30121   3.844  13.162   0.481 -0.2062 -0.0623  0.1223
13648W        W30122  10.990   6.720  16.366 -0.3274  0.1510  0.0213
13649W        W30123   1.997  13.806   3.970 -0.0129  0.1928  0.1374
13650W        W30124  10.952  13.312  11.932 -0.0042  0.1580 -0.1005
13651W        W30125  15.095   6.657   4.978 -0.1018  0.0069  0.0539
13652W        W30126   8.299  10.961   2.718  0.1647  0.1725 -0.1263
13653W        W30127   8.719  12.228   1.599 -0.0317 -0.1738  0.0242
13654W        W30128   1.227  11.283   5.141  0.0801  0.0451  0.0777
13655W        W30129   0.413  16.278   3.119 -0.2647  0.1817  0.0474
13656W        W30130  15.608  14.729  15.382 -0.0294  0.0152  0.0419
13657W        W30131   4.755  14.681   4.855 -0.2276 -0.1194  0.1167
13658W        W30132  17.432   6.456   2.740 -0.2992  0.1668  0.0366
13659W        W30133  16.325   9.197   3.834 -0.0441  0.2695 -0.1022
13660W        W30134  15.252   7.566   4.757 -0.1512  0.0408  0.1661
13661W        W30135   4.049  15.893  15.239  0.1506 -0.0818 -0.1256
13662W        W30136   1.292  11.611   4.740 -0.2118  0.0555 -0.1878
13663W        W30137  16.480   0.173   4.878  0.2224 -0.0692 -0.0583
13664W        W30138   0.711   0.609   0.265  0.0284 -0.3625 -0.0388
13665W        W30139   7.928  17.250  16.371  0.0782 -0.2398  0.1566
13666W        W30140  16.225   2.438  12.769  0.0078  0.2809 -0.2052
13667W        W30141   1.494   9.214  13.049  0.1559 -0.1628  0.1064
13668W        W30142  16.694  14.891   0.477  0.1575  0.2961  0.0126
13669W        W30143  16.042   4.920  15.130  0.0815 -0.1117  0.1856
13670W        W30144   9.202  15.208   2.294 -0.3002  0.1166  0.2260
13671W        W30145   2.837  12.338  15.061  0.0482 -0.1898  0.2664
13672W        W30146   4.713  14.274   4.489 -0.0361  0.3402 -0.1216
13673W        W30147  10.038   1.525   3.467 -0.0774 -0.1769 -0.1870
13674W        W30148  10.527   0.819  12.295 -0.2502  0.0525  0.0206
13675W        W30149   0.467  13.392   3.889  0.0248 -0.0626 -0.0036
13676W        W30150   4.282  12.508  12.159 -0.0899  0.2992 -0.1565
13677W        W30151  14.073   1.059   5.692 -0.0763  0.1727 -0.1290
13678W        W30152  13.151   4.715   1.047  0.0175  0.0543 -0.0526
13679W        W30153  14.592   2.086  12.708 -0.0830  0.1054  0.0656
13680W        W30154   4.492   9.818  16.762 -0.1841 -0.1320  0.0338
13681W        W30155   2.396   2.525   3.762 -0.0412 -0.1785  0.0714
13682W        W30156   3.086   7.614   3.880 -0.1463 -0.3241  0.0279
13683W        W30157  12.114   6.318  15.960 -0.0638 -0.1665  0.1404
13684W        W30158   1.731   7.147  11.438  0.2187  0.0921  0.2331
13685W        W30159  13.650  14.908   2.623  0.4344  0.0274 -0.2553
13686W        W30160  15.823  11.020   5.026 -0.2964  0.1151 -0.0613
13687W        W30161  11.880   6.925  13.109 -0.1475 -0.0273 -0.1598
13688W        W30162  17.691   7.759   6.211  0.0925  0.0700 -0.1872
13689W        W30163  14.934   2.126   5.224  0.2228 -0.1585 -0.2451
13690W        W30164  13.101  12.623   5.166  0.0985  0.1841  0.1099
13691W        W30165   6.329   8.849   2.443 -0.3392  0.3761 -0.0725
13692W        W30166  17.014  15.457  16.073 -0.1009 -0.3772 -0.1021
13693W        W30167   0.884   3.653  15.714 -0.3152 -0.0637 -0.3166
13694W        W30168  11.594  11.961   4.782 -0.1992 -0.0501 -0.1680
13695W        W30169  14.747  11.156   5.101 -0.2824 -0.1561 -0.0756
13696W        W30170  10.512  17.820   2.219 -0.0398  0.2706 -0.1404
13697W        W30171   4.241  11.412  12.264  0.2518  0.1558  0.0787
13698W        W30172   5.580   2.643  13.897  0.0306  0.2675 -0.1697
13699W        W30173  14.878   5.068  11.871 -0.1270 -0.3460  0.3476
13700W        W30174  11.499  16.024  12.908 -0.1124  0.0435 -0.0720
13701W        W30175  13.939   2.860   1.938 -0.2851 -0.1026  0.0557
13702W        W30176   2.698  10.165   1.280  0.0569 -0.0427  0.2079
13703W        W30177  15.079  10.829  12.634  0.0142 -0.2072  0.2772
13704W        W30178  13.722   6.004  12.688 -0.0364 -0.0194  0.0019
13705W        W30179  10.198   4.796  13.742  0.1025  0.0058  0.1277
13706W        W30180   3.005   9.248  14.541  0.1274 -0.1980  0.1211
13707W        W30181  14.951  12.693  16.235 -0.1981  0.4901  0.3223
13708W        W30182   6.057   5.464   3.253 -0.0807  0.0396  0.0107
13709W        W30183  13.256  15.000   0.715  0.4911  0.2899 -0.0753
13710W        W30184  15.196   9.680   1.362  0.0472 -0.0297 -0.1550
13711W        W30185   9.527   5.209  12.305 -0.2000 -0.0783  0.0125
13712W        W30186  10.615   8.834  15.591  0.0544  0.5696 -0.2929
13713W        W30187   4.958   5.795   0.095  0.0952  0.1991  0.0702
13714W        W30188  16.501   7.724   5.358  0.0779  0.0978  0.0582
13715W        W30189  13.853   1.589  14.519  0.1331  0.1740  0.4713
13716W        W30190   9.676  12.056  13.168  0.0491 -0.3179  0.2133
13717W        W30191  13.047   3.839  13.788 -0.1821 -0.0038 -0.1250
13718W        W30192   6.633   1.582   4.116 -0.1735 -0.2350 -0.1456
13719W        W30193   1.108   9.251  14.203 -0.0019  0.0436 -0.0705
13720W        W30194   1.925   6.937  13.582  0.0876  0.1823  0.2253
13721W        W30195  10.463   5.299   6.476  0.0810  0.0143 -0.1437
13722W        W30196   9.735   4.417   4.122  0.2712 -0.2256  0.1999
13723W        W30197  15.976   1.556   5.337  0.2986 -0.1078 -0.0504
13724W        W30198  15.925  11.408   1.360 -0.1621 -0.3617 -0.1940
13725W        W30199   1.178   5.045   1.133 -0.1749 -0.0225  0.0494
13726W        W30200   4.546  14.228  12.377 -0.1514  0.1092  0.0385
13727W        W30201  13.553  17.217   5.428  0.0620  0.0007  0.2120
13728W        W30202   1.833  17.539  13.449  0.0198  0.4984  0.2132
13729W        W30203  16.559   0.652  12.304 -0.3058 -0.2160  0.1224
13730W        W30204  15.466  16.335   5.564  0.1457 -0.0416  0.0214
13731W        W30205   8.669   4.171  14.881  0.0933  0.4295 -0.0327
13732W        W30206   4.588  13.886  11.189 -0.1279  0.0819  0.1619
13733W        W30207  11.433  12.852   5.323  0.2624  0.1453  0.0467
13734W        W30208  17.026   1.328   4.021 -0.1072 -0.2872  0.0604
13735W        W30209   7.026   4.698   0.857 -0.2698  0.1080 -0.2816
13736W        W30210   1.141  14.016  15.795 -0.5427 -0.0372  0.1202
13737W        W30211  15.283   0.941   3.580 -0.0185  0.2435  0.0077
13738W        W30212   8.210   8.362  15.799  0.0851  0.0464 -0.1377
13739W        W30213   6.363   8.765  12.529  0.2550  0.1226 -0.1980
13740W        W30214   5.494   3.663  13.407  0.4334 -0.5501 -0.0307
13741W        W30215   7.054  12.561  16.149 -0.0672 -0.0998  0.0540
13742W        W30216  13.586  11.046   4.421 -0.1790  0.2175 -0.4263
13743W        W30217   5.197  11.343   1.997  0.0512  0.3317  0.1514
13744W        W30218   4.240   4.338  11.688 -0.0217 -0.1456  0.2296
13745W        W30219  14.888   5.626   5.223  0.1003  0.0003 -0.0876
13746W        W30220   7.440  11.226  15.580  0.1696  0.2623  0.0766
13747W        W30221  13.613   3.176   1.679 -0.1029  0.2656  0.2048
13748W        W30222   1.309   4.407   1.909 -0.0731  0.1795 -0.0191
13749W        W30223   7.886  15.596  13.875  0.6297 -0.0957  0.0059
13750W        W30224   1.546   5.122  14.287 -0.2560 -0.2736 -0.1922
13751W        W30225  12.836   9.734   4.504 -0.0775  0.1045  0.2552
13752W        W30226   4.136   3.198  13.251  0.3007 -0.1986 -0.1094
13753W        W30227   0.473   4.944  16.356  0.2301  0.1376  0.1922
13754W        W30228  12.512   1.090   3.978  0.3108  0.1253 -0.2582
13755W        W30229   0.969   8.012  15.178  0.3663 -0.3016 -0.5474
13756W        W30230  12.799   2.442  14.091 -0.1524 -0.3928  0.1401
13757W        W30231   7.473   6.536  14.606 -0.1611  0.1814  0.0188
13758W        W30232   4.988   3.703  16.316  0.3532 -0.1740 -0.1188
13759W        W30233  16.205   4.755  16.574  0.1298 -0.1680 -0.3246
13760W        W30234  17.816   3.606   3.531  0.0040  0.3446  0.0227
13761W        W30235  14.555  10.209  15.845 -0.1735 -0.0126 -0.2544
13762W        W30236   2.277  13.176   3.224  0.2444  0.2950  0.4152
13763W        W30237  16.643   9.988   4.730 -0.0325  0.2564 -0.2403
13764W        W30238  14.070   1.513   6.413 -0.3535  0.2301  0.2563
13765W        W30239  13.888  12.993  16.597 -0.1255  0.0014 -0.0300
13766W        W30240  14.421   9.418   5.328 -0.2256  0.0248  0.2277
13767W        W30241  15.172  15.853  16.381 -0.3249  0.1517 -0.2279
13768W        W30242   8.046  16.231   2.392 -0.2347 -0.1563 -0.0191
13769W        W30243   0.611   8.730  12.913  0.3931 -0.1613 -0.0832
13770W        W30244  15.847  11.035   4.001  0.2235 -0.1554 -0.0100
13771W        W30245   4.759  14.014  15.502  0.0226 -0.1162  0.3495
13772W        W30246   8.929   7.047  12.992  0.1309 -0.1445 -0.3179
13773W        W30247  15.374   8.358   1.818 -0.1457 -0.0258  0.0819
13774W        W30248  15.110   5.156  13.986  0.3986 -0.2753  0.0077
13775W        W30249  11.632  12.179   5.775 -0.1001 -0.3642  0.5820
13776W        W30250   8.420   9.144   3.747  0.1321 -0.1147  0.3557
13777W        W30251  16.326   4.867   2.774  0.0183  0.1938  0.0738
13778W        W30252   6.523   9.403   1.415  0.3424  0.1718  0.0405
13779W        W30253   4.027  11.122   2.211  0.1764  0.3168  0.0794
13780W        W30254  12.935   6.846  16.102  0.2601 -0.3217  0.2217
13781W        W30255   1.242   0.954   2.966 -0.1800  0.0520  0.1457
13782W        W30256  10.972  10.093  15.626 -0.0239  0.0340 -0.1257
13783W        W30257  15.977   5.961   5.199 -0.4373 -0.1628  0.0835
13784W        W30258   0.434   1.132   4.048  0.3634 -0.1897 -0.3751
13785W        W30259   5.901  15.673   5.276  0.1123  0.1263 -0.2055
13786W        W30260  10.138   7.959  12.233 -0.1159 -0.2078  0.0505
13787W        W30261  16.824   4.746   1.130 -0.1226  0.2245  0.1902
13788W        W30262   4.976   2.969   1.969  0.2657  0.1188 -0.0775
13789W        W30263   0.012  17.446   2.817  0.2726 -0.2745 -0.3427
13790W        W30264  14.644  12.017   4.089 -0.0905  0.1483  0.0009
13791W        W30265   8.140   8.363  12.930  0.1250 -0.1101 -0.1816
13792W        W30266  13.166   7.915   4.579 -0.0119  0.0880 -0.2770
13793W        W30267   5.456   2.200   3.812 -0.0715 -0.0408 -0.0576
13794W        W30268  10.134  15.610  14.648  0.1372  0.0804 -0.1573
13795W        W30269   6.085  10.922   0.201 -0.2194 -0.2286 -0.2159
13796W        W30270   0.872   8.887  12.262  0.0844 -0.0314  0.0675
13797W        W30271   6.459   1.538  13.344  0.2160 -0.5279  0.0129
13798W        W30272  17.473   0.043   0.407  0.2053 -0.1216  0.1859
13799W        W30273   0.429  10.810   5.398 -0.0060 -0.0929  0.0360
13800W        W30274   7.717  13.189  12.469 -0.1000 -0.2029  0.0866
13801W        W30275   5.096  10.280   0.855  0.2607  0.1004 -0.1243
13802W        W30276   6.904   5.582  11.607  0.0200  0.3509 -0.2563
13803W        W30277  14.375  13.106   0.449  0.1009 -0.0546  0.0172
13804W        W30278  13.583   8.409  15.765 -0.2642 -0.2606 -0.0510
13805W        W30279   8.950  15.274   2.737 -0.2474  0.0306 -0.1011
13806W        W30280  15.366   7.921   2.193 -0.1129 -0.1541 -0.1242
13807W        W30281  15.990  16.055   3.681  0.0531 -0.1913  0.0749
13808W        W30282  16.616  16.050   0.203  0.0970 -0.1597 -0.1468
13809W        W30283   7.035   1.252   3.970  0.0705  0.2370  0.2337
13810W        W30284   0.573   8.254   2.564  0.1587 -0.0794 -0.0601
13811W        W30285   8.988   8.776  14.427  0.5153  0.0588  0.4667
13812W        W30286   8.859   6.292  14.167 -0.1811  0.0880 -0.1865
13813W        W30287   8.311   0.090  12.118 -0.0265 -0.2042 -0.0470
13814W        W30288   9.883  10.661   1.638  0.1768 -0.0423  0.1965
13815W        W30289  10.217  13.962   0.508  0.2329 -0.0647 -0.1551
13816W        W30290  10.828  16.505  16.657 -0.2321 -0.1107 -0.1432
13817W        W30291  11.908  13.388  16.401 -0.1451 -0.0831  0.0123
13818W        W30292  12.193   5.137  12.185  0.3491  0.0458  0.0320
13819W        W30293   6.903   8.400   5.429 -0.1290  0.0965 -0.0754
13820W        W30294   2.481   7.054   0.681 -0.3029  0.1937  0.3118
13821W        W30295   6.335  12.537   4.612  0.0070 -0.0140 -0.1922
13822W        W30296   6.197  16.489  12.204  0.0377 -0.0519 -0.0881
13823W        W30297   2.505  16.426  11.767 -0.2441 -0.1087 -0.0261
13824W        W30298   4.290  12.245   3.930 -0.1281 -0.0678  0.3610
13825W        W30299  15.262   6.748   0.382 -0.1753 -0.1882  0.1850
13826W        W30300   6.467   5.053  12.859  0.1704 -0.2268 -0.2814
13827W        W30301   7.746   4.152   1.855  0.0543  0.1723  0.1579
13828W        W30302   7.583   7.908   5.072  0.0920 -0.1745 -0.1925
13829W        W30303  17.640  13.862   0.981 -0.0225  0.1107  0.0121
13830W        W30304   3.993   5.079  15.466 -0.1238  0.0009  0.3153
13831W        W30305   2.244   7.753   5.128 -0.0406  0.2260  0.2019
13832W        W30306   7.103   9.661  11.858  0.1140  0.1356  0.2584
13833W        W30307  13.263   5.486   3.189 -0.1455  0.0428  0.1286
13834W        W30308   9.032   0.804   2.747  0.2321  0.2838  0.1911
13835W        W30309  17.862  13.462   5.016 -0.3783 -0.1567 -0.2039
13836W        W30310   9.727   1.018   2.499 -0.0020  0.0878 -0.2871
13837W        W30311   6.645  15.858  11.616 -0.0324  0.0953  0.0501
13838W        W30312   0.856  13.894   1.573 -0.2445 -0.1909 -0.0226
13839W        W30313   4.266   0.852   6.211  0.1744  0.1698  0.0675
13840W        W30314  13.462  11.474   4.523 -0.2468 -0.2698  0.0597
13841W        W30315  16.264  10.677  13.477  0.1017  0.0839 -0.1585
13842W        W30316  17.120  16.058   2.975 -0.1287  0.0640  0.1128
13843W        W30317   7.370  15.427  12.615 -0.0170  0.0772  0.2682
13844W        W30318   5.645  13.865   1.537 -0.3640 -0.0554 -0.1681
13845W        W30319   2.130   9.714   4.624  0.3981 -0.2518 -0.1320
13846W        W30320  16.380  13.774   3.394 -0.2566  0.0517 -0.5136
13847W        W30321  17.243  12.236  12.342 -0.0521 -0.1796  0.1167
13848W        W30322  10.421  12.579   2.557 -0.0952  0.0555  0.0044
13849W        W30323   4.005  13.940  14.263 -0.0277 -0.0182 -0.0242
13850W        W30324  15.573  16.063  13.938  0.0481 -0.0873 -0.1242
13851W        W30325  12.655  16.597  16.655 -0.0149 -0.0600 -0.3579
13852W        W30326   5.430   0.919  11.795  0.0306 -0.0413 -0.3422
13853W        W30327   8.168   5.380  13.612 -0.0433 -0.0896  0.0336
13854W        W30328   7.873   8.540   3.342 -0.0589 -0.2663  0.0196
13855W        W30329  17.187   3.932   5.065  0.0874  0.1765  0.1181
13856W        W30330   7.724  11.899   4.857 -0.0024  0.0594 -0.0692
13857W        W30331   8.049   6.261   4.295 -0.0321 -0.0130  0.0832
13858W        W30332   8.072  12.404   2.413  0.1600  0.1316  0.3614
13859W        W30333  12.683  15.401  12.398  0.0309 -0.2125  0.1848
13860W        W30334  13.119   1.663   3.295 -0.0106  0.0599 -0.2164
13861W        W30335   2.972  10.562   3.954  0.1951  0.0451  0.0533
13862W        W30336   1.689  12.834   3.773  0.0108 -0.1583  0.0393
13863W        W30337   4.131   8.472  13.579 -0.1020  0.0849 -0.4031
13864W        W30338   2.022   7.372   1.837 -0.1350 -0.4514 -0.1659
13865W        W30339  10.419  13.758  13.060  0.0181 -0.0030 -0.1390
13866W        W30340  16.533  13.607   1.648  0.2504 -0.0251 -0.1401
13867W        W30341   9.866  12.781  13.809 -0.0117  0.0533  0.1387
13868W        W30342   4.929  14.296  14.236 -0.0923 -0.2266  0.2058
13869W        W30343  12.625   4.292  14.694 -0.0686  0.0205 -0.1176
13870W        W30344   7.282   9.060   6.240 -0.2510  0.1153  0.1036
13871W        W30345  10.401   3.950  13.360 -0.3436 -0.0047 -0.1166
13872W        W30346   7.756   0.612  11.694  0.3404 -0.2910  0.2836
13873W        W30347  10.884   7.331  14.010 -0.1995 -0.1213  0.0042
13874W        W30348  12.524  14.516  16.339  0.4488  0.0172  0.1027
13875W        W30349   0.812   3.137  16.350  0.2379  0.0255 -0.0841
13876W        W30350   1.323   1.547   3.528 -0.0081  0.1162 -0.0509
13877W        W30351   9.811  10.176   5.550 -0.0889 -0.3529 -0.0615
13878W        W30352   4.624   3.579   2.548  0.1245 -0.1839 -0.0622
13879W        W30353  14.548   1.566   1.611  0.1685 -0.1320  0.1555
13880W        W30354   9.232   5.878  16.033  0.0283  0.0758  0.1445
13881W        W30355   1.894  17.054   4.108  0.0136 -0.1607  0.3065
13882W        W30356  12.190  17.052  14.909 -0.1119 -0.0488 -0.2229
13883W        W30357  17.632  11.586  14.910  0.0844  0.0882 -0.1965
13884W        W30358   1.700   4.607  11.887 -0.2239  0.0717 -0.1527
13885W        W30359  16.793  16.263  16.540  0.1202  0.1681 -0.1717
13886W        W30360   0.029   6.254  12.370  0.1393 -0.0022  0.0439
13887W        W30361  10.390   2.118  14.552  0.0816 -0.0539  0.0118
13888W        W30362   2.510   5.374  12.190 -0.2428 -0.0222 -0.1366
13889W        W30363  11.549   0.170  11.185 -0.0522 -0.3052  0.0355
13890W        W30364   0.356  10.528   0.264 -0.2384 -0.0914  0.1019
13891W        W30365  11.370  10.923   2.194  0.2212 -0.0323 -0.0364
13892W        W30366  17.476   0.804  12.008 -0.1160  0.0194  0.3250
13893W        W30367   4.488   2.910  15.796  0.0620  0.3666  0.2851
13894W        W30368   2.820   2.619  12.238 -0.1096  0.2589  0.1167
13895W        W30369  12.547   9.210  12.869  0.2965 -0.1830 -0.2197
13896W        W30370   8.373   3.514  11.916  0.2670 -0.2109 -0.0015
13897W        W30371  16.494   4.625  16.131  0.2492 -0.0683 -0.1092
13898W        W30372  13.482  16.011  11.436 -0.0774 -0.0079 -0.0302
13899W        W30373  12.666   3.617   2.394 -0.2185 -0.2436 -0.1746
13900W        W30374  15.861  13.782   5.330  0.0410  0.2091 -0.0049
13901W        W30375   0.251   9.892   1.122  0.1620  0.0605  0.0918
13902W        W30376  15.715   4.607  15.388  0.0996  0.0448 -0.0426
13903W        W30377  17.232  11.881  15.453 -0.2528  0.2445 -0.3111
13904W        W30378  13.069  15.600   2.098  0.0620 -0.2087  0.2620
13905W        W30379   9.335   7.369   2.606  0.1442  0.2928 -0.1275
13906W        W30380   1.918   1.329   2.506  0.2602 -0.2376 -0.0423
13907W        W30381   5.453  11.032   4.205 -0.1238 -0.3619  0.1109
13908W        W30382   2.895   4.115  16.546  0.2380 -0.0282 -0.1544
13909W        W30383   8.438   0.213  13.909  0.1264 -0.1955 -0.0235
13910W        W30384  11.055  17.776   2.107  0.2601 -0.0071  0.1794
13911W        W30385  17.310  16.052  13.670  0.3947  0.1507  0.0326
13912W        W30386  10.654   3.633  12.522 -0.1438 -0.0736 -0.0270
13913W        W30387  12.977   1.887   1.519 -0.2092  0.3367  0.0927
13914W        W30388  10.087   9.579  15.634  0.4971 -0.0382 -0.2369
13915W        W30389   2.559   6.048  11.646  0.0765  0.1427  0.0407
13916W        W30390   2.527   2.492   5.015 -0.0464 -0.3326 -0.0615
13917W        W30391   9.144  12.456  12.556  0.2120  0.0209 -0.3069
13918W        W30392  13.122   6.087   0.556 -0.0656  0.0797 -0.0416
13919W        W30393   9.042   1.879   4.872 -0.1383 -0.2119  0.1996
13920W        W30394   0.177   7.118   1.295  0.0837  0.3167  0.0405
13921W        W30395   1.696   5.893   4.234  0.2150  0.0671  0.1752
13922W        W30396   6.370   7.359   5.052 -0.0102 -0.0331 -0.0166
13923W        W30397   8.491  15.032  16.179 -0.1920  0.2256 -0.3987
13924W        W30398   1.025   2.839   0.956  0.0826  0.1136  0.0514
13925W        W30399  10.775  14.769  16.017 -0.0343  0.1309 -0.1006
13926W        W30400   4.491   8.537   4.066  0.2788  0.1141  0.0106
13927W        W30401  11.263   3.823   0.797  0.3189  0.1956  0.1458
13928W        W30402  11.947  15.603  15.770  0.0680 -0.1600 -0.1216
13929W        W30403   3.824   6.237   4.304  0.1787 -0.3723  0.1354
13930W        W30404   3.884   2.046   2.665  0.1169  0.1678 -0.2623
13931W        W30405   5.475   5.471   4.229 -0.0434  0.3462 -0.0634
13932W        W30406   5.138  13.558   4.375 -0.2704 -0.0775  0.0864
13933W        W30407  17.118   0.145   5.391 -0.2495 -0.1443 -0.1749
13934W        W30408   6.408   5.107   3.332  0.0269  0.3705 -0.0239
13935W        W30409   7.282   1.852  11.288 -0.1137  0.0462  0.0777
13936W        W30410   1.932   7.162   4.917 -0.0688 -0.1311  0.1809
13937W        W30411  16.288   9.559  15.276  0.3061 -0.1156  0.1190
13938W        W30412  11.451  10.377   2.697 -0.1148  0.1208  0.3214
13939W        W30413   7.857   8.748   2.905  0.0951  0.0515  0.1556
13940W        W30414  17.857  15.705   2.150  0.1475  0.0302 -0.1655
13941W        W30415   7.660   2.225  13.583 -0.0284  0.2306  0.1110
13942W        W30416  14.677  14.130  11.840 -0.0094 -0.1023 -0.2541
13943W        W30417  16.436   3.726  15.689 -0.0083  0.1782 -0.1276
13944W        W30418   1.532   1.659   0.379  0.2385  0.0660  0.2433
13945W        W30419  17.129   6.765   5.943  0.2827  0.1422  0.1041
13946W        W30420   1.968   3.708   2.714 -0.0058  0.0474 -0.1802
13947W        W30421   7.536   6.160   0.357  0.4160  0.0482  0.0920
13948W        W30422  17.127   1.456  13.971 -0.0038  0.0524  0.2946
13949W        W30423   6.663   4.336  13.551  0.2852 -0.1692  0.0197
13950W        W30424  10.889   0.088  14.615 -0.0168 -0.1445  0.0019
13951W        W30425   4.450   4.967   5.138 -0.3514 -0.1309 -0.1464
13952W        W30426   2.204  13.063  16.453 -0.0118  0.0304  0.1736
13953W        W30427  16.951  14.037  12.567 -0.4353 -0.1876  0.0703
13954W        W30428   6.742  12.974   4.629  0.0891 -0.1701 -0.1654
13955W        W30429   2.082   2.115   3.943 -0.3277  0.1890  0.1255
13956W        W30430  11.203   5.752   4.307  0.4123 -0.0025  0.1716
13957W        W30431  17.025  13.168   0.659  0.1494  0.1335  0.0562
13958W        W30432  16.099   3.798  16.396 -0.0334  0.0724  0.1381
13959W        W30433   4.776  16.977  11.279 -0.1287  0.3904  0.1061
13960W        W30434  15.882  13.857   0.912  0.0997  0.0112  0.0339
13961W        W30435   5.011  11.530  11.958 -0.0733  0.0043  0.0022
13962W        W30436  16.120  11.679  14.705  0.0426 -0.0887  0.3015
13963W        W30437  13.992   7.350   0.476 -0.0165 -0.0822  0.1049
13964W        W30438  10.612  11.296   0.480  0.2567 -0.1961 -0.1042
13965W        W30439  13.349   5.831  13.006  0.0460  0.2370 -0.0936
13966W        W30440   5.505  14.716   0.407 -0.0561 -0.3633 -0.2806
13967W        W30441  14.451   6.358  12.699 -0.0217  0.2436  0.0527
13968W        W30442  10.573  16.076   3.487  0.1096 -0.0197  0.1074
13969W        W30443   4.707   5.104   3.638  0.2468  0.1901  0.1581
13970W        W30444  11.438  12.179   1.038 -0.0295 -0.1862 -0.2288
13971W        W30445   5.608   5.755  14.410 -0.0208  0.1683 -0.2292
13972W        W30446   0.499  16.940  15.445  0.0540  0.0959  0.3217
13973W        W30447  10.908  11.736  11.467  0.0815  0.2632 -0.1775
13974W        W30448   6.849   2.669  12.301 -0.2103 -0.0813 -0.1848
13975W        W30449  11.208   4.096  12.135  0.0687 -0.2124  0.2515
13976W        W30450   4.289  16.127   5.712  0.1359  0.4189 -0.1781
13977W        W30451   9.553  15.706  12.243  0.4280 -0.0216  0.0716
13978W        W30452   0.306   1.618   4.412 -0.0311 -0.1143 -0.0145
13979W        W30453  17.989  11.219   4.584  0.1972 -0.3042  0.0562
13980W        W30454   9.632   4.101   5.220 -0.2019 -0.0356  0.1771
13981W        W30455   3.607   7.523  15.413 -0.1987 -0.1699 -0.2591
13982W        W30456   5.392   4.099   4.328 -0.0594  0.0403  0.2848
13983W        W30457   4.095  10.616  13.049  0.1806 -0.0404  0.1190
13984W        W30458  13.757  15.055   0.853 -0.1429  0.1562  0.0190
13985W        W30459   6.160  13.411   3.403 -0.0955 -0.0216 -0.1398
13986W        W30460   4.678   8.173   2.559 -0.0382  0.0052 -0.2805
13987W        W30461   2.424   1.525   4.672 -0.1760 -0.2027 -0.0622
13988W        W30462   0.631  16.937  16.414 -0.4405  0.0633 -0.1268
13989W        W30463  13.536  15.225   4.099  0.1891  0.1228 -0.1206
13990W        W30464   9.226   0.078   0.601 -0.4541  0.2200  0.3657
13991W        W30465   3.435  11.964  14.369 -0.0429  0.3079 -0.4603
13992W        W30466  11.950   2.528   5.366 -0.3755  0.1618 -0.3027
13993W        W30467  15.731  13.662  12.295  0.0228  0.2704 -0.0413
13994W        W30468  15.137   1.052   2.657  0.0777  0.2749  0.2526
13995W        W30469   4.983   6.356   0.101 -0.0709 -0.1253 -0.2056
13996W        W30470  12.237   1.373   4.842  0.0146  0.3452 -0.0836
13997W        W30471   3.494   7.224   4.581  0.2008 -0.3060  0.2084
13998W        W30472   1.824   5.014  12.143  0.0191 -0.0718 -0.2461
13999W        W30473   6.186   8.787  13.967 -0.2914  0.0448  0.0158
14000W        W30474  17.971  10.956   2.504 -0.3532  0.0718 -0.0069
14001W        W30475   5.370  14.577  14.307  0.0410  0.1179  0.2908
14002W        W30476   7.660   7.039   2.716 -0.1191  0.3435 -0.0824
14003W        W30477   1.535   2.714   2.349 -0.2511  0.0188 -0.1045
14004W        W30478   5.528  10.027   2.529 -0.2815 -0.1653 -0.1859
14005W        W30479  15.594   4.382  13.627 -0.1008 -0.0762  0.1020
14006W        W30480   8.400   9.038  12.390 -0.1753  0.0352 -0.1398
14007W        W30481   1.558  15.549   3.678 -0.1909  0.1254 -0.0257
14008W        W30482  16.422   6.433   2.175  0.0997  0.3040 -0.0034
14009W        W30483   3.205   8.000  15.648  0.2401  0.0416 -0.1169
14010W        W30484   7.731   5.355   5.644  0.3698  0.0176 -0.0045
14011W        W30485  11.532   2.624  16.254 -0.2479 -0.0511 -0.1521
14012W        W30486  11.180   7.263  15.658 -0.4615  0.0396  0.1950
14013W        W30487  13.963   3.799  14.890  0.3723  0.0175  0.0680
14014W        W30488  14.200  11.480  11.637  0.3726  0.1838  0.0363
14015W        W30489   0.538  12.901   3.788 -0.0421 -0.2646  0.1468
14016W        W30490   0.269  16.147   1.621  0.2472  0.0662 -0.1307
14017W        W30491  11.503  17.533   1.888 -0.1789  0.0786  0.2678
14018W        W30492   4.040   9.661   4.727  0.1433  0.2009 -0.0833
14019W        W30493   4.328   1.701   3.879 -0.1597  0.0961 -0.1535
14020W        W30494   5.854   9.283   3.619  0.1668 -0.0870 -0.0407
14021W        W30495  14.761   9.324   2.656 -0.0493  0.0327 -0.0266
14022W        W30496   6.676   5.453  16.590 -0.2829 -0.1979 -0.2512
14023W        W30497  15.139  17.267   1.420 -0.0985 -0.3850  0.1459
14024W        W30498  14.871   2.288  15.284  0.3090 -0.2081  0.0939
14025W        W30499   2.258   0.730   1.402 -0.4857 -0.0277 -0.2086
14026W        W30500   0.244  14.388  15.824  0.0083  0.3025 -0.4232
14027W        W30501   6.724   6.274  15.464 -0.1324 -0.1591  0.1432
14028W        W30502   7.643   1.763   5.826  0.1396 -0.0067  0.1905
14029W        W30503  15.352   3.779   3.139  0.1372 -0.0309  0.0635
14030W        W30504   1.693  15.388   1.814 -0.1098 -0.0955 -0.0265
14031W        W30505   1.269   0.198  15.977 -0.0115 -0.1836  0.0615
14032W        W30506  14.162  11.747   3.863 -0.1166  0.2664  0.0700
14033W        W30507  11.789   0.674  14.906 -0.2062  0.2128  0.2290
14034W        W30508   9.017   6.092  15.592 -0.1295 -0.0320  0.1791
14035W        W30509   8.103   5.922  14.462  0.0187  0.3604  0.1632
14036W        W30510   6.113  14.488  15.817 -0.1202  0.0791 -0.1446
14037W        W30511  17.803   2.726   1.680 -0.5439 -0.0958  0.0476
14038W        W30512  10.722  16.279  11.703  0.1667  0.0331 -0.0422
14039W        W30513   5.219  12.055   1.889 -0.1037 -0.0145 -0.2411
14040W        W30514   7.370   4.819  12.644  0.0161  0.4646 -0.2634
14041W        W30515   1.093   6.948   3.976  0.0603  0.1416  0.0955
14042W        W30516   4.639   0.499  10.757  0.2253 -0.0576 -0.0540
14043W        W30517   2.470  14.328  13.571  0.0027  0.5128 -0.1986
14044W        W30518  11.432  14.361  15.052  0.0747  0.0365  0.0957
14045W        W30519  11.899   0.762   4.705 -0.1272  0.1001 -0.4375
14046W        W30520  15.733  12.163  15.735 -0.1237  0.0585 -0.0864
14047W        W30521   6.978  12.567   3.979  0.1980  0.3901 -0.3258
14048W        W30522  13.822   2.470  13.274 -0.2388 -0.2799 -0.1287
14049W        W30523   9.697   9.871  14.429  0.0353 -0.0656  0.1771
14050W        W30524   0.190   0.659   0.018 -0.2466  0.1468 -0.2211
14051W        W30525   1.356  14.635   2.641 -0.2355 -0.2249 -0.4062
14052W        W30526   9.008   7.179   1.242 -0.4292  0.1213  0.1560
14053W        W30527   5.350   8.272   3.785 -0.2172 -0.0366  0.1840
14054W        W30528   0.834   2.099   5.164  0.0016  0.1329  0.0403
14055W        W30529  16.231  12.108   5.513 -0.0698 -0.1043  0.2664
14056W        W30530   4.158   0.908   1.524  0.0942 -0.0453  0.3080
14057W        W30531  15.579  14.904   4.276  0.1015  0.3148 -0.1026
14058W        W30532   6.175   8.251   2.622  0.0972 -0.1562  0.0856
14059W        W30533  13.972  11.113   1.693  0.0140  0.1074  0.3359
14060W        W30534  16.759  10.750   0.764  0.3300  0.2057  0.2036
14061W        W30535  14.314  15.517   5.503 -0.0500 -0.0281  0.2248
14062W        W30536   3.888   9.270  12.781  0.0412 -0.0289 -0.1947
14063W        W30537   4.283   7.125   2.661  0.1391 -0.4131  0.2277
14064W        W30538   2.878  10.096   5.439  0.0271  0.1576  0.0756
14065W        W30539   0.617  11.963  16.058 -0.0223  0.3575  0.0786
14066W        W30540   5.936   7.334  15.661  0.1700  0.0330 -0.0101
14067W        W30541  17.217   3.402   6.749  0.0430  0.2833  0.4300
14068W        W30542  10.907  10.398   4.281 -0.1414 -0.0360  0.1150
14069W        W30543   7.670   5.110   3.927  0.2254 -0.5311 -0.2248
14070W        W30544   2.214   2.194  15.835  0.3225 -0.2713  0.3201
14071W        W30545  16.092   2.847   2.548 -0.1096  0.0003 -0.2864
14072W        W30546  17.035  15.963  16.177  0.2781  0.2471 -0.1200
14073W        W30547   6.242   9.228   5.438 -0.1728  0.3293  0.0174
14074W        W30548  12.401   3.173  15.661 -0.3363  0.1010  0.0350
14075W        W30549   0.450   7.797   2.793  0.2110  0.3555 -0.0659
14076W        W30550   5.400  13.533  14.227 -0.1278  0.0662  0.0547
14077W        W30551   2.718   6.663  14.469  0.0261 -0.0790  0.1026
14078W        W30552   4.866  15.817  16.263 -0.0311 -0.1416  0.0688
14079W        W30553   5.492   4.154   2.394  0.3151  0.1646 -0.1754
14080W        W30554   7.409  16.256   4.069 -0.0179  0.1507  0.0552
14081W        W30555   4.626   9.010   2.948 -0.0255 -0.0060  0.1637
14082W        W30556   2.251   5.936  14.739  0.2140 -0.0189  0.1569
14083W        W30557   8.671  16.847   2.825 -0.1973  0.2188 -0.0535
14084W        W30558   2.262  17.128  16.070  0.0225  0.4462  0.1818
14085W        W30559   1.922  15.404  11.527  0.0926  0.2143  0.0047
14086W        W30560   9.452   7.521  13.009  0.2828 -0.6108 -0.1890
14087W        W30561   6.016   3.979  14.670 -0.1608 -0.1209  0.1158
14088W        W30562   5.941   7.788   2.608 -0.0118  0.4339 -0.1323
14089W        W30563   5.091  16.850  14.942 -0.3035  0.3215 -0.0279
14090W        W30564   8.276   7.006  13.472 -0.1041 -0.1628  0.2223
14091W        W30565  17.166   5.952  12.495  0.0893 -0.0283  0.2004
14092W        W30566   9.414   5.185  12.868 -0.0379  0.1555 -0.0938
14093W        W30567  12.063   1.789  13.042  0.1993 -0.1131  0.1421
14094W        W30568  13.322  16.192  13.602 -0.3742 -0.0224  0.3168
14095W        W30569  10.157   6.675   3.190 -0.1693  0.0051  0.3389
14096W        W30570   0.469   3.660   3.987 -0.1756 -0.3735  0.0123
14097W        W30571   3.375  16.186   1.977  0.0983  0.0391  0.3074
14098W        W30572   5.405  17.124   3.389  0.4321  0.1883  0.0856
14099W        W30573   9.239  12.029  13.432 -0.0998 -0.2502 -0.4290
14100W        W30574  13.532  13.061  14.422 -0.0231  0.0292  0.3225
14101W        W30575   5.746   0.287   4.692  0.0647 -0.0065  0.1728
14102W        W30576  14.703  13.827  13.263 -0.2034  0.0908 -0.0886
14103W        W30577  10.024  17.440  16.097 -0.3081  0.4154 -0.2285
14104W        W30578  13.221  14.395   3.412 -0.1011  0.1782  0.1556
14105W        W30579  16.659  12.165  16.453  0.0777 -0.0213  0.0224
14106W        W30580   8.588   6.762   0.144  0.0655 -0.1058 -0.3524
14107W        W30581   4.254  16.370   2.951  0.2382 -0.3567 -0.1803
14108W        W30582  16.489   6.535   4.207  0.2218 -0.0006  0.2705
14109W        W30583   8.949   0.680   4.958 -0.0104  0.0240 -0.0662
14110W        W30584  17.344   6.019  14.070 -0.1577  0.1998 -0.2961
14111W        W30585  14.256   4.001   0.105  0.1671 -0.1223 -0.1364
14112W        W30586   3.257  11.913  12.033  0.0201  0.0118  0.1589
14113W        W30587   1.245  15.980   3.522  0.0414 -0.1179  0.0838
14114W        W30588  16.424  14.778   4.008 -0.1466 -0.1635 -0.4825
14115W        W30589   8.790  10.065   2.959  0.1327 -0.1256 -0.0103
14116W        W30590   3.104   7.739   0.752  0.0019 -0.2135 -0.1620
14117W        W30591   8.520   5.743  16.410 -0.1241 -0.0760 -0.0558
14118W        W30592   7.292   2.233   5.294  0.0074  0.1378 -0.2996
14119W        W30593   3.056   6.721   2.440  0.2187 -0.0880 -0.1673
14120W        W30594  17.038   8.464   4.224 -0.1401  0.0900 -0.0445
14121W        W30595   9.344   4.778   4.692 -0.2020 -0.2483  0.3334
14122W        W30596   6.749  14.649   5.333 -0.0537 -0.0696 -0.0828
14123W        W30597  16.399  10.307   5.337  0.1881 -0.1449  0.1011
14124W        W30598  12.016  13.742  16.123  0.2350  0.0187  0.3958
14125W        W30599   4.716   5.122   1.712 -0.1393 -0.2058 -0.2092
14126W        W30600  15.799   0.361  15.680  0.1256  0.1013 -0.2039
14127W        W30601   1.505   0.316  15.062 -0.1584 -0.0103 -0.2065
14128W        W30602   7.043  11.519  16.557 -0.2134  0.1835 -0.2887
14129W        W30603  15.708  14.903  12.543  0.3120 -0.0709 -0.2016
14130W        W30604   7.039   9.355   2.053  0.1169  0.0807 -0.2635
14131W        W30605  17.817   7.486  14.814  0.0578 -0.1583 -0.2501
14132W        W30606   1.320   0.512  14.388 -0.1055 -0.4634 -0.4023
14133W        W30607  13.626   3.891  16.763  0.1029 -0.0958 -0.1051
14134W        W30608  17.121   9.356   5.774  0.1779  0.1326  0.0673
14135W        W30609   9.651   5.637  12.768 -0.4884 -0.1310 -0.0939
14136W        W30610   6.189   8.247   5.505 -0.2575  0.0485 -0.0572
14137W        W30611   2.734   6.019   3.449  0.1712  0.0985  0.2225
14138W        W30612  17.084  13.622   5.631  0.1112  0.0144  0.0816
14139W        W30613   6.116  12.751   4.201 -0.1046 -0.2488 -0.1549
14140W        W30614   2.848   1.114   2.580 -0.0952 -0.1332  0.0512
14141W        W30615  14.673  14.747  14.807 -0.1906  0.0387 -0.0002
14142W        W30616  16.189  11.783  15.682 -0.0976  0.2423 -0.0371
14143W        W30617  16.727   2.916  16.680  0.2513 -0.1780 -0.0046
14144W        W30618  12.716   4.757  13.828 -0.1483  0.1556  0.1083
14145W        W30619  16.472   5.781  11.805 -0.0107  0.1019 -0.0005
14146W        W30620   2.231   0.384   0.395  0.2344 -0.0909 -0.0196
14147W        W30621   6.795   3.756  14.266 -0.2791  0.0560 -0.0875
14148W        W30622   0.074  12.228   3.301  0.0070  0.2918 -0.0405
14149W        W30623   3.445   1.484   0.397 -0.0642  0.0804 -0.0303
14150W        W30624   9.579  13.672  13.238  0.1106  0.0300 -0.0839
14151W        W30625   0.942  15.611   5.314 -0.3406  0.0933  0.0744
14152W        W30626   0.796   0.407   2.308 -0.0908 -0.0963  0.0456
14153W        W30627  14.283   2.962  15.311  0.2184  0.1403 -0.0229
14154W        W30628  12.111   9.256  16.667 -0.0328  0.0007 -0.0989
14155W        W30629  12.947  15.293   0.430 -0.0679  0.4358 -0.0115
14156W        W30630  11.761   4.549   1.107  0.0071  0.6239  0.0730
14157W        W30631  16.234  15.646   3.331  0.1698 -0.0288  0.1490
14158W        W30632   4.779  11.438  14.201  0.3247  0.1266 -0.2160
14159W        W30633  17.642   0.449  12.471  0.3538 -0.1924 -0.1654
14160W        W30634   9.748  14.633   3.241 -0.2509  0.1068  0.0864
14161W        W30635   3.752   4.768  15.015 -0.1459  0.1916  0.0035
14162W        W30636   2.270   2.590  13.803 -0.0060  0.0463 -0.2226
14163W        W30637  12.989   3.070  13.117  0.0682 -0.2162 -0.3267
14164W        W30638   1.616  10.734  16.457  0.0550 -0.2841 -0.0880
14165W        W30639  16.779   5.376  15.630 -0.1137  0.3666 -0.0060
14166W        W30640  16.687  17.749  14.905 -0.4370 -0.0593 -0.0667
14167W        W30641   0.640   1.649   5.429  0.0899  0.1636  0.1442
14168W        W30642  14.634   5.450   0.057 -0.0626 -0.0771  0.1245
14169W        W30643   7.791   1.930   4.161 -0.0227 -0.1479  0.2661
14170W        W30644   1.366   2.876  13.293  0.0297  0.1505 -0.0828
14171W        W30645  14.198   9.858  14.216 -0.2256 -0.1979  0.0825
14172W        W30646   2.494   7.025  11.764 -0.1539 -0.0704  0.1034
14173W        W30647   0.044  10.211  12.692  0.2052  0.1533  0.0517
14174W        W30648   9.118  17.229   0.621  0.1063 -0.1409  0.0384
14175W        W30649   6.764   1.650  16.613  0.0057 -0.4990  0.1682
14176W        W30650  16.943  14.990   4.467  0.0773 -0.3102 -0.2048
14177W        W30651  10.624   9.863   3.531  0.0211 -0.0216 -0.2565
14178W        W30652   4.123   7.376   3.934 -0.0302  0.1146  0.1208
14179W        W30653  13.120   6.285  14.470 -0.1957  0.0697  0.1394
14180W        W30654  11.990  13.475  15.112  0.0512 -0.2427 -0.0145
14181W        W30655   2.597  17.879   1.422  0.2868 -0.1486 -0.3482
14182W        W30656   7.220   6.535   1.887  0.2156 -0.0650 -0.1724
14183W        W30657   2.953  11.122   2.220 -0.0425  0.1996  0.1277
14184W        W30658  12.718   3.716   0.156 -0.0383 -0.1313  0.1641
14185W        W30659  10.843  10.266   2.830  0.1085  0.1368  0.0602
14186W        W30660   4.767  12.893  15.277 -0.2110  0.0440 -0.0218
14187W        W30661   3.715   5.346   2.671 -0.2658 -0.1058  0.0616
14188W        W30662  14.107  14.198   3.304 -0.0577 -0.0693 -0.1020
14189W        W30663  15.663  15.681  15.227  0.0704  0.0046 -0.2909
14190W        W30664  13.435   5.632   0.365  0.0391  0.0905  0.2363
14191W        W30665   3.641   0.505  11.064 -0.0363  0.2290 -0.0968
14192W        W30666   2.023   4.366  11.530  0.1032 -0.2587 -0.0005
14193W        W30667  16.270   4.922   0.523  0.2276  0.0599  0.0511
14194W        W30668   2.689  10.325   0.405  0.1457  0.0663  0.0815
14195W        W30669   3.877   3.745   5.893  0.4146 -0.0994  0.0313
14196W        W30670  12.716   6.853   2.001  0.1608 -0.1271  0.1924
14197W        W30671  14.990  10.859  16.767 -0.0421 -0.1012  0.0869
14198W        W30672   2.221   6.979  16.154 -0.0786 -0.1116  0.1733
14199W        W30673   1.433  13.500  13.478 -0.1501  0.1292 -0.1549
14200W        W30674   4.002   9.423  14.503  0.0961  0.0013 -0.0577
14201W        W30675   6.667   2.387  11.948  0.1435 -0.0851  0.1390
14202W        W30676  11.585  12.533   0.604  0.0171 -0.1718 -0.0989
14203W        W30677  12.562   8.394  14.816  0.2289 -0.0452  0.1205
14204W        W30678   4.180   0.858  15.803 -0.0106  0.0632 -0.3024
14205W        W30679   0.051  12.918   3.629  0.2128  0.1147 -0.2042
14206W        W30680   0.235   0.411   1.006  0.2063  0.0101 -0.0447
14207W        W30681  14.940   9.628  13.435  0.1364  0.2044 -0.1151
14208W        W30682  17.468  10.062   3.346 -0.1140  0.2766  0.1619
14209W        W30683   8.085   8.455  14.854 -0.0514  0.2586 -0.0323
14210W        W30684   6.090   0.584   3.260  0.1061  0.0832 -0.0072
14211W        W30685  12.413   8.074  12.038  0.0637 -0.0761  0.0271
14212W        W30686   3.408  10.644  14.355 -0.2095  0.1271  0.3728
14213W        W30687  16.940  14.339   0.999 -0.3183  0.1329 -0.0118
14214W        W30688   1.010  10.420   4.752  0.0355  0.0095  0.0244
14215W        W30689   8.901   2.040  13.875 -0.0241  0.0449  0.0027
14216W        W30690   6.140  17.265  15.548 -0.0577 -0.1289  0.0786
14217W        W30691  10.042  17.381  13.028  0.1086  0.2463 -0.2826
14218W        W30692   9.685   2.463  13.318 -0.1142 -0.1859 -0.1435
14219W        W30693   9.021   1.392  16.183 -0.3147 -0.0699 -0.2052
14220W        W30694   7.761  15.611   1.608  0.0049 -0.0459  0.2122
14221W        W30695   2.243   4.798  11.970  0.0925 -0.1734  0.2674
14222W        W30696  10.169   3.001  12.392  0.0815 -0.0375  0.0533
14223W        W30697  13.332  17.286   1.515  0.1684 -0.0395 -0.3202
14224W        W30698  15.328   3.972  13.362  0.0088  0.2302  0.1082
14225W        W30699  16.369  16.966  13.533 -0.1984 -0.0848  0.2786
14226W        W30700   7.255  17.919   4.076 -0.0112 -0.0748 -0.0103
14227W        W30701  12.855  13.437   5.614 -0.1211  0.2077 -0.2792
14228W        W30702  12.169   0.953  13.450 -0.0965 -0.1077  0.2628
14229W        W30703  14.086  13.418   0.792  0.0195 -0.0573 -0.1211
14230W        W30704   0.617  13.984   0.696  0.0190 -0.0158 -0.1282
14231W        W30705  12.581   9.326   1.805 -0.1938  0.0476 -0.2455
14232W        W30706  14.459   4.557  14.218 -0.3571  0.2516  0.0736
14233W        W30707   3.961   3.355  12.028  0.3020 -0.1149  0.0784
14234W        W30708  13.009   9.290  14.300 -0.1057  0.1427 -0.2581
14235W        W30709   2.902  12.610  14.054 -0.1266  0.0153  0.0510
14236W        W30710  12.567   8.146   2.621 -0.1258 -0.0377  0.0298
14237W        W30711   1.158   9.731  12.249  0.0647 -0.0562  0.1924
14238W        W30712  15.092   9.806  13.838  0.1127 -0.4215  0.1180
14239W        W30713   4.737  16.750  16.167  0.0996 -0.1357 -0.0549
14240W        W30714   8.627  11.775  15.059  0.0187 -0.2796  0.0754
14241W        W30715   2.393  17.641   4.456  0.1139 -0.1837 -0.1976
14242W        W30716   6.886   9.003  13.544  0.0846 -0.2200 -0.0190
14243W        W30717   9.569  17.494  12.901  0.1563 -0.0967 -0.1723
14244W        W30718   8.892   7.350  12.335 -0.0695  0.2479 -0.3171
14245W        W30719  11.846   4.941  14.874  0.0412  0.2427  0.3558
14246W        W30720   9.641  15.080   1.348 -0.3478  0.2426 -0.1591
14247W        W30721   3.113  12.763   2.423  0.2500 -0.1694 -0.1852
14248W        W30722   4.570  11.262  14.626 -0.1600  0.1220 -0.2727
14249W        W30723   7.758   2.488  14.243  0.3324 -0.2205 -0.0046
14250W        W30724  16.556   4.697   3.179  0.0424  0.1848 -0.1099
14251W        W30725   8.115   3.806   2.806  0.1369 -0.1630 -0.1120
14252W        W30726   5.070  14.064   0.569 -0.0055 -0.2409  0.2907
14253W        W30727  14.676   3.004   0.945  0.0025 -0.1716  0.0515
14254W        W30728  11.847  10.788  12.103 -0.0409 -0.1979  0.2903
14255W        W30729  11.079  10.278  16.659 -0.0795 -0.1571  0.0307
14256W        W30730   8.131  17.913  12.557  0.1232  0.0389  0.0546
14257W        W30731  17.910  12.220   5.646  0.0052  0.2506 -0.1613
14258W        W30732   3.031   1.344  13.762 -0.2604 -0.0951  0.1206
14259W        W30733   5.702   7.472  13.229  0.1469 -0.0104 -0.0739
14260W        W30734  10.297  16.514  15.615 -0.1877  0.1333  0.2834
14261W        W30735   4.130   1.362  10.793 -0.2775  0.3269 -0.1579
14262W        W30736   3.446  13.719  12.891  0.0291 -0.0144  0.0814
14263W        W30737  16.086   1.127  15.957  0.1955  0.0258  0.1623
14264W        W30738   7.486   8.890   2.447  0.1147 -0.1182 -0.1057
14265W        W30739  12.303  16.581   4.177 -0.1418  0.0112  0.4385
14266W        W30740  13.033   8.431   6.114 -0.2571  0.3539  0.0752
14267W        W30741   2.556  17.710  12.247  0.0173 -0.0294  0.1120
14268W        W30742   5.345  11.036   4.745  0.1093  0.1312  0.0049
14269W        W30743   3.855   0.086   3.339  0.0057 -0.0716 -0.0281
14270W        W30744  13.582   7.630   4.468  0.0411  0.2443 -0.0129
14271W        W30745   8.136   8.212   2.346 -0.2073 -0.2555 -0.2564
14272W        W30746  10.437   7.437   5.758  0.0866 -0.0148  0.2490
14273W        W30747  10.002   7.439  15.247  0.0471  0.2995  0.0340
14274W        W30748   7.555  11.246   4.238 -0.1605  0.2599 -0.1609
14275W        W30749   2.699   4.823   2.044  0.1066 -0.0727 -0.0329
14276W        W30750   0.139   1.737  12.416  0.2534  0.0990  0.0072
14277W        W30751   5.815  13.927  15.655 -0.0350 -0.0346  0.3625
14278W        W30752   2.531  15.814   4.758 -0.0689  0.0577 -0.1427
14279W        W30753   3.952  15.405  12.113 -0.1156  0.0107 -0.0535
14280W        W30754   7.571  15.182   2.118  0.0914 -0.0670  0.0360
14281W        W30755   2.211   6.513   2.043  0.1192  0.1400  0.4141
14282W        W30756  15.598  12.112  14.475  0.0329 -0.0303 -0.2098
14283W        W30757  17.781   6.426  13.384 -0.0685  0.0481  0.0826
14284W        W30758  17.867   7.422  15.613 -0.0091  0.0909  0.0501
14285W        W30759   5.516   4.258  14.578 -0.0999 -0.1218  0.1515
14286W        W30760   6.775   6.162  13.006 -0.0775  0.1130  0.2765
14287W        W30761  13.958  17.311  15.194 -0.0187 -0.2101 -0.0449
14288W        W30762  12.944  17.364  12.720 -0.0006 -0.3365  0.2385
14289W        W30763   2.944   8.525   0.214 -0.0679  0.0739  0.1535
14290W        W30764   8.748   0.366   4.069 -0.0453  0.0947 -0.1447
14291W        W30765   3.426   0.284   4.807 -0.1493  0.0728 -0.2688
14292W        W30766   9.105  12.776   4.856  0.0228 -0.2427  0.1946
14293W        W30767   4.169  14.154   0.685  0.2976  0.0300  0.1557
14294W        W30768   3.148   7.737  12.209 -0.0316  0.1154 -0.0456
14295W        W30769  10.834   8.424  13.358 -0.1523 -0.0893  0.1054
14296W        W30770   2.381   0.149   4.581  0.0000 -0.0686 -0.3247
14297W        W30771   8.559   8.003  15.974 -0.1398  0.3926  0.0442
14298W        W30772  17.371   3.586  16.214 -0.2278  0.0501 -0.2937
14299W        W30773  12.946  15.633   3.082  0.0391 -0.0698 -0.0259
14300W        W30774   9.145   6.214   2.771  0.1279  0.1885 -0.2503
14301W        W30775   9.907  15.733   0.508 -0.0880 -0.2280 -0.0493
14302W        W30776   0.762   6.553  16.059 -0.0850  0.1710 -0.1374
14303W        W30777   9.874   1.971   5.439 -0.0432  0.0714 -0.0776
14304W        W30778   8.055   4.615  13.163  0.1523  0.0721  0.0503
14305W        W30779   3.768  15.734  12.969  0.1568 -0.0090 -0.1076
14306W        W30780   4.515   9.828   3.295  0.0291 -0.1685 -0.0914
14307W        W30781  10.769  17.791  12.376 -0.2050  0.1033 -0.0661
14308W        W30782   5.618   0.706   2.106 -0.0486 -0.1434  0.2198
14309W        W30783  16.343   3.208  15.743  0.0601  0.1422 -0.1641
14310W        W30784  16.544   1.503  15.981  0.0904  0.1122 -0.2781
14311W        W30785   1.302  12.762   2.766 -0.0178  0.1669 -0.1630
14312W        W30786   7.436   1.763   5.325  0.0331  0.2555 -0.0094
14313W        W30787   3.026   3.766  11.915 -0.1244 -0.1366  0.1597
14314W        W30788   3.781  13.739  13.374 -0.0822  0.1062  0.1656
14315W        W30789  10.256   7.830   1.274 -0.0314 -0.4657  0.0049
14316W        W30790  13.902   6.400   0.407  0.1167 -0.3159 -0.0647
14317W        W30791   3.947  17.507   0.406 -0.2492  0.1653 -0.0586
14318W        W30792   0.761  17.208  15.028  0.0760 -0.0812 -0.0094
14319W        W30793   2.474  17.612  13.935 -0.0781 -0.0650  0.1592
14320W        W30794  16.271  10.140  14.699 -0.1030  0.3447 -0.2307
14321W        W30795  16.213   9.563   3.522  0.0182  0.3058  0.2675
14322W        W30796  14.971   8.287  15.684  0.1679 -0.3211 -0.0180
14323W        W30797   7.426  13.420  16.580  0.1282  0.0403  0.2134
14324W        W30798  14.952  12.490   0.261 -0.0133  0.1524 -0.2135
14325W        W30799   5.289  12.444  14.607  0.1075  0.2224  0.1314
14326W        W30800  11.678   0.928   0.468 -0.0981 -0.2044 -0.0903
14327W        W30801  17.890   2.501  16.587  0.0236  0.2724 -0.3261
14328W        W30802  13.451  11.540  12.151  0.1215  0.1344  0.1954
14329W        W30803   4.246  15.174  13.529  0.0432 -0.0945 -0.1279
14330W        W30804   7.990  16.081  12.096 -0.3624 -0.0407  0.2745
14331W        W30805  14.963   1.169   5.016 -0.3049 -0.1859 -0.2314
14332W        W30806   6.188   4.630  12.797 -0.2250 -0.3090 -0.0556
14333W        W30807   0.420   3.356   4.767 -0.0907  0.6145 -0.3036
14334W        W30808  13.415   7.115   4.534 -0.0165 -0.0118 -0.0942
14335W        W30809   3.426  12.940  15.265 -0.3215  0.0235 -0.0329
14336W        W30810   8.073  17.129  14.167  0.2088  0.1067  0.0025
14337W        W30811  12.732   6.275   2.797  0.0515  0.0291 -0.0487
14338W        W30812   3.343   5.288   0.703 -0.5431 -0.2521  0.0238
14339W        W30813  15.990  16.328   4.220 -0.0738  0.1933  0.0809
14340W        W30814  17.196  13.942   0.262  0.0982 -0.1342  0.2783
14341W        W30815  11.055  11.437   2.111 -0.1924 -0.0802  0.0011
14342W        W30816   4.960   2.156   4.618  0.1550  0.0056 -0.0715
14343W        W30817   4.429   7.942   0.703  0.2813 -0.0424  0.0865
14344W        W30818  16.651   8.055  11.918  0.0065 -0.2434 -0.1195
14345W        W30819   1.006  11.547   2.066  0.4858 -0.2115  0.1754
14346W        W30820  15.949   9.225   5.073 -0.0252 -0.0214  0.0975
14347W        W30821   0.020   4.098  14.862  0.0641  0.0220 -0.3175
14348W        W30822  12.205  14.326  13.659 -0.3594  0.2338  0.0731
14349W        W30823  16.479   3.416   5.077 -0.0036 -0.0876  0.1538
14350W        W30824   0.258  12.671  13.130 -0.1036  0.2078 -0.2596
14351W        W30825   7.277   7.658  15.749  0.2163 -0.0354  0.0926
14352W        W30826  15.178  14.245  12.102  0.0682  0.3919  0.1391
14353W        W30827  11.482   7.340   0.094  0.0847 -0.1933 -0.0042
14354W        W30828   3.334  12.340   2.663 -0.1407  0.2966  0.0397
14355W        W30829   0.180  11.749   3.549  0.1817  0.0101 -0.1465
14356W        W30830  15.773   0.911   3.548 -0.0284 -0.0624 -0.2047
14357W        W30831   2.615  12.906   4.285 -0.0710  0.1852 -0.0887
14358W        W30832   9.632  11.253   3.397 -0.2499 -0.3304 -0.1577
14359W        W30833   9.162  16.523   2.597 -0.2002 -0.0286  0.0383
14360W        W30834   8.204  17.504  12.781 -0.0887 -0.2368  0.0656
14361W        W30835   1.653   6.033  11.957  0.1996  0.0415 -0.0664
14362W        W30836  12.223   4.836   3.640  0.0122 -0.0119  0.4420
14363W        W30837  14.592   3.003   5.006 -0.0089 -0.4365  0.2446
14364W        W30838   3.823  13.424   3.105  0.0389  0.1009  0.0924
14365W        W30839  15.015   5.091   1.044  0.0220  0.2066  0.2451
14366W        W30840   8.958   9.924  12.973 -0.2452  0.0329  0.0870
14367W        W30841   8.969  16.844  11.565 -0.1850  0.1646  0.0634
14368W        W30842   1.093  10.870  13.889  0.4335 -0.2494 -0.0929
14369W        W30843   8.182   4.306   6.483  0.1378  0.0613  0.1067
14370W        W30844  10.263  12.161   4.504 -0.3987  0.0285  0.3425
14371W        W30845  13.051   0.805  13.564 -0.1382 -0.2003  0.3907
14372W        W30846   1.428  11.329  11.193  0.1688  0.0394 -0.0538
14373W        W30847  15.338   8.343  12.748  0.2099 -0.0758 -0.1137
14374W        W30848  11.345  12.910   3.864  0.0190 -0.1074 -0.0988
14375W        W30849  11.774  13.847   1.427  0.1323 -0.2163 -0.0887
14376W        W30850  14.951   3.526   3.328 -0.0531 -0.0397 -0.1141
14377W        W30851   8.502  16.745  12.819  0.0153  0.1263 -0.1888
14378W        W30852   0.080   7.058  14.801  0.0488  0.1855  0.1170
14379W        W30853   7.375  15.432  11.418 -0.1709  0.0408 -0.2220
14380W        W30854  13.520  16.009   3.417  0.0747  0.0739 -0.1902
14381W        W30855   4.196  11.108   1.323 -0.2276 -0.0047 -0.2958
14382W        W30856  14.553  12.727   0.021  0.3968  0.0249 -0.0243
14383W        W30857  10.525  11.769   5.975 -0.0150  0.0004 -0.3305
14384W        W30858  11.444   7.281   3.739  0.0553 -0.1799 -0.1498
14385W        W30859  16.821   7.508   0.868 -0.1211 -0.1927 -0.1422
14386W        W30860   6.582   0.000   0.027 -0.1000  0.0705 -0.0241
14387W        W30861  13.513   0.020  12.546 -0.0931 -0.0482 -0.0978
14388W        W30862   4.285   1.205   5.812  0.1421  0.0255  0.0264
14389W        W30863   5.661  14.810  12.175  0.1267 -0.2412  0.1698
14390W        W30864   2.162  13.562   0.316 -0.1420 -0.2884  0.1239
14391W        W30865   5.584   3.754  14.672 -0.0074 -0.0401  0.0883
14392W        W30866   0.566   5.307  13.811  0.1219  0.0175  0.0190
14393W        W30867   3.945   1.128  14.972  0.0230 -0.0216 -0.1489
14394W        W30868  12.142   6.804  14.727  0.1142  0.1409  0.1839
14395W        W30869   3.006  17.114   1.382  0.2493 -0.3383  0.4252
14396W        W30870  11.964  17.359   3.160  0.0899 -0.2498 -0.2299
14397W        W30871  10.569  17.012  16.732  0.3433 -0.2181 -0.0300
14398W        W30872   5.924  17.852  11.568  0.2211  0.2485 -0.3921
14399W        W30873   5.462  10.602  14.852  0.0256  0.3726  0.0463
14400W        W30874   8.986   5.970  16.499  0.2338  0.4701  0.1132
14401W        W30875   5.068  15.911   4.675 -0.0451  0.4074 -0.0059
14402W        W30876  15.176  11.941  16.507  0.0838  0.0427 -0.1395
14403W        W30877  16.873   3.918   3.890 -0.0189 -0.2296 -0.0729
14404W        W30878  16.045  16.432  14.105  0.0350  0.1797 -0.2783
14405W        W30879   9.090  15.960  12.240  0.0788  0.1327  0.1982
14406W        W30880   8.043   1.364   1.701  0.4179  0.2465  0.0468
14407W        W30881  12.821   3.794   1.419 -0.1974  0.2616  0.2551
14408W        W30882   1.382  11.601  12.231 -0.1023  0.1742  0.2208
14409W        W30883  12.585   8.827  13.574 -0.3871 -0.2074 -0.0867
14410W        W30884  13.870  16.447  12.118  0.1123 -0.2003  0.2068
14411W        W30885  12.861  17.640   0.015 -0.3015 -0.2235 -0.4626
14412W        W30886   1.554   1.549   5.469 -0.0738  0.1327 -0.2139
14413W        W30887   3.094   7.334  14.435 -0.1784  0.0480  0.4561
14414W        W30888  11.352   2.669   0.743  0.3061 -0.1009  0.1230
14415W        W30889   3.881   0.156   4.946 -0.1046  0.2104 -0.2213
14416W        W30890  11.684  12.695  13.295  0.0764  0.1003  0.2489
14417W        W30891   6.034   6.275   2.584 -0.1774  0.3212 -0.0630
14418W        W30892  15.349  11.871   2.744 -0.1411  0.1360  0.0080
14419W        W30893  11.726   7.256  15.590 -0.0746  0.5943  0.1530
14420W        W30894   7.313  17.962   3.435 -0.1003  0.0823 -0.2464
14421W        W30895  15.998  14.848   1.032 -0.1327  0.0828  0.0221
14422W        W30896  11.950   8.394   5.843  0.1355 -0.1281  0.1713
14423W        W30897   0.643  13.100   0.371  0.0134  0.1147  0.1099
14424W        W30898  13.136   6.491   4.277 -0.2176 -0.1449  0.0164
14425W        W30899   6.066   2.883  11.926  0.1236 -0.3795  0.2083
14426W        W30900  15.317   6.898  13.993 -0.1857 -0.1049 -0.3110
14427W        W30901  15.036   8.711   3.535 -0.1697  0.0635 -0.0700
14428W        W30902  13.809  10.861  10.450  0.1832  0.0585  0.1268
14429W        W30903  11.983   4.228   1.882  0.0784  0.1128 -0.3974
14430W        W30904  11.919  16.708  13.167  0.2322 -0.2704  0.2546
14431W        W30905  12.889   2.256  11.935  0.1889  0.3087  0.0618
14432W        W30906   1.191   9.547   1.281 -0.0776 -0.1957 -0.0881
14433W        W30907   3.335   3.079  15.199  0.1572  0.0420 -0.1971
14434W        W30908  10.821   7.807  14.208  0.1143  0.4866 -0.0555
14435W        W30909  13.297  10.167   3.315  0.2782 -0.2408 -0.0184
14436W        W30910  16.059  15.351  13.023  0.2093  0.2906 -0.2367
14437W        W30911   0.049  13.615   1.278  0.0053 -0.1569  0.0247
14438W        W30912   5.565  14.424   4.756  0.0996  0.3615  0.1297
14439W        W30913   5.629  12.206  11.312 -0.2419 -0.2838  0.0083
14440W        W30914   7.712   6.408   5.963  0.0693  0.1810  0.2818
14441W        W30915  13.414  13.870  15.277  0.1199 -0.0838 -0.1094
14442W        W30916  17.507   9.943   1.342 -0.0608  0.0692 -0.3764
14443W        W30917   7.596   2.238   1.093  0.1483  0.0607  0.2282
14444W        W30918   5.872   1.607   1.137  0.0523  0.2165 -0.0999
14445W        W30919   5.075   6.121  14.373 -0.0249  0.0868 -0.0447
14446W        W30920   7.229  13.250   3.214  0.1995 -0.1290  0.1802
14447W        W30921   9.093   4.834   2.557 -0.1686 -0.2229  0.1489
14448W        W30922  13.861   9.148  12.498 -0.0591  0.0847 -0.0282
14449W        W30923  10.037   9.612   6.015 -0.1220 -0.1148 -0.5242
14450W        W30924  15.872   1.029   2.193  0.0521  0.3197 -0.2690
14451W        W30925  17.331   2.432   3.284  0.1505  0.2781  0.0945
14452W        W30926   3.134   6.585   2.923  0.2597 -0.1144 -0.0655
14453W        W30927   4.776   2.369   5.637  0.2233 -0.1997  0.0092
14454W        W30928   5.675  13.574   1.132  0.0738 -0.1049 -0.1113
14455W        W30929  10.049  14.438   2.532 -0.1862  0.0191 -0.0758
14456W        W30930   5.313   6.738   4.608 -0.2420  0.0016 -0.1516
14457W        W30931   9.528  11.564   1.262 -0.1867  0.3983  0.1290
14458W        W30932  17.462   1.986  15.479 -0.4257  0.0054 -0.0203
14459W        W30933   4.540  10.566   6.008 -0.2535 -0.1932  0.1867
14460W        W30934  12.729  10.321  13.134  0.0320 -0.0806 -0.0530
14461W        W30935  13.881   4.335  15.612  0.0640  0.0164 -0.0184
14462W        W30936  10.965   4.910   2.521 -0.1120  0.1372  0.0569
14463W        W30937   7.560   6.568   4.366 -0.1904  0.2184  0.1197
14464W        W30938  16.905   5.615   4.641 -0.3033  0.0309  0.1255
14465W        W30939  16.659   4.934  13.467 -0.0853  0.2298  0.0502
14466W        W30940   0.180  14.235  14.205 -0.1209 -0.0438  0.4309
14467W        W30941  12.273   4.677   1.673  0.0251  0.3907 -0.0267
14468W        W30942  15.961  11.730   0.738 -0.1885  0.0390  0.0968
14469W        W30943   0.065   8.722  14.199 -0.4248 -0.1095  0.0036
14470W        W30944   1.642   5.435  13.299  0.0737 -0.0319  0.1490
14471W        W30945  15.560   9.497  16.231  0.1079 -0.1195 -0.0418
14472W        W30946  15.266  10.613   4.363  0.2374  0.2142 -0.0610
14473W        W30947  16.585   1.964  16.561  0.0212 -0.2557  0.1349
14474W        W30948  15.278  14.245   3.700 -0.3886 -0.2684 -0.6214
14475W        W30949   7.287   8.511   3.519  0.3547 -0.2391  0.0135
14476W        W30950   2.416  16.306   0.649  0.0052  0.0316  0.1169
14477W        W30951  14.310   3.230   4.470 -0.2368 -0.1329 -0.1235
14478W        W30952  14.661  14.242   4.831 -0.0382  0.0360 -0.0672
14479W        W30953   6.925  12.140  12.863 -0.3870  0.3163  0.2154
14480W        W30954   5.421   3.583   1.401 -0.0746  0.0551  0.2182
14481W        W30955   5.618   5.885   4.520 -0.1850 -0.0211 -0.1452
14482W        W30956  12.325  13.309  13.034 -0.4232  0.1101  0.2436
14483W        W30957  16.449   5.430   4.442 -0.2477  0.0993 -0.4191
14484W        W30958  11.614  14.153  16.205  0.1774 -0.5584  0.4284
14485W        W30959  15.958   1.479   2.043 -0.4333 -0.1160 -0.0439
14486W        W30960   0.988  10.147  12.066 -0.1304 -0.1757  0.0586
14487W        W30961  10.002   3.213  14.673  0.3629 -0.1902  0.0479
14488W        W30962   2.430  17.875   0.885 -0.0802 -0.3185 -0.1896
14489W        W30963   3.917  14.382  12.423  0.0137 -0.1228 -0.1471
14490W        W30964   2.391  14.253   2.597  0.0193  0.0038  0.0182
14491W        W30965   6.701  17.279   1.977  0.2929  0.0136  0.2210
14492W        W30966   5.278   8.281   0.774  0.2266 -0.1418  0.1325
14493W        W30967   2.094   5.712   5.160  0.2572  0.2022 -0.0040
14494W        W30968   2.707   8.220   2.500 -0.0811  0.2029 -0.1088
14495W        W30969  17.142   5.987   5.416 -0.1164 -0.0753 -0.2118
14496W        W30970  11.415  12.726   4.356  0.1046  0.4748 -0.0300
14497W        W30971  14.649  16.264   5.170 -0.0166  0.1105 -0.2293
14498W        W30972   7.060   9.490   5.259 -0.0696  0.1242  0.2272
14499W        W30973  11.830   6.328   3.341  0.2788  0.0954 -0.4289
14500W        W30974  13.682  12.706   5.144 -0.0983  0.0723  0.1154
14501W        W30975   6.444  14.324  12.052 -0.3560 -0.4096 -0.1246
14502W        W30976   5.019  12.892   2.894 -0.3066  0.2392  0.1740
14503W        W30977   0.242  15.804  15.494 -0.1175 -0.0646 -0.0784
14504W        W30978  11.442   0.376   5.309  0.2862 -0.4213  0.0655
14505W        W30979  15.336   3.416   0.302 -0.2834 -0.1760 -0.1587
14506W        W30980   5.561  10.560   3.397 -0.3497 -0.1489 -0.2904
14507W        W30981  11.160   8.114   2.877  0.1671 -0.0477  0.2518
14508W        W30982  16.454   6.627   2.689  0.2552 -0.0457 -0.2139
14509W        W30983  16.198   4.698  11.983 -0.0592  0.2624 -0.0942
14510W        W30984  11.992  12.062   2.977  0.1108 -0.0405  0.0557
14511W        W30985   7.645  12.295  13.531 -0.2040  0.0940 -0.0340
14512W        W30986   8.729  14.906   3.233 -0.0515 -0.1380 -0.3860
14513W        W30987   1.391   1.213   1.121 -0.0024  0.0465 -0.1906
14514W        W30988  17.559   7.630   2.861 -0.0222  0.0671 -0.2177
14515W        W30989  12.707  15.742   5.283  0.2066  0.0088 -0.0857
14516W        W30990  14.308   0.412  13.039 -0.3204  0.2860  0.1655
14517W        W30991   5.009   1.084   2.383  0.1197 -0.0280 -0.2748
14518W        W30992   3.198  11.586  13.955 -0.1119  0.1821  0.1353
14519W        W30993  13.804   5.160  16.457 -0.0237 -0.4263  0.0111
14520W        W30994   9.126  12.183   3.832 -0.1384 -0.2294 -0.2774
14521W        W30995   0.129  17.698  14.430 -0.1705  0.3092 -0.0768
14522W        W30996  13.502   1.788  14.207 -0.1833  0.0963  0.0757
14523W        W30997   6.590  16.342  14.883  0.0787  0.1384 -0.2299
14524W        W30998  11.325   4.775  12.021  0.3345  0.0171  0.0294
14525W        W30999   6.385   4.806  13.745  0.3064 -0.3171  0.0053
14526W        W31000  12.041  11.091   6.183 -0.2564  0.0648  0.0578
14527W        W31001  13.154   0.158   1.056  0.1634  0.0414  0.1266
14528W        W31002   2.128  14.131   1.663 -0.1200  0.1632  0.0181
14529W        W31003  12.736  15.530  14.489 -0.1611 -0.0353  0.0652
14530W        W31004  17.657  10.930   2.041 -0.2972  0.1548 -0.1236
14531W        W31005   2.066  10.532  15.547 -0.3268  0.1289  0.2230
14532W        W31006  15.050  10.262  15.105 -0.0225 -0.3226 -0.0648
14533W        W31007   7.042   0.650   0.161  0.2275 -0.0418 -0.0584
14534W        W31008   7.778   2.128   6.107  0.0435  0.1018 -0.1876
14535W        W31009  14.767   6.213  15.954  0.0784 -0.0727  0.2361
14536W        W31010   8.655  16.598   2.351  0.1587  0.2130 -0.4360
14537W        W31011   9.561  16.841  12.206 -0.0947 -0.3039 -0.2925
14538W        W31012   9.095   1.552   3.688  0.2419 -0.3376  0.2747
14539W        W31013   6.734  11.162  16.388  0.2486 -0.1009 -0.0007
14540W        W31014  17.712  13.578  13.086 -0.0362  0.0359 -0.0430
14541W        W31015  10.260  16.955  15.986 -0.0747  0.2028  0.2591
14542W        W31016   2.292   5.144   0.878  0.1140  0.2986 -0.2931
14543W        W31017   7.817   0.864   2.555  0.1354 -0.0379 -0.1914
14544W        W31018   8.642   7.323  15.299  0.2234  0.0325  0.1780
14545W        W31019  16.755  10.094   3.028 -0.3481  0.0933 -0.0242
14546W        W31020   6.651  17.036  15.310  0.0422  0.0774  0.3505
14547W        W31021  12.343  13.820   0.313  0.0550  0.2675  0.0023
14548W        W31022   4.189   3.537  12.442 -0.1623  0.1090  0.1762
14549W        W31023  12.333  11.337  14.208 -0.1818  0.0312  0.1385
14550W        W31024  17.858  17.390  12.945 -0.0056 -0.3837 -0.1375
14551W        W31025  10.837  17.840   1.000  0.4287 -0.0033  0.0173
14552W        W31026  13.292  10.381  11.396  0.0817  0.0156  0.0784
14553W        W31027   0.477   1.009  13.583 -0.3594  0.0456  0.1006
14554W        W31028   0.521  13.052  10.914 -0.0433  0.2434  0.2988
14555W        W31029  11.828  16.349   2.711  0.3964  0.2371 -0.1298
14556W        W31030   5.904   5.875   5.554  0.0130  0.0647 -0.1107
14557W        W31031  15.474  15.063  15.775  0.1892 -0.0682 -0.2374
14558W        W31032   5.570   7.872   0.511 -0.1812 -0.1301  0.1283
14559W        W31033   8.880   8.335  14.946 -0.1491  0.1242  0.5626
14560W        W31034   6.633   8.456  12.878  0.1234  0.1538 -0.1940
14561W        W31035   0.062  10.329  12.211  0.1221  0.3267 -0.0673
14562W        W31036  13.949   2.013  14.034  0.1563 -0.0451 -0.3501
14563W        W31037   3.797  14.965   0.900 -0.1766  0.0917 -0.1132
14564W        W31038   1.732   6.021  14.959  0.3508  0.2508  0.1342
14565W        W31039   6.057   9.459   3.181 -0.1701 -0.2995  0.0216
14566W        W31040  11.304   4.722   2.814  0.2438 -0.2327  0.1666
14567W        W31041   6.777  13.347   2.191 -0.2397 -0.0366 -0.0259
14568W        W31042   4.752   1.065  15.351  0.1028  0.3943  0.2330
14569W        W31043   0.289  13.183  13.164 -0.0047 -0.1137  0.2761
14570W        W31044   6.885   8.430   4.261  0.0526  0.0714 -0.0423
14571W        W31045   0.212   9.667  14.181 -0.0013  0.4027 -0.1379
14572W        W31046   4.555   9.481  12.551 -0.0085  0.2052 -0.0967
14573W        W31047   5.475   6.192   2.731 -0.0012  0.2891  0.3981
14574W        W31048  11.793  10.940   1.374 -0.1780 -0.0982 -0.2068
14575W        W31049   5.084   0.064   3.936  0.1892 -0.1886  0.2631
14576W        W31050  11.085  10.788   4.055 -0.0979 -0.0958  0.0041
14577W        W31051  16.991  13.549  13.419 -0.0836 -0.1574 -0.3037
14578W        W31052  17.113   8.755   5.143  0.1045  0.2474 -0.0353
14579W        W31053   8.026   2.213  11.875  0.0109  0.0093  0.0972
14580W        W31054  16.560   5.913  13.265 -0.3053 -0.0072 -0.1098
14581W        W31055  11.021   2.433  15.135 -0.2578 -0.2508 -0.2572
14582W        W31056   0.914   3.423   4.923 -0.0019 -0.1676 -0.0615
14583W        W31057  14.828  14.453   2.740 -0.4705  0.0295 -0.2964
14584W        W31058  15.983   3.437  13.147  0.0504  0.0581  0.4398
14585W        W31059  16.639   1.042  15.829  0.2646 -0.0505 -0.0027
14586W        W31060   2.213   7.890  15.785 -0.0596 -0.0593  0.1765
14587W        W31061   7.993  13.118  15.826  0.0059  0.2836 -0.3110
14588W        W31062   1.728  16.232  12.595 -0.0001  0.3226 -0.1768
14589W        W31063   8.320   8.025  12.533  0.1036  0.0293 -0.0492
14590W        W31064   2.116   5.306  16.628  0.2189 -0.1810 -0.1954
14591W        W31065   1.893   8.304   4.663 -0.0140 -0.2706 -0.0354
14592W        W31066  13.239  12.555  15.835  0.0701 -0.3103  0.3521
14593W        W31067  10.305   5.502  14.671 -0.2312  0.1136  0.2698
14594W        W31068  17.314   6.381  14.934 -0.2077  0.0050  0.2347
14595W        W31069   5.762  10.953   1.905  0.1209  0.0866  0.0154
14596W        W31070   3.609   9.208   2.410  0.3008 -0.2835  0.1360
14597W        W31071   8.148   9.631   1.446 -0.2742  0.0433  0.0560
14598W        W31072  10.385   1.816   1.199  0.1174  0.1826  0.3193
14599W        W31073   9.866   5.418   1.682  0.0306 -0.0766  0.0626
14600W        W31074   6.074  10.215  15.534  0.2556  0.0290  0.3051
14601W        W31075   9.278   9.327   5.252 -0.1392 -0.1033 -0.0105
14602W        W31076   3.896  13.794   2.245 -0.0085  0.1464  0.2480
14603W        W31077  17.402   4.412  13.271 -0.0505 -0.5737  0.0407
14604W        W31078   6.094   9.227   2.733 -0.1471  0.1099 -0.0912
14605W        W31079   3.698   2.105   3.465 -0.1514 -0.1702 -0.2237
14606W        W31080   9.142   7.040  12.005 -0.1606  0.0011  0.1970
14607W        W31081   2.304  13.701  12.288 -0.3887  0.0255  0.0514
14608W        W31082   2.485  17.648   2.757  0.1092  0.1291 -0.2125
14609W        W31083   8.563   1.287   3.783  0.0263 -0.1986  0.1581
14610W        W31084   8.178  14.279  16.206 -0.1493 -0.0477 -0.1546
14611W        W31085  14.534   5.362   4.817  0.0367 -0.0683  0.0459
14612W        W31086   5.052   3.362  12.124 -0.3303  0.0346  0.0306
14613W        W31087  10.579   4.239  16.436 -0.1268  0.1888  0.0622
14614W        W31088   9.405  17.146  13.775  0.1009 -0.2010 -0.1478
14615W        W31089   9.427  18.001  15.581 -0.0910 -0.2610  0.0673
14616W        W31090   5.960   6.307   4.038 -0.1623  0.0393  0.1055
14617W        W31091  17.952  11.655  15.318  0.0654 -0.1691  0.0057
14618W        W31092  15.068   9.192   1.707 -0.2744 -0.1938 -0.2237
14619W        W31093  15.324  12.216   4.216 -0.0598  0.0605 -0.2496
14620W        W31094   9.586  11.024   2.445 -0.1489 -0.1278 -0.2444
14621W        W31095   5.099  16.357   4.536 -0.3710 -0.2120 -0.1156
14622W        W31096   0.628   0.539  12.961  0.0859  0.0062  0.1697
14623W        W31097  15.341   3.040  14.806 -0.0257  0.5104 -0.0067
14624W        W31098   0.933  10.688  14.374 -0.1153 -0.1660 -0.1058
14625W        W31099   6.498   7.711  15.272 -0.1057 -0.2796 -0.2095
14626W        W31100   6.013   3.313  12.208 -0.5203 -0.1489  0.2364
14627W        W31101   0.172   5.975   3.967 -0.1634 -0.1753 -0.2881
14628W        W31102   8.852   4.114  12.706  0.0493  0.0925 -0.1996
14629W        W31103   1.538  16.799   2.504 -0.0080 -0.2492 -0.2308
14630W        W31104  10.665  13.669   2.600 -0.4064  0.1598  0.0902
14631W        W31105   5.701   6.115   2.156 -0.0779 -0.2225  0.0109
14632W        W31106  15.449   9.827   2.598 -0.0261 -0.0437  0.0561
14633W        W31107   2.946   0.057  14.578 -0.1432 -0.2881  0.1183
14634W        W31108  12.344  10.028   0.676 -0.0664 -0.0524 -0.0936
14635W        W31109   0.827   9.596   2.929 -0.1773 -0.1980 -0.1010
14636W        W31110  12.871  12.278  11.531 -0.4160  0.0283 -0.2133
14637W        W31111  14.861   8.274   1.711  0.1227  0.1454 -0.1616
14638W        W31112  14.925   0.092   4.558 -0.0820 -0.1684  0.1200
14639W        W31113   4.019  15.492  14.128  0.3090 -0.2743 -0.1023
14640W        W31114  10.823   9.508   5.355 -0.0357  0.2731  0.0877
14641W        W31115   5.726  16.713  15.901 -0.0067  0.0446  0.1457
14642W        W31116   5.360  13.761   2.037 -0.0680  0.1214  0.2311
14643W        W31117  10.892  13.686   1.601 -0.0337 -0.1573 -0.1416
14644W        W31118   7.911   1.829  15.623  0.0481 -0.3057  0.1351
14645W        W31119  10.763   5.869   4.145 -0.0455 -0.1788  0.2176
14646W        W31120  17.694   4.459   4.915 -0.1011 -0.0124 -0.2707
14647W        W31121   8.117  16.971   4.590 -0.2606  0.1947 -0.2782
14648W        W31122   8.560   5.754  13.282  0.2439 -0.0021  0.1106
14649W        W31123   1.339   6.484  16.702 -0.2234 -0.0879  0.0081
14650W        W31124  15.941   1.663  15.283 -0.0561 -0.0968 -0.0217
14651W        W31125  15.217   7.497   5.300  0.5219 -0.0606 -0.1169
14652W        W31126   7.472   3.867   0.238 -0.0080  0.0425  0.0125
14653W        W31127   1.900   4.485  12.824  0.1162  0.2862 -0.0882
14654W        W31128   8.046  12.479  11.430  0.2283 -0.0721 -0.0197
14655W        W31129   2.789   6.131  16.623 -0.0581 -0.0389  0.2730
14656W        W31130  17.363   4.638   0.742 -0.1630  0.2229  0.1743
14657W        W31131   4.528  17.735  16.711 -0.0762 -0.1246  0.0183
14658W        W31132   3.353  16.627   4.189 -0.2876  0.1881  0.1327
14659W        W31133   8.028  17.862  15.365 -0.3021  0.0533 -0.1376
14660W        W31134   4.758  16.832  13.808  0.1778 -0.0582 -0.0201
14661W        W31135  16.034   5.965   0.741  0.0689 -0.0663 -0.0257
14662W        W31136   6.906   8.553  13.309  0.2634  0.1589 -0.0033
14663W        W31137  17.272  16.322  13.203  0.0550  0.3048  0.2948
14664W        W31138  13.299  15.849   4.244  0.0275 -0.1927  0.0333
14665W        W31139   1.608   5.446  12.024  0.3860  0.1453 -0.0139
14666W        W31140   8.918  11.496  15.686 -0.2228 -0.3339  0.0371
14667W        W31141   7.993  16.401   3.907 -0.0242 -0.2502 -0.1128
14668W        W31142   9.014   6.672   4.916 -0.0828  0.1396  0.0943
14669W        W31143   8.447   7.328  13.812  0.0589  0.2258 -0.1311
14670W        W31144   6.825   8.053   1.834 -0.0946 -0.2226  0.1658
14671W        W31145  13.494   5.256   1.640 -0.4048  0.1565 -0.2556
14672W        W31146   2.158   5.940  15.256  0.1615 -0.1029 -0.0187
14673W        W31147  14.411   2.420   3.570 -0.2050 -0.2385 -0.5122
14674W        W31148   9.694   4.328   4.780  0.1106 -0.0088  0.1428
14675W        W31149   5.167   8.927  16.312  0.0942  0.1203  0.3110
14676W        W31150   1.276  16.672  14.292  0.0234 -0.0728  0.0525
14677W        W31151  12.193   8.197  14.446  0.3014 -0.1720 -0.1617
14678W        W31152  14.250  12.073   1.519 -0.2177 -0.0587  0.0987
14679W        W31153  14.713  15.664  14.344 -0.1628  0.1952  0.1326
14680W        W31154  15.605  17.081  12.685  0.0249 -0.0460  0.3080
14681W        W31155  16.687  16.047   3.632 -0.0501  0.2942  0.0462
14682W        W31156   3.074   4.101   6.266  0.2347  0.1290  0.3227
14683W        W31157   8.270  14.098   2.615 -0.0956 -0.2225  0.0316
14684W        W31158  16.226  17.241   1.972 -0.2129 -0.3047 -0.1918
14685W        W31159   4.815   4.217   3.770  0.2168  0.1836 -0.0908
14686W        W31160   6.116   1.485   4.253  0.0439 -0.0490  0.2013
14687W        W31161  16.318  16.747  15.684  0.2462  0.2097  0.0066
14688W        W31162   1.885   2.127  11.390  0.4139  0.0076 -0.1111
14689W        W31163   3.349  14.144   5.014  0.2073 -0.1169 -0.2355
14690W        W31164   7.838   3.062  12.455  0.1517 -0.0116 -0.1606
14691W        W31165   7.540   0.426   0.129 -0.2179  0.0738  0.1183
14692W        W31166   5.502   2.891   0.603 -0.2436  0.1927 -0.3172
14693W        W31167  16.143   0.538  12.513 -0.0388 -0.0235 -0.0177
14694W        W31168  10.740  14.982   4.170  0.1901 -0.0106  0.0110
14695W        W31169   7.227   1.346  11.241  0.0907 -0.0610  0.2501
14696W        W31170  17.105  10.106  16.710  0.1641 -0.0329  0.0885
14697W        W31171  10.360  16.527   0.229  0.2030  0.0557 -0.1037
14698W        W31172   3.084  15.588  11.671 -0.1057 -0.0625 -0.1082
14699W        W31173  15.752  14.784  13.604  0.1665 -0.0581 -0.2372
14700W        W31174   0.456   8.085  14.627 -0.2554 -0.2688 -0.1940
14701W        W31175   8.999   9.297  16.497 -0.0858  0.2018  0.0846
14702W        W31176  16.270   7.932   4.521 -0.3044 -0.0860 -0.0290
14703W        W31177   8.411   7.354  16.594  0.0866  0.0984 -0.0619
14704W        W31178   8.848   9.524  11.788  0.1851  0.2035  0.2286
14705W        W31179   4.407  16.325   1.715  0.1160 -0.1691  0.2465
14706W        W31180   1.533   6.176  15.757 -0.1327 -0.0192 -0.0237
14707W        W31181   8.289  13.195  14.948  0.0217 -0.1706 -0.1657
14708W        W31182   5.464  10.439  12.470 -0.0777  0.1000 -0.0413
14709W        W31183  11.158  13.154  14.754 -0.1370  0.1040  0.1258
14710W        W31184  16.185  17.586  16.109  0.2438  0.2170  0.0714
14711W        W31185  14.438   7.915   2.726 -0.2263  0.1629  0.1322
14712W        W31186   7.006   6.484  14.815 -0.2066 -0.0334 -0.0643
14713W        W31187  16.424   6.360  15.768 -0.3149  0.2162 -0.0677
14714W        W31188  17.101   1.224  14.514 -0.2669 -0.1022 -0.0939
14715W        W31189   0.860  10.160  13.401  0.1665 -0.1980 -0.2309
14716W        W31190   8.539  15.615   4.882  0.0047 -0.3050 -0.1876
14717W        W31191   6.572  13.291  15.869 -0.1968  0.0518  0.0713
14718W        W31192  11.785  12.486   5.416 -0.1485 -0.0281  0.3398
14719W        W31193   8.062   9.400   1.954 -0.0427  0.1446  0.2649
14720W        W31194   2.723   6.159  14.585 -0.1452 -0.1248 -0.1985
14721W        W31195   8.541  12.364   3.691 -0.3129  0.0401  0.0139
14722W        W31196   8.884   1.906   1.854 -0.0185 -0.0217 -0.0573
14723W        W31197  15.194   3.526  11.241  0.3048  0.2475 -0.1806
14724W        W31198   1.615   2.052   4.238  0.3487 -0.0303  0.0823
14725W        W31199   9.385  15.628   0.503  0.1083 -0.0100  0.3457
14726W        W31200   4.484  12.267   2.523 -0.0395  0.0290 -0.3393
14727W        W31201  17.770  13.995  11.633 -0.1661 -0.2109  0.1122
14728W        W31202  10.025  15.751   5.547 -0.2339 -0.0218  0.0933
14729W        W31203   0.415  14.103   1.624 -0.0141 -0.1031 -0.0070
14730W        W31204   2.819   1.053  12.786 -0.2011 -0.2899  0.0419
14731W        W31205   2.782   5.265  14.231  0.2160  0.1632 -0.0908
14732W        W31206  10.339   4.896  13.027 -0.0265 -0.2071 -0.1777
14733W        W31207   6.159   2.871   4.643 -0.3285 -0.1209  0.1131
14734W        W31208  12.969  11.351  11.991 -0.1699  0.3699 -0.0248
14735W        W31209  14.602  10.220   2.413  0.3632 -0.0025 -0.2657
14736W        W31210   6.022   0.172   3.515 -0.0008  0.0017 -0.0689
14737W        W31211  14.037  15.653   3.704 -0.0297 -0.1091 -0.1572
14738W        W31212  17.222   4.128  16.464 -0.4363  0.0028  0.0285
14739W        W31213   6.466  12.368   4.090  0.2268 -0.0667 -0.0936
14740W        W31214   1.555  13.860  12.001 -0.4101 -0.0850 -0.0213
14741W        W31215   5.412  12.361  15.778  0.1488 -0.1058  0.2849
14742W        W31216   9.807   7.364   4.544 -0.1481  0.0204  0.0783
14743W        W31217  15.597  12.520   1.764  0.2557  0.1233 -0.2585
14744W        W31218  15.440  10.626   0.249 -0.2254  0.0168  0.1280
14745W        W31219  14.729   7.468   2.707  0.3986  0.0760  0.1930
14746W        W31220  14.190  11.067  14.554 -0.2087  0.2609 -0.0693
14747W        W31221  17.513  14.799  15.393  0.0040 -0.0756  0.0579
14748W        W31222  14.346   6.767  13.660  0.2301  0.0610  0.2068
14749W        W31223   1.530   4.957  15.634 -0.1000 -0.1025  0.2148
14750W        W31224  10.754   0.306  16.516  0.0601  0.0895  0.1510
14751W        W31225   4.778  16.170  11.704 -0.0737  0.2432 -0.1835
14752W        W31226   9.705  15.486  15.108 -0.3073 -0.1472  0.0783
14753W        W31227  13.879  15.447  11.832 -0.1417 -0.0097  0.0721
14754W        W31228  10.076  17.760   2.478  0.0139 -0.1067 -0.0014
14755W        W31229   5.501   9.969  12.373  0.1791  0.0851 -0.1198
14756W        W31230   9.084  16.462   1.516 -0.5572  0.0488 -0.1292
14757W        W31231  10.263   9.218   4.115 -0.0625 -0.0038  0.2729
14758W        W31232   4.626   3.920   3.360  0.0858  0.1552 -0.5834
14759W        W31233   9.860  12.015  10.954  0.0948 -0.3259 -0.2391
14760W        W31234   5.980   1.951  13.260 -0.4318 -0.2596  0.0407
14761W        W31235  16.578  15.945   5.538  0.2430  0.2064 -0.1117
14762W        W31236  11.916   9.166  14.483 -0.2131  0.4420 -0.1333
14763W        W31237   1.344   2.916   2.772  0.0181  0.3617  0.2538
14764W        W31238  14.853   8.278  14.435  0.0511  0.2846 -0.2971
14765W        W31239  15.788  11.457  14.403  0.0611 -0.0411  0.1900
14766W        W31240  13.906   6.582   1.426  0.0427 -0.1173  0.0947
14767W        W31241   9.876   4.806  12.263 -0.0926  0.0685 -0.1979
14768W        W31242  11.999  10.064  14.948 -0.1314 -0.2081 -0.0270
14769W        W31243  12.150  10.553  12.561 -0.1444 -0.0508 -0.2120
14770W        W31244  15.538  10.651  14.731  0.0563 -0.2288 -0.0969
14771W        W31245   6.595  14.323  16.168  0.0579  0.0812 -0.0539
14772W        W31246  17.382   8.669  14.873  0.1322  0.0783  0.4080
14773W        W31247  12.426   1.819   2.031  0.2565  0.2587 -0.0322
14774W        W31248   6.556   7.381   4.537 -0.0941 -0.2214  0.1842
14775W        W31249  16.755   4.851  11.961  0.1142 -0.0586 -0.3173
14776W        W31250   7.162   7.943   4.195  0.3242  0.4077  0.1099
14777W        W31251   4.227  10.948  12.627 -0.1177 -0.3388  0.3431
14778W        W31252  11.192  11.524  11.827  0.4389 -0.1465  0.0691
14779W        W31253   3.475  17.395   5.290 -0.1062  0.1200 -0.2775
14780W        W31254   9.480   1.254  14.853  0.1995  0.2218 -0.0214
14781W        W31255   3.967   3.553   4.158  0.1990 -0.1395  0.1088
14782W        W31256  10.110  17.612  13.517  0.0565 -0.0587  0.3375
14783W        W31257  15.848   4.424   5.034 -0.0087  0.2300  0.0406
14784W        W31258   5.527  13.709  16.579 -0.1375  0.0412  0.0013
14785W        W31259  10.065  17.195  14.101 -0.0117  0.0393  0.0279
14786W        W31260   1.373   0.241   0.662 -0.2106  0.0023 -0.2200
14787W        W31261   7.128   2.522  16.514 -0.2193 -0.0892 -0.2100
14788W        W31262   4.813  11.074   2.917  0.0316  0.2623 -0.2382
14789W        W31263   3.604  12.469  15.244  0.0084 -0.4717  0.0269
14790W        W31264   7.748  16.173  15.853  0.1587 -0.1912  0.1767
14791W        W31265  12.495  16.593   2.929 -0.1752  0.0713  0.1001
14792W        W31266  10.947   3.799  13.440 -0.0539 -0.0571  0.0181
14793W        W31267   2.731   3.792   4.461 -0.1101 -0.3500 -0.2496
14794W        W31268   5.255   2.135   2.596 -0.1216 -0.4790 -0.1076
14795W        W31269   3.610  17.559   1.587 -0.1028 -0.2311 -0.0774
14796W        W31270  12.116  14.371  14.570  0.1537 -0.0665 -0.0671
14797W        W31271   1.498   6.721   0.815 -0.0403 -0.2898  0.1031
14798W        W31272  12.463  16.663  11.472  0.1712  0.0703 -0.0779
14799W        W31273  10.925  17.882   3.102  0.0580 -0.4494  0.0666
14800W        W31274  15.705  13.767   3.167  0.0543  0.3934  0.3188
14801W        W31275  13.126   6.509  12.563  0.2450  0.0557 -0.0420
14802W        W31276   2.605  15.381  14.497 -0.0273 -0.1442 -0.0645
14803W        W31277   7.585   9.962   3.472  0.0761  0.2284  0.2731
14804W        W31278   3.246  15.103   5.496  0.2249 -0.2539  0.3040
14805W        W31279  16.289   9.370   5.389  0.1209 -0.4042  0.1661
14806W        W31280   5.793   3.282  11.730  0.1179  0.1322  0.1498
14807W        W31281  14.569   1.958   4.896  0.0612  0.0069  0.0383
14808W        W31282  10.803   6.551   0.035  0.0490  0.0575  0.1654
14809W        W31283   8.500   1.611   1.704 -0.3058  0.1098 -0.0873
14810W        W31284  17.769   2.006  14.870  0.1599  0.1658 -0.0159
14811W        W31285  14.300  13.351  15.983  0.1353 -0.3568 -0.2712
14812W        W31286   1.759  15.760   3.264  0.3043 -0.1635  0.1534
14813W        W31287  12.872   9.815  15.783 -0.1392 -0.1349 -0.3527
14814W        W31288  14.130  12.892  16.127 -0.0478  0.1131 -0.1276
14815W        W31289   7.652   6.018  13.495  0.0804 -0.1588 -0.0193
14816W        W31290   6.906   5.705   0.774 -0.0877  0.0022  0.1505
14817W        W31291  16.445   4.237  15.625 -0.2609  0.0285  0.0565
14818W        W31292  13.547  16.967   0.420 -0.0161  0.1761 -0.0275
14819W        W31293   6.323  11.602  15.304  0.0543 -0.0542 -0.0030
14820W        W31294  16.693   1.418   1.808 -0.1626  0.1232  0.0611
14821W        W31295  17.119  15.034  15.171  0.1836  0.3397 -0.2448
14822W        W31296  10.229   6.495   3.639 -0.0862 -0.1203 -0.1624
14823W        W31297   6.869   5.707  14.166  0.0873 -0.1045 -0.1659
14824W        W31298   7.636  17.262   2.077 -0.0435 -0.2328  0.3062
14825W        W31299   0.358  15.351   2.914  0.1378  0.1141  0.1270
14826W        W31300   7.309  11.921   5.145  0.4129  0.3053  0.0204
14827W        W31301   6.771  17.750   0.397 -0.0099 -0.4049  0.1267
14828W        W31302   6.332  13.135  13.009 -0.0683 -0.0148  0.3821
14829W        W31303  11.447  15.660  16.034 -0.0685 -0.1642 -0.0437
14830W        W31304   6.261  14.096  13.434 -0.0535 -0.2046  0.4633
14831W        W31305   7.817  13.591   4.061 -0.1172  0.3426 -0.1116
14832W        W31306  17.870  13.117  11.733 -0.4152  0.3840 -0.0750
14833W        W31307   3.300   4.028   2.818  0.0064 -0.1620 -0.0050
14834W        W31308   8.100   6.768  11.997 -0.0975 -0.1366  0.1783
14835W        W31309  13.427   3.893  16.274 -0.2171 -0.2882  0.2568
14836W        W31310   8.808  10.464   2.225 -0.0340 -0.2006  0.1386
14837W        W31311   1.548  15.582  15.986 -0.3348  0.0825  0.1517
14838W        W31312   6.446  11.306  14.321 -0.0992 -0.1800  0.0714
14839W        W31313   8.074   6.278  13.502 -0.1937 -0.2356  0.1984
14840W        W31314  11.647   6.593   1.907  0.0887 -0.3292 -0.0238
14841W        W31315   3.656   5.627  15.607  0.0219  0.1493 -0.0887
14842W        W31316  17.374   4.173  15.403  0.0153 -0.2577  0.2052
14843W        W31317  16.264   5.079  13.791  0.1271  0.0789  0.2236
14844W        W31318   6.943   3.160  14.886 -0.0223 -0.1231  0.1683
14845W        W31319   8.086   1.097  13.767  0.0364 -0.3243 -0.2549
14846W        W31320   3.610   4.621   5.175  0.1674  0.2644 -0.2482
14847W        W31321   8.244  10.839  15.793  0.1439 -0.3238  0.1327
14848W        W31322  10.362   6.520   1.092  0.1674 -0.2223  0.0858
14849W        W31323   7.820   4.813   0.531  0.0077  0.2918 -0.1245
14850W        W31324   7.511  15.303  14.757 -0.1958  0.1028  0.2152
14851W        W31325   2.648  10.923   1.141 -0.3502  0.2422  0.0351
14852W        W31326  12.096   3.449   2.256 -0.0499  0.2115  0.0671
14853W        W31327  17.430   8.419  15.879 -0.1693 -0.3346  0.0209
14854W        W31328   7.763   7.941  12.459 -0.0403  0.1230 -0.3364
14855W        W31329   0.773   3.121  13.230  0.0869  0.1929  0.2242
14856W        W31330  11.852  15.041   4.390  0.3447 -0.1359  0.1320
14857W        W31331  14.499   5.896   2.570  0.2876 -0.1845 -0.0721
14858W        W31332  16.493  13.346   3.735  0.0114 -0.3163  0.0305
14859W        W31333   7.664   8.056   1.736 -0.1553  0.0944  0.0208
14860W        W31334   8.426  15.731   5.914  0.0401 -0.1052 -0.1749
14861W        W31335   7.820   9.056   1.062 -0.0840  0.0610  0.0956
14862W        W31336   8.706   7.871   4.343 -0.0484  0.1441  0.1025
14863W        W31337  16.848   3.838  11.817 -0.0746  0.0473 -0.0680
14864W        W31338   7.603   2.715   4.100 -0.0207 -0.0108  0.0428
14865W        W31339  11.367   1.303  11.840  0.1457  0.1378  0.0487
14866W        W31340   6.311   3.534  13.447  0.0491 -0.2181  0.0386
14867W        W31341  16.159  16.943   3.520 -0.2777  0.0005 -0.1321
14868W        W31342   3.124  10.603   0.323 -0.1569  0.1010  0.1657
14869W        W31343  10.940   4.752   1.497  0.0663 -0.3894 -0.0149
14870W        W31344   3.408  17.368  16.032  0.1393  0.0321  0.2145
14871W        W31345   8.756  14.068  16.440 -0.0951  0.1488  0.0949
14872W        W31346  12.029  11.656   4.935  0.1639 -0.0835 -0.0740
14873W        W31347   5.192  16.244   0.102  0.1364 -0.3324  0.0173
14874W        W31348   7.777   8.679   4.292  0.1220 -0.0813 -0.2494
14875W        W31349  11.290   4.410  16.280 -0.0762 -0.0256  0.1374
14876W        W31350  11.773  17.184  13.078 -0.0467 -0.0587  0.2305
14877W        W31351  10.803   2.064  11.704  0.3058 -0.0702 -0.2632
14878W        W31352   8.919   8.935   1.848  0.1019  0.0331  0.3894
14879W        W31353  14.019   6.840   3.802  0.0639  0.1808 -0.0276
14880W        W31354  13.688  12.524   3.554  0.1060 -0.4286 -0.4034
14881W        W31355   5.741  11.492   3.374  0.0169 -0.0817 -0.1160
14882W        W31356  12.174  17.139  13.401 -0.0952 -0.1606  0.1895
14883W        W31357   1.751  13.836   2.637  0.0107  0.1308 -0.2817
14884W        W31358   6.095  17.775   1.561 -0.1275 -0.0866 -0.0837
14885W        W31359  12.351   3.139  15.059 -0.1201  0.0847  0.1580
14886W        W31360  14.838   5.332   2.733 -0.2392 -0.0551  0.0186
14887W        W31361   8.120   0.039   2.442 -0.3104 -0.1199  0.1184
14888W        W31362   2.285   1.776  12.603  0.2004  0.1139  0.4566
14889W        W31363   2.240  15.718  12.543 -0.0684 -0.2313 -0.1629
14890W        W31364  10.578  10.598  13.663 -0.2845  0.0685 -0.2497
14891W        W31365  13.420  17.117   2.033 -0.0787 -0.1646 -0.0930
14892W        W31366  15.278  10.316   3.920 -0.2617  0.0616 -0.1363
14893W        W31367  14.326   4.189  11.892 -0.1098 -0.1774 -0.0098
14894W        W31368   8.941   6.468  14.682 -0.3122 -0.0604 -0.0815
14895W        W31369  14.398  10.413   3.655  0.1048 -0.1269  0.1339
14896W        W31370  17.098  10.276   1.401  0.0695 -0.1799 -0.1544
14897W        W31371  15.857  11.421   3.055 -0.4661 -0.3062  0.0538
14898W        W31372   3.944   7.942  12.801 -0.4181 -0.0020 -0.1427
14899W        W31373   1.993  10.573   1.030 -0.1464 -0.0303 -0.1594
14900W        W31374  11.170   5.040  13.444 -0.1548 -0.1408  0.0710
14901W        W31375   5.535  10.958   0.160  0.2764 -0.1147  0.0302
14902W        W31376   1.053   5.262  13.408 -0.1083  0.2247 -0.0392
14903W        W31377  10.914   2.319  12.555  0.3181  0.3573  0.1603
14904W        W31378  15.588   1.088  16.193  0.0921 -0.0384  0.0753
14905W        W31379  11.240  13.679   0.256  0.0785 -0.2110 -0.3247
14906W        W31380  17.496  13.632   4.710  0.0399  0.1555 -0.2557
14907W        W31381  14.355   4.764   2.228 -0.2919 -0.1146 -0.2336
14908W        W31382   3.363  11.667   4.458  0.2378 -0.1619 -0.0514
14909W        W31383  10.563  12.749  15.369 -0.0516 -0.2620 -0.0604
14910W        W31384  10.576   2.424   3.869  0.2212  0.1034 -0.0264
14911W        W31385   6.275   7.673   4.226  0.1300  0.1805 -0.3912
14912W        W31386  15.785   0.394   2.113  0.4948 -0.0785 -0.0741
14913W        W31387  15.693   7.436  12.392 -0.0138  0.1228  0.0536
14914W        W31388  12.259   8.159   4.883 -0.1910  0.0296 -0.0193
14915W        W31389  10.562  13.653   3.096 -0.0054  0.1159  0.1275
14916W        W31390  11.913  14.829   5.951 -0.0896 -0.0752  0.0895
14917W        W31391   3.085   6.028   0.609 -0.3617 -0.0998  0.0587
14918W        W31392  10.178   8.090   4.601 -0.2220  0.0844 -0.1601
14919W        W31393  11.222   6.341  16.113  0.0140 -0.2626 -0.0009
14920W        W31394   5.359   9.925   0.647 -0.0670  0.2019 -0.0324
14921W        W31395   6.900   8.721  12.534 -0.1430  0.0377 -0.3950
14922W        W31396   9.035  13.445   2.660  0.1376 -0.2741 -0.2752
14923W        W31397  10.130  11.302  12.814 -0.1202 -0.0035 -0.0873
14924W        W31398   1.133  12.682  14.636  0.3121 -0.2041 -0.3472
14925W        W31399  15.230   5.683  12.458  0.1085 -0.1988  0.0477
14926W        W31400  14.864   2.393  13.077 -0.3074 -0.1483 -0.1464
14927W        W31401   1.180   0.112   3.997 -0.1247  0.1237  0.1300
14928W        W31402   8.605  15.896  15.157  0.1657  0.1395  0.0072
14929W        W31403   5.312   3.205   4.319 -0.0008  0.0374  0.1911
14930W        W31404  17.469  13.694  16.304 -0.2202  0.0416 -0.1423
14931W        W31405  14.975   9.183   4.730  0.1049  0.0502  0.1410
14932W        W31406  11.481   4.846  14.020  0.2287 -0.0781 -0.0679
14933W        W31407  10.451   5.080   0.882 -0.1415 -0.1787  0.2761
14934W        W31408   1.637  13.054   2.459  0.0734 -0.0143  0.5738
14935W        W31409   7.247   4.466  14.189 -0.1902 -0.4936  0.0293
14936W        W31410   8.575  13.523  12.122 -0.1899 -0.1643  0.0603
14937W        W31411  17.463   2.786  14.400 -0.2732 -0.0235  0.1350
14938W        W31412  10.841  13.978   3.330  0.0782  0.1880 -0.1896
14939W        W31413  13.873   3.517   0.910  0.0925  0.0407 -0.3081
14940W        W31414  14.159   5.638   3.577  0.0143 -0.2631 -0.2092
14941W        W31415   1.808  11.821   3.302 -0.1447 -0.2626  0.3533
14942W        W31416  15.685   5.625   1.166 -0.3491  0.1662 -0.1526
14943W        W31417  14.930   6.118   2.394  0.2541 -0.4170  0.0404
14944W        W31418  13.509   6.680   3.527 -0.1990  0.2497 -0.1967
14945W        W31419  15.326   8.598  13.217  0.1447  0.0459  0.0188
14946W        W31420   3.438   9.105   1.849  0.0614  0.1840  0.0083
14947W        W31421   4.280   8.680  14.078 -0.1817  0.0249  0.2056
14948W        W31422   4.144  15.126   5.113  0.1126  0.0603 -0.0530
14949W        W31423   8.161   1.084   4.503  0.0202 -0.0959 -0.3070
14950W        W31424   6.581   7.213  12.542 -0.2880  0.1511  0.0099
14951W        W31425   4.071   4.951  16.724  0.2953  0.0429 -0.1971
14952W        W31426   4.929  11.641   0.246 -0.0709 -0.0852 -0.1798
14953W        W31427   3.247  17.251  11.732 -0.1201 -0.2850 -0.2941
14954W        W31428  17.967  10.839   5.103 -0.2373  0.0813 -0.0670
14955W        W31429   6.018   1.340   0.475  0.3454 -0.0934  0.1995
14956W        W31430   5.980  11.835   5.617 -0.0179 -0.0286  0.0001
14957W        W31431   8.044   5.353   4.740 -0.2765 -0.1231 -0.0421
14958W        W31432   8.200  15.939  16.050  0.2761  0.2102  0.1426
14959W        W31433  16.583   1.747   3.320  0.0998 -0.2286  0.0280
14960W        W31434  13.957   2.705  12.838  0.1670 -0.1190  0.2425
14961W        W31435   0.531  13.424  14.341 -0.0700 -0.2965 -0.0430
14962W        W31436   4.898   0.589  15.501  0.3430  0.1002  0.0427
14963W        W31437  13.732  10.397  13.731  0.3024 -0.1018 -0.3523
14964W        W31438  15.728   5.232   3.234  0.4768 -0.1934 -0.0128
14965W        W31439   2.052  15.034   2.097  0.0329  0.1646 -0.1114
14966W        W31440   6.355  13.219   4.359  0.2620 -0.3112 -0.0633
14967W        W31441   0.183   7.434  15.188  0.1517  0.1038  0.1307
14968W        W31442  14.363   9.004   5.829 -0.1669  0.0314 -0.0372
14969W        W31443   0.705  14.660   2.432  0.0007 -0.0757  0.0372
14970W        W31444   0.968  12.175   0.462 -0.2416 -0.2820 -0.1851
14971W        W31445  10.213  17.520   5.574 -0.0468 -0.0424  0.0264
14972W        W31446  10.185  10.516  12.634 -0.0352 -0.0722  0.1418
14973W        W31447   4.049   2.885   0.990  0.1502 -0.0499  0.1094
14974W        W31448  11.391   0.068   1.218 -0.1830 -0.2064 -0.1877
14975W        W31449   1.626   3.287   3.577  0.0399  0.1815 -0.0163
14976W        W31450   0.592   7.623  12.075 -0.0255  0.2880 -0.1284
14977W        W31451   0.629   6.751   3.771  0.3546 -0.1191 -0.1486
14978W        W31452   3.861   3.418  12.920  0.2892 -0.0384  0.0576
14979W        W31453   2.769   8.766  12.252 -0.1987 -0.0597 -0.0941
14980W        W31454  10.324   6.580  15.143  0.0408 -0.1407 -0.2925
14981W        W31455  16.653  10.606   4.370 -0.0541  0.1066 -0.1099
14982W        W31456  17.616   9.085   4.314 -0.0735  0.1431  0.1942
14983W        W31457   8.301   3.735   0.046  0.0379 -0.2368  0.3976
14984W        W31458   3.404   9.960   4.034 -0.0353  0.0889  0.0783
14985W        W31459  15.814  12.117   3.840 -0.0048 -0.0172 -0.2502
14986W        W31460   0.820  13.055  14.439  0.2338 -0.0255 -0.1773
14987W        W31461  14.700  13.260  15.783  0.2659  0.2708  0.0315
14988W        W31462   1.712   5.530  12.774 -0.1788  0.0032 -0.2583
14989W        W31463  13.799  15.607   5.084 -0.0623  0.1123 -0.2714
14990W        W31464   0.077  14.739  13.429  0.1252  0.0161  0.2648
14991W        W31465  12.215   7.998   0.648  0.0535  0.0261 -0.1695
14992W        W31466   6.149  10.905  14.313 -0.1566  0.0702 -0.5160
14993W        W31467   8.959   2.050   0.404 -0.0291  0.2337 -0.4307
14994W        W31468  14.185   3.022  15.803  0.4449  0.1227  0.0365
14995W        W31469   5.128   3.946   6.243  0.0136  0.3001 -0.1533
14996W        W31470   0.625   0.058  13.939 -0.2547  0.1604  0.0048
14997W        W31471   5.934  16.705   5.784 -0.3623  0.2223  0.3014
14998W        W31472  16.629  12.038  13.856  0.1901 -0.2258  0.2373
14999W        W31473   2.881   1.025  11.910 -0.1482 -0.0353 -0.1957
15000W        W31474   3.838   4.084   3.810  0.1106 -0.1010  0.1395
15001W        W31475  13.188   0.507   0.578 -0.0419 -0.1439  0.2146
15002W        W31476   1.495   4.303   4.324 -0.0814  0.0363  0.1060
15003W        W31477   1.068  10.608   2.157 -0.0464 -0.2497 -0.1089
15004W        W31478  12.554   8.541  15.817  0.7967 -0.0789  0.0144
15005W        W31479   0.366  11.518   4.665  0.0266 -0.0996  0.0019
15006W        W31480  14.332   2.357  14.047 -0.2065 -0.1541 -0.1215
15007W        W31481   6.610   7.984   5.667 -0.0307 -0.0045 -0.0720
15008W        W31482   0.140   7.106  13.851 -0.0421 -0.2078 -0.0546
15009W        W31483  12.453  12.485  14.026  0.1726 -0.2597  0.4836
15010W        W31484   5.202  12.517   2.056  0.2791 -0.2300  0.0888
15011W        W31485   9.643   1.829   3.425  0.0153 -0.0689  0.0875
15012W        W31486   9.466  14.387   4.675  0.1591 -0.1711  0.0522
15013W        W31487  13.053   8.626  13.571  0.2543 -0.1488 -0.0091
15014W        W31488  17.314   9.738   0.892 -0.0069  0.0893  0.0489
15015W        W31489   3.344  11.665  11.257 -0.4107  0.0306  0.3852
15016W        W31490   6.244   9.300   4.012  0.2060 -0.1393  0.3605
15017W        W31491  12.939   2.564   1.626 -0.0585 -0.1405 -0.0907
15018W        W31492   6.266   6.952  14.501 -0.1852  0.1144  0.3098
15019W        W31493  12.275  11.082  15.447  0.0037  0.0583  0.1388
15020W        W31494  14.776   0.175   3.945  0.0806 -0.0190 -0.0747
15021W        W31495   0.865  14.242   4.887 -0.0501 -0.0680 -0.1518
15022W        W31496  16.969   7.130  12.238  0.1217  0.1601  0.3233
15023W        W31497  17.079  11.050   2.049  0.0813  0.3006 -0.0253
15024W        W31498   4.313   6.678   3.349  0.1288 -0.1195 -0.0896
15025W        W31499   4.639  15.204  12.778  0.0308  0.0422 -0.1930
15026W        W31500   0.225   0.912  11.027  0.1230  0.0153  0.1713
15027W        W31501   2.147   7.378   3.729  0.2034  0.0333 -0.2403
15028W        W31502   8.082  12.861   1.757  0.1146 -0.4072 -0.0732
15029W        W31503   3.923  13.585  16.528 -0.4128  0.0949 -0.0967
15030W        W31504   4.948  14.437   0.250 -0.0883 -0.1962 -0.0828
15031W        W31505   0.217   3.792  11.652 -0.1235  0.2130  0.0368
15032W        W31506   7.653   2.111  11.523 -0.0828 -0.2708 -0.1282
15033W        W31507   9.365   0.320  13.963  0.0349 -0.1526  0.1209
15034W        W31508   3.881  16.374   0.235 -0.0591 -0.1335 -0.1639
15035W        W31509   6.481   6.809   3.753 -0.3039  0.0622 -0.1497
15036W        W31510  15.008   6.081   5.013 -0.3816 -0.0801 -0.1916
15037W        W31511   2.879   2.217  16.463  0.0382 -0.1854 -0.0480
15038W        W31512   3.151   3.229  12.619 -0.1240  0.2642  0.0171
15039W        W31513   1.784  12.662  16.466 -0.1788 -0.2430  0.0230
15040W        W31514   6.363   4.429   2.633 -0.1607 -0.2269 -0.3131
15041W        W31515  11.545   3.351  15.094  0.1040  0.0692 -0.0460
15042W        W31516  16.898  12.099  14.975  0.1176 -0.0748  0.0365
15043W        W31517   6.855   5.379   3.509 -0.3604  0.1988 -0.0595
15044W        W31518   1.432  12.251   1.549  0.0545 -0.2300  0.2133
15045W        W31519  14.074   2.464  15.039 -0.2499  0.0851  0.1996
15046W        W31520   2.942  10.308   4.930  0.1418 -0.2453  0.0630
15047W        W31521   1.000   1.758   1.670  0.0131 -0.2241 -0.0348
15048W        W31522  16.360   9.514   1.292 -0.0967  0.0148 -0.1161
15049W        W31523   5.799   2.352  12.577 -0.2525  0.0763  0.3678
15050W        W31524   3.804   9.384  13.954  0.1499 -0.1076 -0.4042
15051W        W31525   4.643  10.234  14.774  0.4719  0.0692  0.2414
15052W        W31526  15.976  10.376  12.616  0.0711 -0.3863 -0.0571
15053W        W31527   3.968  14.353   2.123 -0.2850 -0.1036  0.0424
15054W        W31528   0.370   1.334  14.948 -0.0272 -0.0194  0.1871
15055W        W31529   6.622  17.408   2.915 -0.1080 -0.0464  0.2507
15056W        W31530   0.661   3.302  13.727 -0.1890 -0.1737  0.0044
15057W        W31531   0.000  16.285  15.590  0.3472 -0.4281 -0.1386
15058W        W31532   1.508  13.506  11.051  0.0685  0.1028 -0.4219
15059W        W31533   1.722  16.474   0.377 -0.2491 -0.0192 -0.0208
15060W        W31534   8.153   0.596   5.575  0.1565  0.2657  0.0023
15061W        W31535   0.016  14.051  16.395 -0.2144  0.2064  0.0430
15062W        W31536  11.992   4.813  16.123  0.1900 -0.2510 -0.0738
15063W        W31537  10.244   8.123   3.371 -0.2878 -0.2409  0.2066
15064W        W31538  13.372  11.709   4.047 -0.1673 -0.1746  0.2636
15065W        W31539  14.741   6.970   4.191 -0.1288 -0.3318  0.0032
15066W        W31540  16.786  14.789  14.232 -0.2392 -0.1400 -0.1440
15067W        W31541  12.969  13.235  16.348  0.1269 -0.0485  0.0401
15068W        W31542   7.251   0.405   0.599  0.1409  0.0240 -0.1903
15069W        W31543   5.239   8.167  12.975  0.0688 -0.2451 -0.1908
15070W        W31544  16.866   1.019  14.009  0.0830  0.2331 -0.1442
15071W        W31545  12.075   9.647   5.425  0.0496  0.1687 -0.1573
15072W        W31546   3.785  12.891   5.285  0.1790 -0.0018 -0.0317
15073W        W31547   6.302   0.584   0.666 -0.0014  0.1405 -0.3486
15074W        W31548   7.059  13.337  16.232  0.1139  0.1721 -0.3436
15075W        W31549   2.291  17.233  11.366  0.1332 -0.1149 -0.2975
15076W        W31550   9.194  17.835  14.578  0.1846  0.2087 -0.4239
15077W        W31551  14.577   7.198   5.249  0.3237  0.1319 -0.1339
15078W        W31552  16.858   3.349  12.553 -0.0044  0.1447  0.1897
15079W        W31553  13.150  12.550   2.630 -0.0402 -0.1063  0.1089
15080W        W31554   4.801   8.363  13.162  0.2480  0.2740  0.0425
15081W        W31555   3.412  12.149   3.307  0.0551  0.1874  0.1273
15082W        W31556  15.494  13.179  16.518 -0.1706 -0.1864 -0.1290
15083W        W31557  17.419   2.324  16.762  0.1467  0.0522 -0.0450
15084W        W31558  15.240  12.026  11.483  0.3061  0.2384  0.4417
15085W        W31559   3.105  13.541  12.531  0.0450  0.0569 -0.2028
15086W        W31560   4.053  15.372  16.568  0.0334  0.1587  0.0550
15087W        W31561  17.211   7.320   2.868  0.1647  0.5539  0.0125
15088W        W31562  12.609   1.500  13.851  0.0372 -0.1299  0.1909
15089W        W31563  13.472   4.963   3.455 -0.1416 -0.0487 -0.0287
15090W        W31564  13.923  16.735   5.431 -0.0317  0.2563  0.1540
15091W        W31565  13.420   2.484   3.300  0.1238  0.1231  0.0792
15092W        W31566  15.198  17.939   5.369  0.2057 -0.0370  0.2565
15093W        W31567  16.779   2.973   6.787 -0.1483 -0.3321  0.1227
15094W        W31568  10.573  12.420   0.077 -0.2403 -0.0299 -0.1669
15095W        W31569  13.100  16.960  13.636 -0.1355  0.3174  0.0150
15096W        W31570  16.610   0.934  13.208 -0.5647 -0.1607 -0.1959
15097W        W31571  16.729  15.066  15.592 -0.0708 -0.1514  0.0496
15098W        W31572   7.701  10.586   5.384  0.0780  0.1026 -0.0127
15099W        W31573   4.170   1.906   4.377  0.4233  0.0574  0.2235
15100W        W31574   2.357   9.178   1.381 -0.0065  0.0599  0.2269
15101W        W31575  11.727   6.581  15.821 -0.0954  0.1410  0.0481
15102W        W31576  12.410   4.444  14.189  0.0867 -0.1688 -0.2529
15103W        W31577  12.731   1.180  13.506  0.1373  0.2672 -0.1632
15104W        W31578   5.121  17.935  11.896  0.0695  0.2910  0.2665
15105W        W31579   3.233   5.820   1.899 -0.3802 -0.2318 -0.1025
15106W        W31580   3.680  12.093  11.388  0.2026  0.1355  0.1304
15107W        W31581   7.662   9.250   4.198  0.2980  0.1342 -0.0237
15108W        W31582   1.875   8.292   3.118 -0.2119  0.0224 -0.1329
15109W        W31583  10.501   4.644  15.663 -0.0012  0.1402  0.2351
15110W        W31584   3.791  13.226  11.852  0.0030 -0.1483  0.1867
15111W        W31585  15.528   1.668  12.444  0.0591 -0.2625 -0.2187
15112W        W31586   5.144   7.078  13.080 -0.2663  0.3333 -0.0192
15113W        W31587  15.889   4.129  13.235  0.0966  0.0814  0.0074
15114W        W31588   8.557  13.178   2.007  0.1757 -0.1210 -0.2126
15115W        W31589   2.645  16.469   3.036  0.0311 -0.1853  0.2211
15116W        W31590   5.194   5.247   3.461  0.1739 -0.2886  0.0524
15117W        W31591   6.711   4.415   3.899 -0.0835  0.1496 -0.1705
15118W        W31592  17.611   3.810   2.422  0.2379  0.1671 -0.2106
15119W        W31593  10.547  14.419  11.578 -0.2273  0.0283 -0.4057
15120W        W31594   2.002  11.341  15.835  0.2093  0.0289 -0.3691
15121W        W31595  15.741   7.001  16.204 -0.0223  0.1546 -0.0706
15122W        W31596   7.083   9.479  13.686  0.0835  0.1101 -0.0611
15123W        W31597  10.339   9.415   0.483 -0.0502 -0.1866 -0.1881
15124W        W31598   1.617  11.609   2.817 -0.6616 -0.0648 -0.0399
15125W        W31599   6.569  12.986  14.811 -0.0205  0.1921 -0.0245
15126W        W31600  12.175   4.448  14.985 -0.0094 -0.2161  0.0149
15127W        W31601  16.096  11.255  16.059 -0.0045 -0.3085  0.0196
15128W        W31602  12.239  16.440  15.327  0.1072  0.0965 -0.1695
15129W        W31603   8.937   5.882   5.334  0.0508 -0.2051 -0.3351
15130W        W31604   1.743   9.979  14.394 -0.0770 -0.1381 -0.2860
15131W        W31605   2.843   9.588   0.693 -0.0285 -0.4093  0.0782
15132W        W31606  10.117   1.749   3.914 -0.0462  0.0428 -0.3149
15133W        W31607  16.035   8.715   2.282  0.3641  0.0455  0.0829
15134W        W31608  13.622  17.503   0.390 -0.1630  0.2527 -0.1826
15135W        W31609   5.859  16.456  12.835  0.1173 -0.1437  0.2010
15136W        W31610   6.490  15.530   0.497  0.4422  0.2192  0.0429
15137W        W31611   5.938   4.297  16.743 -0.1404  0.4902 -0.0672
15138W        W31612  13.677  12.812   1.268  0.0718  0.2030  0.1762
15139W        W31613  15.045   7.919   0.987  0.1100  0.0569  0.0311
15140W        W31614   9.061   8.580  16.254  0.0055 -0.0890 -0.0228
15141W        W31615   8.200   1.014  10.939  0.2709  0.0703  0.2148
15142W        W31616  14.201  17.557  12.717  0.0441  0.2093 -0.2623
15143W        W31617  14.155   8.047   4.219  0.0339  0.2881  0.0264
15144W        W31618  13.624  14.961   4.526  0.0239  0.1642 -0.1042
15145W        W31619  14.552   8.587   5.957  0.2286 -0.0282  0.1284
15146W        W31620  15.347  14.344  15.375 -0.1315 -0.2458 -0.2232
15147W        W31621   5.548   3.417   5.318  0.0523  0.0431 -0.0522
15148W        W31622  16.941   7.988   5.657 -0.0520 -0.0533 -0.3586
15149W        W31623  10.974  11.204  15.350 -0.0662  0.1596  0.0917
15150W        W31624   7.324  10.748  13.421  0.0008 -0.4815 -0.0885
15151W        W31625  14.520   9.327   4.510  0.0459 -0.2183 -0.4512
15152W        W31626   1.044   1.460  15.466  0.1556 -0.2078  0.0291
15153W        W31627  10.927   5.219   3.531 -0.0684 -0.1636 -0.0634
15154W        W31628  11.464  12.890   2.931  0.3277 -0.2494  0.3239
15155W        W31629   2.556  14.682   3.836  0.1450 -0.0564  0.1532
15156W        W31630  16.738   4.123   1.118  0.0320 -0.1064  0.2045
15157W        W31631  17.694  16.266  13.464 -0.1162 -0.4498 -0.0764
15158W        W31632   4.843  17.817   2.897 -0.0023 -0.1180  0.2118
15159W        W31633  11.497  17.210  15.902 -0.2281 -0.1090  0.1831
15160W        W31634  16.211  11.066   4.675  0.1177 -0.4225 -0.0584
15161W        W31635   7.268   0.295   1.670 -0.0588 -0.0668  0.1543
15162W        W31636   2.703  16.988   3.608  0.1471 -0.1341  0.4277
15163W        W31637  15.924   9.052  11.700 -0.1796 -0.0665  0.1571
15164W        W31638  16.791  12.539   3.635 -0.0990  0.1539 -0.0429
15165W        W31639  12.991   8.854   2.599 -0.2688  0.0783  0.0514
15166W        W31640   6.525   6.273  14.953 -0.0356  0.2050 -0.2812
15167W        W31641   3.369   0.906  11.927 -0.3308 -0.3144 -0.1541
15168W        W31642   7.918  13.940   3.675 -0.3227 -0.0360 -0.3280
15169W        W31643   4.761  12.618  12.395 -0.2432  0.2515 -0.1785
15170W        W31644   8.085   7.413  14.191  0.0580  0.2035  0.0004
15171W        W31645   1.843   3.987  13.680  0.3911 -0.2026 -0.1850
15172W        W31646   1.378  10.290   4.458  0.0530 -0.1284 -0.1891
15173W        W31647   9.264   1.240  15.696  0.6350 -0.2741  0.1462
15174W        W31648   1.893   0.478   5.829 -0.2143 -0.1383 -0.2543
15175W        W31649   5.948  17.265  16.131  0.1190  0.2030  0.1261
15176W        W31650  17.329   5.482  16.392  0.1916 -0.1318 -0.0328
15177W        W31651   5.677  13.740  13.038 -0.0982 -0.1397  0.2210
15178W        W31652   7.200  15.503  13.491 -0.2735 -0.1952 -0.1303
15179W        W31653  13.010   7.255   1.741 -0.0227  0.2509 -0.0454
15180W        W31654  11.076   3.236  15.210  0.1815 -0.4757  0.0795
15181W        W31655   8.453   7.801   2.985 -0.1231  0.1067  0.1371
15182W        W31656   5.891  11.382  15.107  0.3073  0.2563 -0.1113
15183W        W31657   7.819  11.788   4.076 -0.1544 -0.0700  0.2638
15184W        W31658   3.786   6.452  11.438  0.1335 -0.0528  0.0322
15185W        W31659   5.314   7.600   4.528  0.1858  0.0760 -0.0048
15186W        W31660   7.074  17.813   5.865 -0.0329  0.0777 -0.0306
15187W        W31661  16.476   5.920  13.924 -0.0207 -0.0604  0.0654
15188W        W31662   2.663  13.742   4.399  0.0298  0.3567 -0.2767
15189W        W31663   2.556   5.621  15.033  0.1703  0.3840 -0.1116
15190W        W31664   8.843   6.575   3.081  0.0247  0.0124 -0.1452
15191W        W31665  11.498  10.563   1.240 -0.2360  0.0766 -0.0606
15192W        W31666  10.695  13.042   3.400 -0.2057  0.0339  0.2316
15193W        W31667  17.551   6.579   0.226  0.2107  0.1473  0.1027
15194W        W31668  13.834  13.559  12.859  0.0768  0.0575 -0.0370
15195W        W31669   3.110   8.476  14.012 -0.0120  0.0402  0.0454
15196W        W31670   2.726  11.954   4.335  0.0263  0.1747 -0.0571
15197W        W31671  13.601   5.485  13.368  0.0826  0.3215  0.4787
15198W        W31672  11.768   5.399   1.529 -0.1962 -0.2152  0.4852
15199W        W31673   6.290  13.629   2.976 -0.0390 -0.2543  0.0220
15200W        W31674  16.073   4.586   4.178  0.1284 -0.0998 -0.0180
15201W        W31675  17.816   3.270   1.069 -0.0389  0.2086 -0.3142
15202W        W31676  11.700  11.163  13.182 -0.2962 -0.0309 -0.0350
15203W        W31677  13.583  14.806  13.717  0.0377  0.2455 -0.0237
15204W        W31678  14.981  10.099  12.241  0.1732 -0.3341  0.2064
15205W        W31679   8.907  16.903  14.628  0.0437 -0.4989 -0.1845
15206W        W31680   7.540   1.479   0.391  0.2602 -0.0553 -0.1873
15207W        W31681  11.630   5.567   2.976  0.1079 -0.2547 -0.0651
15208W        W31682   2.546   0.795  12.387  0.1480 -0.1247 -0.0136
15209W        W31683  10.187  10.780  11.688 -0.1746 -0.2134  0.0337
15210W        W31684  14.118  16.515  15.048 -0.1284 -0.1327 -0.3362
15211W        W31685  11.372   0.723  10.456  0.0134  0.0150  0.0389
15212W        W31686   8.959  16.270   5.580  0.1721 -0.0854  0.2438
15213W        W31687   1.819  12.367   0.308 -0.2900  0.1903 -0.1709
15214W        W31688   4.708  17.285  16.736 -0.2782  0.0901 -0.0211
15215W        W31689  17.907  15.230   4.661  0.3677 -0.0614 -0.0783
15216W        W31690   8.362   9.850   4.326 -0.1275  0.0110 -0.1819
15217W        W31691  14.574   3.184   2.457  0.1596  0.2135  0.0744
15218W        W31692   4.668  16.321   3.253 -0.2180  0.0031  0.1269
15219W        W31693  17.356  10.085   5.128  0.1584  0.1882  0.2748
15220W        W31694  11.506   9.328   4.705 -0.4675 -0.1415  0.0545
15221W        W31695   6.178  12.740   3.455 -0.1101  0.0257  0.2005
15222W        W31696   8.345   9.609  14.752 -0.0351 -0.0099  0.1285
15223W        W31697   4.678   4.760  14.419 -0.1010 -0.1863 -0.0952
15224W        W31698   5.535  12.910   1.787 -0.0369  0.0774 -0.1187
15225W        W31699  17.975  15.270  11.729 -0.3078  0.0822 -0.0261
15226W        W31700   0.931   3.855   0.547  0.2980 -0.1771  0.0490
15227W        W31701  14.337   5.169   3.547 -0.0961 -0.0665  0.1318
15228W        W31702  17.970   2.522  14.254  0.1904  0.1133  0.0038
15229W        W31703   7.123   8.922  14.465 -0.3260 -0.0499 -0.2736
15230W        W31704   8.720  15.698   4.428  0.0275 -0.0035 -0.0198
15231W        W31705   7.286  14.762  12.083 -0.0501 -0.1145  0.0029
15232W        W31706   6.308  11.450   4.234 -0.1489  0.1223 -0.4772
15233W        W31707   2.216   0.022  12.053  0.1160 -0.1679  0.5047
15234W        W31708   3.220  16.713  14.652 -0.0584 -0.0341  0.1766
15235W        W31709   7.254   1.466  16.740  0.1942  0.1563 -0.1836
15236W        W31710   4.795   5.391  12.257 -0.0590 -0.0459 -0.1415
15237W        W31711  12.078   1.467  15.533 -0.2142 -0.2936 -0.1784
15238W        W31712  11.265  12.920  11.738  0.0300 -0.4049 -0.0901
15239W        W31713  15.094   2.416   2.570 -0.0906 -0.1974 -0.0053
15240W        W31714   4.338   9.201  14.241  0.1715  0.2036  0.1811
15241W        W31715  12.782  12.758   0.396 -0.1092 -0.0484  0.0376
15242W        W31716   3.297  11.252  12.705  0.1296  0.3578  0.0621
15243W        W31717   5.909   7.551   4.693  0.0034 -0.1983 -0.1235
15244W        W31718  10.423   4.716   4.036  0.0313 -0.1529  0.0089
15245W        W31719  10.178   8.885  13.815  0.0090  0.1564 -0.0649
15246W        W31720  14.484  15.804   4.064  0.3705  0.0476  0.1131
15247W        W31721  13.452  17.861   2.930 -0.1251 -0.1835  0.0735
15248W        W31722  12.607  15.011   3.829  0.1157  0.1315  0.0050
15249W        W31723   5.578   4.655  16.739 -0.0195 -0.0829  0.0521
15250W        W31724   4.408   9.777  15.844 -0.0711  0.0315  0.1218
15251W        W31725   1.268   0.629   3.870 -0.1672 -0.1277 -0.1395
15252W        W31726   5.111  17.578  16.619 -0.2061  0.0437 -0.2124
15253W        W31727  13.531   1.772   5.161  0.0759  0.2105  0.1112
15254W        W31728   5.722   8.749   6.125  0.1741 -0.1670  0.3956
15255W        W31729  14.040  13.644  12.406  0.1473 -0.0626  0.0525
15256W        W31730  15.879   1.022  14.447 -0.0450 -0.3017  0.1553
15257W        W31731  10.149  14.074  15.441 -0.2332  0.2939 -0.1317
15258W        W31732  14.298   3.661   2.695 -0.0476 -0.0154 -0.0114
15259W        W31733  10.555  11.206   2.623  0.3517  0.2716  0.2669
15260W        W31734  13.683  17.729  16.034  0.0544  0.3746  0.1089
15261W        W31735  15.865  14.489   2.683 -0.0280  0.1624  0.1509
15262W        W31736  12.937   8.734  12.427  0.0607 -0.4323 -0.0251
15263W        W31737   8.303   5.800   4.007  0.1054 -0.0283 -0.1408
15264W        W31738  11.113   8.977  13.329  0.0809  0.3111 -0.2118
15265W        W31739   0.818   0.019   2.000 -0.2703 -0.2498 -0.3059
15266W        W31740   7.298  17.273  11.994 -0.1376  0.0937 -0.0582
15267W        W31741   4.852   9.014  15.922  0.1281 -0.2929 -0.1855
15268W        W31742  11.792  14.749   3.942  0.0384  0.1808  0.0425
15269W        W31743  16.665   4.426   1.577 -0.2641 -0.0539  0.0632
15270W        W31744  11.752  10.111  14.304 -0.1234  0.0339 -0.0869
15271W        W31745   5.329  15.619  13.891 -0.3954 -0.0216 -0.2443
15272W        W31746   7.385  14.502   2.537 -0.0521 -0.3545  0.1050
15273W        W31747   2.218   9.926  14.747 -0.0045 -0.1241  0.1754
15274W        W31748   6.393   8.873   0.476  0.0995  0.0974 -0.0489
15275W        W31749   9.932  17.811  15.739  0.0731  0.0237 -0.0011
15276W        W31750   1.111  11.425   1.561 -0.0733 -0.0457 -0.0240
15277W        W31751   2.456  10.306   4.848  0.1841  0.2215 -0.0788
15278W        W31752  17.500  16.751   3.090 -0.0396  0.1937  0.1114
15279W        W31753   2.273   9.476  10.914 -0.2394  0.0430  0.0446
15280W        W31754  16.744  17.308   4.119 -0.0985 -0.0369 -0.4615
15281W        W31755  10.788   8.216  16.108  0.0514  0.0338  0.0378
15282W        W31756   7.345   2.898   4.498 -0.1586  0.0637  0.1194
15283W        W31757   8.664   4.100  14.187 -0.0330  0.0474 -0.1834
15284W        W31758  14.314   3.847   4.434 -0.0527 -0.3190  0.0355
15285W        W31759  10.224  14.101  14.931  0.0805 -0.1370  0.2795
15286W        W31760   3.828  15.263  13.294 -0.0149 -0.0353 -0.2979
15287W        W31761  16.411   1.859  15.601 -0.1866 -0.2378 -0.1259
15288W        W31762  16.408   8.424   4.684  0.0610  0.1064 -0.0600
15289W        W31763   1.376   6.227  15.288  0.0008 -0.0490 -0.0927
15290W        W31764  15.446  17.722  15.667 -0.0341  0.3005 -0.1024
15291W        W31765  15.856  10.641   2.282 -0.1443  0.2585 -0.2489
15292W        W31766   5.492  14.436   3.298  0.1524 -0.0526  0.2037
15293W        W31767  12.040   1.558  14.206  0.0687 -0.0992  0.0455
15294W        W31768   7.732   7.457   2.947 -0.2144 -0.0605  0.1380
15295W        W31769   8.320   0.367   1.901 -0.2481 -0.1401 -0.0577
15296W        W31770  13.882  11.571   0.778  0.0667  0.1073 -0.0996
15297W        W31771  15.882   3.097  15.539 -0.0124  0.1020 -0.1159
15298W        W31772   6.246   2.514  11.680  0.2232 -0.2527  0.1236
15299W        W31773   0.080  17.107   2.429 -0.2759 -0.2366  0.0180
15300W        W31774  17.486  11.128   4.873  0.0154  0.2000 -0.0442
15301W        W31775   1.112   8.730  15.854  0.1148 -0.1539 -0.0392
15302W        W31776  14.479   1.426  11.810  0.1424  0.0771  0.0226
15303W        W31777   7.690   1.112   5.251  0.2891 -0.1973 -0.1935
15304W        W31778  15.649   6.000   1.563  0.0987 -0.0112  0.1730
15305W        W31779  13.672   7.959  15.871 -0.0081 -0.0186  0.4333
15306W        W31780   8.457   7.458   3.887  0.1937 -0.0782  0.0619
15307W        W31781   9.137   3.845  14.822 -0.1867 -0.1360 -0.0914
15308W        W31782   5.575   1.079   0.851 -0.1719  0.0238  0.2517
15309W        W31783   2.235  11.230   3.136  0.1277  0.1130  0.1611
15310W        W31784   9.341   5.688   0.656 -0.0351  0.1681 -0.1493
15311W        W31785  15.737  15.033   1.833  0.1779  0.0033  0.1791
15312W        W31786  13.161  16.544   5.580  0.0760 -0.0800  0.2815
15313W        W31787  15.312   4.266   0.668  0.0688 -0.0570  0.2213
15314W        W31788  15.744   9.440  15.390  0.1129 -0.1642  0.0123
15315W        W31789   7.400  10.748   2.136 -0.4977  0.0328 -0.4110
15316W        W31790   1.317  15.792  15.072 -0.0632 -0.1092 -0.3172
15317W        W31791  12.470   4.391  10.771  0.0585 -0.1741  0.1239
15318W        W31792   3.033  10.648   0.940 -0.3476  0.0428  0.1694
15319W        W31793  15.732   2.279  13.063  0.1277 -0.0533  0.0906
15320W        W31794   8.968  12.444   3.397  0.0321  0.0429 -0.0674
15321W        W31795  16.088  12.743  11.959  0.0426  0.1913  0.4076
15322W        W31796   9.831  13.223  15.034 -0.0721 -0.0306  0.3381
15323W        W31797   4.286   0.633  13.311  0.3169 -0.1010 -0.4035
15324W        W31798  14.038  14.647   2.840 -0.0105 -0.0587  0.3018
15325W        W31799   4.143   5.043   0.473 -0.1677 -0.2141  0.2673
15326W        W31800  16.822   3.256   6.408  0.0901 -0.0310  0.1342
15327W        W31801   1.497   8.461  16.671 -0.2855 -0.3022 -0.1711
15328W        W31802   6.983   6.857   1.545  0.0971  0.0085  0.0165
15329W        W31803  16.152  17.224   1.222  0.1330 -0.1076 -0.2588
15330W        W31804  13.214   7.296   3.389  0.0460  0.0370  0.1906
15331W        W31805  11.368  17.490   2.426 -0.3503 -0.0502  0.1087
15332W        W31806  16.362   1.305   4.892 -0.1876 -0.0895 -0.2411
15333W        W31807   1.071   1.133   6.028 -0.2317 -0.0602  0.0868
15334W        W31808  13.119  13.463   4.759  0.1936 -0.1692  0.0636
15335W        W31809  15.779   5.663  13.222 -0.0444 -0.1013  0.1228
15336W        W31810   6.609  10.119  15.542 -0.2784 -0.1052 -0.0561
15337W        W31811   9.093   9.625  13.983 -0.1726  0.0044  0.0324
15338W        W31812   5.085  14.668   1.913  0.0547 -0.0677  0.1621
15339W        W31813   4.665   5.984   3.952  0.0458  0.2524  0.1559
15340W        W31814   9.395  10.021   0.925 -0.2920  0.2988 -0.0777
15341W        W31815   1.149   5.446  14.509 -0.4119 -0.1007  0.2386
15342W        W31816  14.827  13.454   2.816  0.1843  0.1406 -0.2822
15343W        W31817  10.834  12.947  13.160 -0.1781  0.4451 -0.0673
15344W        W31818  17.074   1.649   0.608  0.2113  0.0443 -0.0421
15345W        W31819  11.873   6.495   0.692  0.0032  0.0761  0.2514
15346W        W31820   3.880   8.423  15.831  0.2223  0.0420  0.0623
15347W        W31821   8.299  11.658  13.322 -0.0368  0.1163 -0.0408
15348W        W31822  10.885  14.753   3.011 -0.0117  0.1120  0.1208
15349W        W31823  16.675  10.966   4.989 -0.3275  0.0662  0.4411
15350W        W31824   3.572  14.251  12.778 -0.1643  0.2218  0.3002
15351W        W31825   8.605   2.120   4.957 -0.0416  0.0345 -0.0516
15352W        W31826  12.895   9.037   3.100 -0.1857  0.2545  0.1593
15353W        W31827  16.739  14.533   4.270  0.0932  0.2599  0.1723
15354W        W31828  16.165   8.674  15.161  0.1658  0.0436 -0.2600
15355W        W31829  14.942   3.528  12.793 -0.1554  0.1705  0.0216
15356W        W31830   5.710   1.516   1.692 -0.1293  0.0669 -0.3486
15357W        W31831   5.298  12.452  14.100  0.1017 -0.0583  0.2479
15358W        W31832  13.362  17.800   0.079  0.2066 -0.0696 -0.1546
15359W        W31833   8.637   0.385  13.075 -0.4701  0.0421 -0.0581
15360W        W31834  15.841   5.165   2.770 -0.0623 -0.0446  0.0782
15361W        W31835   2.880  14.946   5.123 -0.0053 -0.1298 -0.1917
15362W        W31836   2.163  16.873  16.509  0.1180 -0.3190 -0.0043
15363W        W31837   9.353  10.572   1.811  0.0010 -0.2035 -0.1010
15364W        W31838   7.423   3.263   4.858  0.0822 -0.2986 -0.1314
15365W        W31839  14.566   5.536  13.091  0.1723  0.1331 -0.1876
15366W        W31840   6.682  15.565   2.596 -0.3296 -0.0142  0.1011
15367W        W31841   0.822  14.075  11.178 -0.1168 -0.1396 -0.0269
15368W        W31842   7.853  10.461  12.452  0.3512  0.3945 -0.0195
15369W        W31843   8.777   7.878   3.834  0.1872 -0.2034 -0.0258
15370W        W31844  16.746   9.250   3.543 -0.2664 -0.1437 -0.1354
15371W        W31845   8.009  17.124   0.765  0.3727  0.0113  0.0686
15372W        W31846   0.331   4.499   0.465 -0.5202  0.0167  0.3189
15373W        W31847   6.062  17.059  14.567  0.0085 -0.2545  0.0765
15374W        W31848   8.385  14.471  16.787 -0.0336 -0.2912  0.0904
15375W        W31849  13.129   1.922   4.884 -0.0738  0.1288 -0.1042
15376W        W31850   8.413  16.151  13.366  0.4568 -0.3645 -0.2151
15377W        W31851   2.811   0.471  12.774 -0.0143  0.1727 -0.2484
15378W        W31852   8.505   9.248   5.153 -0.2078 -0.4980  0.1247
15379W        W31853   5.269  13.024   5.097 -0.1440 -0.0730  0.1496
15380W        W31854  10.326   1.504  13.842 -0.1077  0.0217 -0.1564
15381W        W31855  16.505   4.033  13.801  0.2387  0.1918 -0.3298
15382W        W31856  11.496   8.817  12.845  0.1421 -0.2184  0.2979
15383W        W31857  16.451  10.664   2.276  0.0309  0.2050  0.0563
15384W        W31858  10.296  11.043   5.680 -0.1268  0.0933  0.0728
15385W        W31859  11.960   8.182   1.755  0.1246  0.0488 -0.0591
15386W        W31860   8.519   7.666  12.289 -0.1384 -0.2112  0.0025
15387W        W31861  11.675   2.132   5.221 -0.1981  0.3881  0.1556
15388W        W31862  17.201  15.206   3.603  0.3303 -0.1047 -0.0298
15389W        W31863  10.156   8.876  12.930 -0.0067 -0.0122 -0.0790
15390W        W31864   7.030   5.726  12.964 -0.2132  0.2120 -0.2131
15391W        W31865   1.038   3.374   1.968  0.1949  0.1559 -0.1006
15392W        W31866   8.868   9.140  15.228  0.0853  0.1117  0.0149
15393W        W31867   1.411  10.523   1.217 -0.4581 -0.2852  0.0781
15394W        W31868   2.408  16.382   4.708  0.1227  0.1090  0.3064
15395W        W31869   1.608   1.568  12.524  0.0765 -0.0134 -0.0915
15396W        W31870   9.169   9.204   4.131 -0.0949  0.1814 -0.1451
15397W        W31871  10.743   6.891   2.023 -0.0832  0.0128 -0.1360
15398W        W31872   7.236  15.398   5.884 -0.0481 -0.2659  0.1619
15399W        W31873   8.422   3.310  14.686 -0.2789 -0.1170  0.1451
15400W        W31874   5.727  15.270  14.093 -0.2534  0.0156  0.1852
15401W        W31875   8.044   8.547   0.379 -0.2381  0.2717  0.2493
15402W        W31876   8.066  15.817   2.740 -0.1599  0.1726  0.1995
15403W        W31877  15.039  14.633  14.068 -0.3923  0.0518  0.1939
15404W        W31878   0.809   1.071  15.791 -0.0390  0.1101  0.0614
15405W        W31879  16.715  15.312  14.300  0.1155 -0.0992  0.0545
15406W        W31880   3.513   4.105   5.030 -0.0312 -0.0274 -0.1600
15407W        W31881   1.162   2.423  13.282  0.1972  0.1254 -0.0003
15408W        W31882  17.114   5.314   1.470  0.1612 -0.3228  0.0982
15409W        W31883   9.098  17.728  12.218 -0.4352 -0.0835  0.1035
15410W        W31884   5.583   0.958   1.674  0.0298  0.1797  0.1809
15411W        W31885   4.876  15.320  12.337 -0.2511  0.1513 -0.1068
15412W        W31886  10.829   8.571   1.969  0.0678 -0.1152  0.4204
15413W        W31887  17.175  15.601   4.349  0.2784 -0.3069 -0.3356
15414W        W31888  15.636  12.253   0.955  0.1968  0.0696  0.0282
15415W        W31889  14.814  13.370   4.337  0.3067  0.1818 -0.0284
15416W        W31890  14.080   0.470   0.940 -0.0142 -0.1538  0.1450
15417W        W31891   8.948   6.275   1.270 -0.1246 -0.1604  0.0377
15418W        W31892  15.310   7.976  14.548 -0.2627 -0.1756  0.1740
15419W        W31893   1.113  13.295   4.946  0.3962  0.0152 -0.1303
15420W        W31894  15.224   5.905  13.941 -0.0619  0.1083 -0.0303
15421W        W31895  11.098   7.354   1.753  0.1012 -0.1012 -0.2433
15422W        W31896   1.982  17.687   4.739  0.1140  0.0406 -0.2480
15423W        W31897   4.592  16.375   0.817 -0.0275 -0.0074  0.0247
15424W        W31898   4.940  16.878  14.290  0.2288  0.0559  0.0758
15425W        W31899   3.759  17.021   5.160 -0.2114  0.1085  0.1965
15426W        W31900  11.616   3.557  12.596 -0.3778  0.1029 -0.3430
15427W        W31901   0.710  14.289   2.000 -0.0366 -0.1165 -0.2725
15428W        W31902  14.971   3.681  11.661 -0.1045 -0.4352 -0.0935
15429W        W31903  17.526   9.335   0.648  0.0734 -0.3211 -0.1934
15430W        W31904   2.256  16.174  14.963  0.1388  0.1326  0.1504
15431W        W31905  17.609   9.319  12.484 -0.0410 -0.0579  0.2505
15432W        W31906   4.410   6.298  13.724 -0.1157  0.4596 -0.0366
15433W        W31907   2.452  10.544   0.923  0.0841 -0.1495 -0.0189
15434W        W31908  13.625  10.545   2.219  0.2505 -0.0790  0.0402
15435W        W31909   9.043   6.991   2.888  0.0520 -0.1449  0.1419
15436W        W31910   8.479   7.828  11.774  0.0438 -0.0177  0.1446
15437W        W31911   6.356  11.801  11.930 -0.2644  0.2890 -0.0036
15438W        W31912  17.973   3.493  14.121  0.2375 -0.1193 -0.4221
15439W        W31913   8.747  10.855  15.608 -0.1803 -0.2331 -0.1982
15440W        W31914   9.957   7.142   5.014  0.0626 -0.3023 -0.1793
15441W        W31915   7.902  11.104  13.855  0.1360  0.3000  0.0105
15442W        W31916   0.187  14.120   4.205 -0.3593  0.0448 -0.1651
15443W        W31917  17.488   1.359   0.468  0.1510  0.4592  0.2869
15444W        W31918  17.988   5.494   2.710  0.2654  0.0322  0.1707
15445W        W31919   5.209   0.944  12.285 -0.1373 -0.3234 -0.0974
15446W        W31920   0.476  13.549  11.143  0.0546 -0.0916  0.0600
15447W        W31921   9.780   5.143  13.624 -0.3268  0.3108  0.0816
15448W        W31922   4.249  10.639   2.167 -0.2278 -0.0951 -0.1612
15449W        W31923  16.645  11.119   1.128  0.5168 -0.1888  0.0912
15450W        W31924  17.097  11.855   2.241 -0.0393 -0.0777 -0.0587
15451W        W31925   6.437  15.784   3.598  0.2052 -0.2176  0.1505
15452W        W31926  15.522   3.490   4.931 -0.3408 -0.0315 -0.3726
15453W        W31927  12.480   2.518   5.310 -0.0485  0.1136 -0.0733
15454W        W31928   3.762  15.129  14.822 -0.0077  0.1016 -0.0187
15455W        W31929  15.535   3.336   3.596  0.0798  0.2842 -0.0546
15456W        W31930  12.528   3.519  15.321 -0.1757 -0.0090  0.0708
15457W        W31931   7.261  12.753   0.247 -0.4348 -0.1704  0.0340
15458W        W31932  14.052   7.934   3.580 -0.1036 -0.1491 -0.0684
15459W        W31933   7.047  17.278   1.567  0.1260 -0.0284  0.1245
15460W        W31934  10.723   1.448  15.894  0.3307  0.0355  0.0071
15461W        W31935   6.206   0.070  13.873  0.2710 -0.0936 -0.0825
15462W        W31936  15.801  17.408   2.744 -0.3260  0.0979  0.1371
15463W        W31937   3.702   5.424   3.727 -0.1213  0.1906 -0.2218
15464W        W31938  11.377  16.963   3.956 -0.1489 -0.1001 -0.1091
15465W        W31939   0.444   1.511   2.915  0.2267  0.0351 -0.1237
15466W        W31940  12.591   3.798  11.953 -0.1044 -0.1828 -0.1799
15467W        W31941  17.241   3.754  14.571  0.2038 -0.0207  0.0213
15468W        W31942   1.155   6.618   4.743  0.0363 -0.0541 -0.1100
15469W        W31943   5.391   1.429   4.807 -0.0058  0.2579  0.2205
15470W        W31944   5.566   8.366   4.325  0.4644  0.0435  0.3494
15471W        W31945   3.414  12.175   4.270  0.1114 -0.0337  0.1571
15472W        W31946   5.556   2.397   2.914  0.0522  0.1197 -0.2682
15473W        W31947   9.442   6.195   1.449 -0.1175  0.1276  0.0915
15474W        W31948   9.796   4.430   2.751 -0.0064 -0.1194 -0.0425
15475W        W31949  10.669  14.769   0.126 -0.1432 -0.1005  0.0136
15476W        W31950  12.289   9.138   1.326 -0.1877  0.1398 -0.0968
15477W        W31951   4.101   2.083   5.186  0.0165  0.0880 -0.1606
15478W        W31952   9.771   4.402  16.235 -0.1704  0.0741 -0.0452
15479W        W31953  14.906   7.575   0.533  0.1569 -0.2419  0.1082
15480W        W31954   9.224   0.876   2.193 -0.2874  0.0449 -0.0037
15481W        W31955  12.096  11.072  14.578 -0.0565  0.1379 -0.2386
15482W        W31956  17.046   6.313  16.753  0.1416 -0.0924 -0.0574
15483W        W31957   4.943  13.727   2.252 -0.0346 -0.2724 -0.0257
15484W        W31958  16.099   4.450  14.381  0.1713 -0.0640  0.0529
15485W        W31959  15.290  12.218   0.602  0.0738 -0.0878  0.1195
15486W        W31960  17.477   6.344  16.463  0.3036 -0.1329 -0.1330
15487W        W31961  10.236  10.421   2.093  0.2721  0.1678  0.2422
15488W        W31962   4.357   6.951  15.220  0.0485  0.2555  0.1646
15489W        W31963   8.076   0.209  11.560  0.2482  0.1269 -0.2927
15490W        W31964   6.747   0.490  14.627 -0.0801  0.1727  0.3694
15491W        W31965   0.203  12.416   0.609  0.2667 -0.0324  0.0401
15492W        W31966   7.740   8.155   0.841  0.0167  0.0463 -0.0984
15493W        W31967  12.937   6.540  13.678  0.2507  0.0699 -0.3721
15494W        W31968   8.572   6.031   1.875 -0.1298 -0.1783 -0.1522
15495W        W31969  12.086  13.349   3.842 -0.0646 -0.0715 -0.2322
15496W        W31970  13.760   6.246  16.281 -0.0462  0.0810 -0.1097
15497W        W31971   2.194  12.761  12.545  0.1872  0.1163 -0.0061
15498W        W31972   9.889  14.974   0.831 -0.0351  0.1483 -0.4386
15499W        W31973  13.373   5.264  16.246  0.0290 -0.0318 -0.0901
15500W        W31974   3.896   6.360  13.877 -0.0834 -0.1706 -0.0206
15501W        W31975   3.655   1.657  12.823 -0.0804 -0.2495 -0.2993
15502W        W31976   1.918  16.597  14.861  0.0603  0.1218 -0.0269
15503W        W31977   1.257   7.470   5.398  0.2220  0.0309  0.0202
15504W        W31978   6.946  14.449   4.922  0.1994 -0.0338  0.0034
15505W        W31979   3.643   0.250  13.263  0.2215 -0.1555 -0.1142
15506W        W31980   2.743   7.536  14.832  0.0973  0.0624 -0.0879
15507W        W31981   7.177   7.723   1.602 -0.0615 -0.0445 -0.1028
15508W        W31982  11.476  11.036  12.367 -0.1503 -0.1374  0.1247
15509W        W31983   3.518   2.127  15.051  0.0239  0.1197  0.0573
15510W        W31984  10.826  11.039   1.824 -0.0086  0.2751  0.0498
15511W        W31985   3.359  17.887   4.550  0.0711 -0.0231 -0.1246
15512W        W31986   7.998   5.688  13.264 -0.4187 -0.2115  0.1157
15513W        W31987  12.396   9.403  11.968 -0.0082  0.2014 -0.0424
15514W        W31988   0.273  15.280  13.726 -0.0120  0.0813  0.2408
15515W        W31989   9.683  12.164  13.971 -0.2509 -0.1060  0.3366
15516W        W31990   5.846  12.818  12.922  0.0843  0.1555 -0.0446
15517W        W31991  11.144   0.660  15.455  0.2034 -0.0637  0.0177
15518W        W31992   3.790  11.433  16.386  0.1386 -0.0472  0.3619
15519W        W31993   9.828  10.465   5.970 -0.2727 -0.1541 -0.2581
15520W        W31994   5.537  11.718   5.342 -0.3648  0.1775  0.2240
15521W        W31995   9.797   7.436   5.698 -0.0954  0.1424  0.0622
15522W        W31996  10.197   1.557  15.582  0.0465  0.0413 -0.1075
15523W        W31997   6.030   6.551   3.521 -0.1696 -0.1141  0.1853
15524W        W31998   7.757   2.234  12.413 -0.2510  0.0451  0.1044
15525W        W31999  15.891   5.162   1.116 -0.2034 -0.0864 -0.1695
15526W        W32000  14.924   4.538   0.896  0.3179  0.4463 -0.2516
15527W        W32001  15.975   5.388   3.682  0.0486 -0.2369  0.2004
15528W        W32002  11.454   8.788  16.037  0.2306 -0.1784  0.1278
15529W        W32003  16.618  17.727   0.199 -0.0185 -0.3497  0.1738
15530W        W32004   6.028   7.519  15.190  0.3653 -0.0630  0.0298
15531W        W32005   5.079   6.757  14.894 -0.3566  0.0281 -0.0645
15532W        W32006  10.969  13.415   3.184  0.0467  0.0272  0.1662
15533W        W32007   1.161   6.554  14.484 -0.0024 -0.2743 -0.2381
15534W        W32008  13.472  17.351  11.887  0.1359  0.1908 -0.0931
15535W        W32009   6.101   4.820   4.508 -0.2451 -0.0244 -0.2131
15536W        W32010  14.474  12.533  16.365 -0.0274  0.0466  0.2247
15537W        W32011   9.020  14.705  15.470 -0.0403 -0.0795  0.0339
15538W        W32012  13.150   8.228  15.902  0.1115  0.1769  0.1512
15539W        W32013   7.939   6.244  14.806 -0.3827  0.1379 -0.0705
15540W        W32014  14.032  17.936   0.692  0.0029 -0.1681  0.1435
15541W        W32015  15.642   8.186   3.339 -0.0689  0.1337 -0.2488
15542W        W32016  10.544  15.251   2.040 -0.1296  0.0460 -0.2256
15543W        W32017  16.065  15.752   5.029  0.3119  0.1167 -0.0084
15544W        W32018  12.670  10.320   5.087 -0.2780  0.0087 -0.1117
15545W        W32019   3.460  10.279  15.738 -0.3227 -0.2679  0.3222
15546W        W32020  12.700   6.735   0.192 -0.1033 -0.0200  0.0017
15547W        W32021   4.630  10.750  15.041 -0.0216 -0.1253  0.0894
15548W        W32022  16.295  13.034   5.640 -0.2022  0.0012  0.0801
15549W        W32023   9.370  15.297   4.917  0.0295  0.1398 -0.0068
15550W        W32024   0.178  16.242   1.135 -0.0104  0.0056  0.0501
15551W        W32025   5.144  15.746  15.767 -0.0672  0.1109 -0.0172
15552W        W32026  12.637   8.412  13.314  0.0817  0.0039  0.0481
15553W        W32027   0.454   6.153   0.026  0.1891  0.0402  0.0701
15554W        W32028   4.572  17.010   3.648 -0.1663  0.0948  0.1039
15555W        W32029   5.184   6.971  14.019  0.0981 -0.0555 -0.4121
15556W        W32030  15.094  17.675  11.981  0.0786  0.0089  0.2685
15557W        W32031   0.263  16.745  15.937  0.1102 -0.0301  0.2858
15558W        W32032  16.724  15.313   3.070  0.0340  0.0153 -0.0582
15559W        W32033   0.690   6.892  15.496 -0.0522 -0.2181 -0.1665
15560W        W32034  10.647   8.935  13.142 -0.1330  0.0315 -0.0675
15561W        W32035  15.136   1.046  13.895  0.1008  0.2892  0.1142
15562W        W32036  16.182   7.900   3.980  0.1432 -0.3180 -0.0130
15563W        W32037   6.301  16.351  13.190  0.3806 -0.0188  0.3262
15564W        W32038   6.170  12.516  14.138 -0.0833 -0.1381 -0.1073
15565W        W32039  11.272   0.544   4.848  0.0803  0.0645  0.2422
15566W        W32040   1.800  13.199   3.446  0.0347  0.1095  0.1692
15567W        W32041  11.871  11.228   0.080 -0.0209  0.1188  0.2462
15568W        W32042   5.265  11.488  13.295  0.0782  0.0432 -0.1266
15569W        W32043  12.006   7.977   3.924  0.2152  0.0840 -0.2198
15570W        W32044  17.428   7.318   5.336 -0.1127 -0.0430 -0.0332
15571W        W32045   1.911   0.764  15.847 -0.1834 -0.2442  0.1366
15572W        W32046  17.860  11.748  11.507  0.0016  0.1235 -0.1117
15573W        W32047  13.280   1.951   1.119 -0.1235 -0.2377  0.0263
15574W        W32048  17.191  14.899  10.984 -0.1786 -0.1062  0.3724
15575W        W32049   7.744   1.426   1.222 -0.2076  0.0786  0.1218
15576W        W32050   2.771  14.440   0.124 -0.1512  0.1173  0.1578
15577W        W32051   5.099   8.474  11.991  0.0681  0.2190  0.2050
15578W        W32052   1.107  11.490   2.544  0.2489  0.0159  0.3865
15579W        W32053   5.397   0.443   1.676 -0.0913 -0.1638  0.0341
15580W        W32054   2.057  17.555  16.200 -0.0857 -0.0056  0.2557
15581W        W32055   7.704  12.177   4.422  0.0253  0.0538  0.1832
15582W        W32056  15.060  14.310   0.939 -0.2589 -0.0213 -0.0713
15583W        W32057   1.605   8.992   0.194 -0.2711  0.1201 -0.0005
15584W        W32058   5.517  12.089   0.637  0.0883  0.0658  0.2123
15585W        W32059  11.247   3.094   4.017 -0.2528  0.0830 -0.0591
15586W        W32060   3.270   6.312  15.913  0.0006 -0.4949 -0.0227
15587W        W32061  13.321   7.997  14.874  0.0095  0.0130  0.0489
15588W        W32062   0.740  12.872  16.738 -0.2826  0.0603 -0.1147
15589W        W32063  16.068   3.201   0.987  0.0941  0.1712  0.1052
15590W        W32064  11.712   3.522   4.734 -0.3459  0.0863 -0.0007
15591W        W32065   5.287  14.204  15.462  0.0348 -0.1557  0.3439
15592W        W32066   8.781  11.109   5.407  0.1103  0.1346 -0.1574
15593W        W32067   3.601  15.883   3.546  0.1322  0.2020 -0.0670
15594W        W32068  14.580   9.512   5.832  0.2011 -0.0142 -0.1138
15595W        W32069   3.740  10.928  16.495  0.0285  0.1235 -0.1626
15596W        W32070   2.189   9.357  14.918 -0.2000  0.0116  0.0561
15597W        W32071   8.784  11.631   1.271 -0.1541  0.0066  0.3955
15598W        W32072   5.805   0.898  14.418 -0.0795 -0.2133  0.1647
15599W        W32073   4.931  12.274  16.642  0.3028  0.1594  0.1750
15600W        W32074  11.249   2.223   3.009 -0.1446 -0.2175  0.0461
15601W        W32075  11.259  12.490  11.531 -0.1766 -0.1080  0.0344
15602W        W32076   2.947   2.557  14.601 -0.2513 -0.4191 -0.1867
15603W        W32077   1.437  11.123   2.715 -0.0088 -0.1085  0.2748
15604W        W32078  11.549  12.010   2.734  0.1651  0.0308 -0.2921
15605W        W32079  13.137  12.119   4.346  0.3894  0.0813 -0.0112
15606W        W32080  16.390   7.266   1.086 -0.2543  0.1773  0.0499
15607W        W32081  11.258   8.081  15.433 -0.0245 -0.0002 -0.0557
15608W        W32082   6.168   6.249  11.939  0.1710  0.2862 -0.0702
15609W        W32083  14.225   8.837  16.084  0.3656 -0.3277 -0.3063
15610W        W32084  13.226   0.059   1.836 -0.2749 -0.1877 -0.4548
15611W        W32085   3.579   7.180   5.044  0.1983  0.1120  0.0801
15612W        W32086   7.003  16.677  15.233  0.0283  0.1766  0.0668
15613W        W32087  13.211   1.780   3.768  0.1007 -0.0762 -0.3820
15614W        W32088  15.427   2.450   5.182  0.1509 -0.1769  0.4771
15615W        W32089   8.541   8.239  15.452 -0.1529  0.1005  0.1558
15616W        W32090  13.476  14.373  12.001 -0.2324 -0.0644  0.0605
15617W        W32091  10.137  11.298   3.426  0.0704  0.1891 -0.3589
15618W        W32092  12.477   7.147   0.127  0.1430  0.2526 -0.1201
15619W        W32093  11.647   6.347   5.012  0.1301  0.2782  0.0014
15620W        W32094   4.888   2.115   6.382  0.0717 -0.0417 -0.1888
15621W        W32095  15.581   2.601   4.188 -0.1551 -0.2206  0.1016
15622W        W32096   4.021   7.906   4.029  0.1236 -0.1358 -0.0589
15623W        W32097  17.812   1.575  12.850  0.0642 -0.0458  0.2521
15624W        W32098  17.025   0.440   1.407 -0.0266 -0.1742 -0.1239
15625W        W32099  17.960   1.684   2.927  0.1404  0.2907  0.1394
15626W        W32100  11.627  16.959  16.373 -0.2910 -0.3033  0.1586
15627W        W32101  10.552  17.349  16.174  0.2267  0.3198 -0.3485
15628W        W32102  15.265  13.505   0.309 -0.0457  0.2573  0.0651
15629W        W32103   3.472  17.594   0.138 -0.2119 -0.0455 -0.1240
15630W        W32104  11.644  17.676  12.997 -0.0476 -0.2062  0.1156
15631W        W32105  12.471   6.894   3.356 -0.1224  0.1186  0.0297
15632W        W32106   3.877  16.672  16.469  0.0859 -0.1858  0.0537
15633W        W32107  17.700  11.429  12.969  0.2584  0.0328  0.0444
15634W        W32108  14.707   0.843  16.616  0.0570 -0.1738  0.2460
15635W        W32109  16.835   5.265  12.302 -0.2796  0.0350 -0.3514
15636W        W32110   5.169  11.643   2.953  0.0669 -0.1858  0.0700
15637W        W32111   6.257  17.356  12.853 -0.1550 -0.1976 -0.1032
15638W        W32112   2.804  10.492  16.732  0.1832  0.0132  0.0280
15639W        W32113   0.831   4.101  15.017  0.1545 -0.2099  0.1089
15640W        W32114   4.894  10.145  12.472 -0.0133 -0.1816  0.0078
15641W        W32115   5.666  10.170  14.602 -0.1787 -0.0263 -0.2014
15642W        W32116   4.225  16.507   4.530  0.2225 -0.0083  0.2395
15643W        W32117  10.991   1.103   0.951 -0.2696 -0.0208 -0.2609
15644W        W32118   3.263   2.761  12.401  0.0384  0.0028  0.3167
15645W        W32119   3.762  14.110  16.481 -0.1029  0.2976 -0.6401
15646W        W32120   3.628  16.150   4.339  0.1449  0.1943 -0.2389
15647W        W32121  14.671   3.780  15.973 -0.0717  0.0660 -0.1067
15648W        W32122  12.810  10.845  13.215  0.3642  0.0784  0.0363
15649W        W32123   5.152   3.808   3.951 -0.0723  0.1907 -0.0651
15650W        W32124   2.602  14.858  11.899 -0.1328 -0.1492 -0.0400
15651W        W32125  10.360  15.440   0.518  0.0497 -0.1154  0.0458
15652W        W32126   6.662   7.213  14.611 -0.3549  0.2273 -0.0254
15653W        W32127  13.148   6.404   1.935 -0.2180  0.1042 -0.1615
15654W        W32128   8.843   4.239   4.380  0.0810  0.0397 -0.0428
15655W        W32129   5.978   5.696   4.249  0.1318 -0.2963 -0.1682
15656W        W32130   5.787  15.194   0.955 -0.0117  0.0310 -0.0500
15657W        W32131  15.721  12.999  11.657 -0.0966 -0.0731  0.0161
15658W        W32132   3.650   2.758  13.695 -0.2610 -0.0557 -0.2585
15659W        W32133   7.064   9.541   3.571  0.0531 -0.0486  0.0513
15660W        W32134  17.454  13.886   3.803 -0.3249  0.1136  0.2731
15661W        W32135  16.120  11.466  13.327  0.1429  0.1002 -0.1365
15662W        W32136  14.035   9.007   1.688 -0.1846 -0.1170 -0.1709
15663W        W32137   0.768  16.039   1.722  0.0372  0.1010  0.2994
15664W        W32138   5.225  15.749  16.660  0.1164  0.1807  0.2911
15665W        W32139   9.154  17.347  14.542  0.0860  0.2295 -0.1357
15666W        W32140   9.249   0.312   4.967  0.0552  0.0186  0.2629
15667W        W32141   7.772   1.955  14.075  0.1956 -0.0978 -0.0243
15668W        W32142   6.916   2.015   3.950  0.0666 -0.7243 -0.3430
15669W        W32143   0.925  16.889   0.069  0.0593 -0.1958  0.3138
15670W        W32144  13.340   2.985   1.297 -0.2778 -0.4332  0.2263
15671W        W32145  15.131  11.340   5.394 -0.2621  0.1015  0.0449
15672W        W32146   5.337  16.131  16.351 -0.1596  0.2440  0.0017
15673W        W32147  10.672  13.281   5.592  0.2621 -0.0910  0.4241
15674W        W32148  11.421   6.308   5.457  0.1193 -0.1430 -0.1137
15675W        W32149   2.103   5.318  11.866  0.0887  0.1614  0.0484
15676W        W32150   6.640   7.274   3.581 -0.0702  0.0007  0.1218
15677W        W32151   6.869   1.120   2.447  0.1874 -0.5670  0.2272
15678W        W32152  12.128   7.480   5.388  0.1525 -0.3801  0.0937
15679W        W32153   7.151  15.998   2.493  0.2690  0.1254 -0.1086
15680W        W32154  11.277   6.137   1.685 -0.2865 -0.1175 -0.1494
15681W        W32155   4.639   8.879  14.522 -0.2133 -0.0733  0.0466
15682W        W32156   3.925   7.372  12.181 -0.0872 -0.4434  0.1427
15683W        W32157  10.334   6.726   6.563 -0.1945  0.1016  0.2010
15684W        W32158   0.242   9.750   2.714 -0.2273  0.0557 -0.1238
15685W        W32159   6.866  13.209  14.163  0.0327  0.0862 -0.2403
15686W        W32160  11.067  12.458   0.826  0.1576 -0.0742  0.0173
15687W        W32161  10.741   7.481   0.428  0.2189  0.1124  0.0594
15688W        W32162  17.207  14.632   2.389 -0.3347  0.1100 -0.0707
15689W        W32163   8.713  14.469   4.312  0.1911  0.0615 -0.0499
15690W        W32164  16.935   5.905  13.695  0.0696 -0.0919 -0.2380
15691W        W32165   4.837  14.512  14.687 -0.0674  0.0210 -0.0621
15692W        W32166  10.007   6.971   3.812  0.3570  0.1621 -0.3291
15693W        W32167   9.824  16.356  15.525 -0.1730 -0.3568 -0.0092
15694W        W32168  11.257   4.079  15.900 -0.0647  0.2135 -0.3221
15695W        W32169   0.262  11.227   1.668 -0.0314 -0.3138  0.0039
15696W        W32170   7.609  17.073  11.539  0.0120  0.1897 -0.0295
15697W        W32171  14.291   1.380   0.728 -0.0076  0.0722 -0.0844
15698W        W32172  17.562   2.049  12.859 -0.2296 -0.0956  0.0770
15699W        W32173   5.074  14.902  12.163 -0.2745  0.2777 -0.2267
15700W        W32174   1.527   7.746  12.674 -0.0707  0.2468  0.0720
15701W        W32175  15.844   7.718  16.417 -0.0298 -0.0169  0.0691
15702W        W32176   2.679  10.226  15.191  0.0437 -0.0605  0.2559
15703W        W32177  16.054  13.389   3.495 -0.1932 -0.1925 -0.0518
15704W        W32178  10.774  16.761  12.299  0.2050 -0.3505 -0.0596
15705W        W32179   1.522   7.619  12.161 -0.0689 -0.0211  0.0247
15706W        W32180  14.851  10.252  12.700  0.1165  0.1673 -0.0738
15707W        W32181   2.966   9.552   4.140 -0.2213 -0.1959 -0.0936
15708W        W32182   8.620  10.971   1.353  0.2057  0.2874 -0.5052
15709W        W32183   1.229  14.422   0.624 -0.0852 -0.2082 -0.1664
15710W        W32184  15.601  11.131  16.059  0.0310  0.0748 -0.2163
15711W        W32185  15.355   6.741  14.726  0.0675  0.2924 -0.0838
15712W        W32186   7.979  14.715  16.517  0.0797  0.0619 -0.1836
15713W        W32187   8.299   4.454  12.667 -0.1351 -0.0085  0.0304
15714W        W32188   1.451  17.359   0.815 -0.3391  0.3583 -0.1368
15715W        W32189  16.709   3.341   0.143 -0.3209  0.1043  0.0251
15716W        W32190  11.673   5.771  14.704 -0.3465  0.0523 -0.0033
15717W        W32191   0.804  12.612  10.959  0.1820  0.1996 -0.2764
15718W        W32192   2.279  14.684  12.686  0.0605  0.1252  0.2888
15719W        W32193  16.975   2.778   1.868  0.1191 -0.0882  0.0928
15720W        W32194   4.829  14.394   5.687 -0.1605  0.2858  0.0527
15721W        W32195   0.392  14.876   1.144  0.1311 -0.1537 -0.1245
15722W        W32196   0.268  14.058  11.820  0.2487  0.1469  0.0496
15723W        W32197  12.392  16.568  13.297  0.0678  0.1411  0.1858
15724W        W32198   5.856  16.754   1.586  0.1770  0.1618  0.0210
15725W        W32199  14.006   5.818   0.304  0.2153  0.1614 -0.1649
15726W        W32200   3.644  14.836   2.402  0.0719 -0.0547  0.1208
15727W        W32201   1.333  10.069   2.582 -0.1125 -0.0517  0.1532
15728W        W32202  12.940   3.364  15.550 -0.0954  0.1927 -0.1417
15729W        W32203   7.263   9.877   1.918  0.2599  0.1635 -0.0524
15730W        W32204   0.310  16.982   1.049 -0.0222 -0.1848 -0.0904
15731W        W32205   3.971   7.887  12.246  0.0279  0.3416 -0.2690
15732W        W32206  11.824   1.393   0.096 -0.0255 -0.1880  0.4127
15733W        W32207   1.343   8.316   3.396  0.1000  0.2145  0.0454
15734W        W32208   0.380  11.005   4.840 -0.0308  0.0349 -0.0475
15735W        W32209   5.293  13.735  15.694  0.1212  0.1682 -0.2622
15736W        W32210   1.678  11.796  13.479 -0.0452  0.0989 -0.0495
15737W        W32211   8.737   0.794   1.610 -0.0308 -0.1389 -0.3919
15738W        W32212  10.087  10.855  12.270  0.1437 -0.0663 -0.0534
15739W        W32213  10.931   6.931  14.298 -0.1817 -0.2035 -0.1741
15740W        W32214   6.111   2.382  15.867 -0.1504  0.5025 -0.1009
15741W        W32215   5.725   4.916   2.099  0.1212 -0.1526 -0.0423
15742W        W32216   2.557   2.729  15.644 -0.1397 -0.4385  0.0712
15743W        W32217   7.198   2.006   5.917  0.0109 -0.0303 -0.0085
15744W        W32218   6.082   0.089  15.928 -0.0118 -0.2178 -0.2186
15745W        W32219  12.499   7.851   2.091 -0.0038 -0.2577 -0.0551
15746W        W32220   1.176  10.583  11.948  0.0183 -0.1277  0.1872
15747W        W32221  10.500  14.655  13.074 -0.0226 -0.0200  0.1366
15748W        W32222  13.873   2.363   0.697 -0.0082 -0.0747  0.2438
15749W        W32223   8.059   9.500  15.209  0.2159  0.2109 -0.1746
15750W        W32224   1.325  14.315  16.711 -0.4763  0.1183  0.1323
15751W        W32225  10.140  17.868   3.214 -0.0084  0.2035 -0.1544
15752W        W32226  12.026   0.229  15.676  0.1792  0.1482  0.4121
15753W        W32227  12.898  17.803  13.304  0.1732  0.0152  0.4043
15754W        W32228   6.696  17.785  13.578  0.0430 -0.2053 -0.2600
15755W        W32229   9.705   6.560   4.550 -0.1163  0.3064  0.2247
15756W        W32230   0.140   8.612   2.395 -0.1137  0.0508 -0.3390
15757W        W32231  10.675   1.031   1.518  0.2272 -0.0139  0.1717
15758W        W32232  14.880   6.264   0.253  0.1804  0.4541 -0.3414
15759W        W32233  13.242  14.737   3.042  0.5299 -0.2274 -0.0369
15760W        W32234  16.884   5.767  14.222  0.4380  0.1100  0.2829
15761W        W32235   5.118  15.372  11.232  0.0766  0.2485 -0.1029
15762W        W32236   6.330   1.146  14.519 -0.4187 -0.0316  0.1738
15763W        W32237  12.116  12.733  16.771  0.2490 -0.1514  0.3146
15764W        W32238   9.247  15.820   4.433 -0.0353 -0.2273 -0.4169
15765W        W32239   1.679   3.488  15.242 -0.1230  0.1236  0.3436
15766W        W32240   4.293   0.363   2.264 -0.1367 -0.1532  0.0490
15767W        W32241   0.650  14.472  10.843 -0.0533 -0.1265  0.0273
15768W        W32242   9.001  13.973  11.454 -0.0518 -0.0873  0.0145
15769W        W32243   3.481   0.774   4.618  0.1460  0.1379 -0.1318
15770W        W32244   5.853  16.649  14.280 -0.2074  0.1719  0.0435
15771W        W32245   0.891  15.838   3.810  0.2229  0.1848  0.1180
15772W        W32246   8.902   8.154  11.738 -0.1860 -0.0059 -0.4601
15773W        W32247   9.765   0.728   4.945  0.1264  0.1778  0.1329
15774W        W32248   7.999  17.148   2.399  0.0128  0.1357  0.2013
15775W        W32249   1.106   0.320   3.053  0.1928  0.1765  0.1517
15776W        W32250  17.024   1.968   3.047 -0.2690 -0.1237 -0.1806
15777W        W32251  11.394   9.122  13.751  0.1070  0.1808 -0.2033
15778W        W32252   8.605   1.611  15.065  0.1132 -0.0998  0.2280
15779W        W32253   7.773  14.854  14.581 -0.1203 -0.1015 -0.0856
15780W        W32254   9.375   0.046   2.785 -0.1102  0.0543  0.3259
15781W        W32255   1.850   8.210   0.731 -0.0238 -0.1005 -0.3062
15782W        W32256   9.797  10.020   4.063 -0.1006  0.2805 -0.0577
15783W        W32257  10.988  14.308   6.146 -0.2071 -0.1701  0.0868
15784W        W32258   2.787  10.122  14.281  0.0589 -0.0636 -0.2675
15785W        W32259   3.056   2.891   3.238  0.1088 -0.1430  0.1324
15786W        W32260   9.361   2.267  16.669  0.2523 -0.1607  0.1740
15787W        W32261   9.296   1.105  11.998 -0.1286 -0.4231 -0.1397
15788W        W32262   9.872   8.156  14.459 -0.1351  0.2391 -0.0074
15789W        W32263  11.196  17.901   2.675 -0.2574 -0.1479 -0.0155
15790W        W32264  17.411  12.575  14.792  0.1307  0.1972  0.1907
15791W        W32265   0.450  10.596  11.589  0.0641 -0.5730 -0.1685
15792W        W32266   9.091   8.160   2.459 -0.2548 -0.0357 -0.0508
15793W        W32267   7.323   3.960   2.249  0.1009 -0.0275 -0.3488
15794W        W32268   1.931  12.134   2.640 -0.1361  0.1400 -0.1234
15795W        W32269  12.888  11.955   1.724 -0.1333  0.0591 -0.1633
15796W        W32270   2.982   8.791  15.079  0.4059 -0.1000  0.0017
15797W        W32271   2.654  12.949  16.292 -0.1398 -0.0626  0.1272
15798W        W32272  11.687  12.082   4.187 -0.0856  0.2826  0.1788
15799W        W32273   6.709   1.120  12.190  0.1427 -0.2446 -0.1595
15800W        W32274  15.196  16.285   3.839 -0.1877  0.2927  0.2727
15801W        W32275   0.933  12.414   1.925 -0.2335 -0.3915  0.0206
15802W        W32276   5.753   5.738   0.077  0.0084  0.1037  0.0192
15803W        W32277  14.530   3.257   1.955  0.0773 -0.0301 -0.2091
15804W        W32278  13.025  10.711  14.373  0.1631  0.1358 -0.0812
15805W        W32279   7.132  14.979  15.656 -0.2461 -0.2567 -0.0709
15806W        W32280   4.723   9.560   2.894  0.1304  0.1376 -0.0823
15807W        W32281  17.543  15.286   5.110 -0.1491 -0.3098 -0.2485
15808W        W32282  10.446   3.940   2.892  0.1175 -0.1157 -0.0054
15809W        W32283   8.934   3.121  15.313  0.0650  0.0305 -0.0018
15810W        W32284   0.028  14.234   3.770 -0.0123  0.0632 -0.1681
15811W        W32285   6.933   6.873   0.555 -0.2729 -0.1224 -0.2192
15812W        W32286   7.547  17.429   3.121  0.1448  0.0611 -0.0031
15813W        W32287   2.080   7.829  16.731 -0.2021  0.0413 -0.1617
15814W        W32288   4.262  13.514  13.354 -0.0439 -0.0037 -0.1045
15815W        W32289   8.692  10.813  16.175 -0.0168  0.0679 -0.1457
15816W        W32290  14.097  11.393  14.970  0.0580  0.0509  0.1137
15817W        W32291  11.316   5.283   4.491  0.0036 -0.1697  0.2176
15818W        W32292   2.354   2.666  16.066 -0.1176  0.0099 -0.0272
15819W        W32293   8.029   3.631  13.042  0.0819  0.2854  0.1651
15820W        W32294   5.771  11.982  16.579  0.0744  0.2920  0.3135
15821W        W32295   7.509  16.362   3.232  0.0490  0.0891  0.0418
15822W        W32296   7.761   0.019  14.455 -0.0601 -0.1400 -0.1637
15823W        W32297   4.336   7.541   4.370 -0.0503 -0.0292  0.1391
15824W        W32298   8.533  17.118   2.329 -0.0990  0.2343 -0.0009
15825W        W32299  11.688  14.707   2.328 -0.1535  0.2941  0.0348
15826W        W32300   3.314  15.260  16.756 -0.0656 -0.0423  0.0092
15827W        W32301  12.734   8.627   0.601 -0.1708 -0.0886  0.1221
15828W        W32302   9.147   1.622   4.391  0.1917 -0.0908 -0.2278
15829W        W32303   1.835  14.174   4.333 -0.1639 -0.0613 -0.0550
15830W        W32304  11.319   7.964  16.249  0.0549 -0.3409  0.0865
15831W        W32305  15.692   3.942  13.767 -0.1565 -0.0475  0.3031
15832W        W32306   0.803  14.147   5.374 -0.0932 -0.0290 -0.2096
15833W        W32307  17.250   7.565  15.142  0.1442  0.1162  0.1276
15834W        W32308  14.293   6.661  13.121  0.0812  0.0674 -0.0889
15835W        W32309   7.865   1.358  12.620  0.1799 -0.0896  0.1621
15836W        W32310   4.611   6.064  15.852  0.2669  0.0707 -0.0473
15837W        W32311  11.473   9.328  15.910 -0.1440  0.1902  0.0444
15838W        W32312   8.495   2.511  15.722  0.4295 -0.1223  0.3509
15839W        W32313   1.028  11.897   1.559  0.3327 -0.1339  0.1309
15840W        W32314   5.248  13.919   3.313 -0.0633 -0.0389 -0.0356
15841W        W32315   4.136   2.377   3.680 -0.1811 -0.1342  0.0756
15842W        W32316  14.678   4.014   0.378  0.0276 -0.1878  0.1207
15843W        W32317  14.366   4.348   4.078  0.0684  0.2269 -0.1253
15844W        W32318   0.475   9.366   3.996 -0.0945 -0.1743  0.0794
15845W        W32319   2.719  14.213   1.131  0.1816 -0.1399  0.3110
15846W        W32320   5.607  15.678   3.309 -0.3774  0.1013 -0.0279
15847W        W32321   0.207   2.117   2.154  0.2564  0.0300  0.1044
15848W        W32322   3.724   9.745   4.356 -0.0979  0.0648  0.3102
15849W        W32323  12.698  10.801   1.682 -0.0516  0.1293  0.0504
15850W        W32324   7.629   4.848  14.782 -0.0927  0.1539  0.2185
15851W        W32325   9.113  17.832   3.127 -0.2138  0.2009 -0.0812
15852W        W32326  12.440   5.393   2.558 -0.3791 -0.1696 -0.5625
15853W        W32327  16.133   7.043  14.841  0.0746  0.0750  0.1718
15854W        W32328  14.704  10.603  15.271  0.3093 -0.2434 -0.0247
15855W        W32329   1.917   6.716   5.244 -0.3887  0.0877  0.1112
15856W        W32330   3.399  17.363   1.135  0.0477  0.0813 -0.1395
15857W        W32331  11.183   7.763  15.837  0.0587 -0.0661  0.2321
15858W        W32332  15.276   6.356   2.720 -0.0741 -0.2929 -0.1353
15859W        W32333   5.819   2.133  16.226 -0.2723  0.0130  0.0663
15860W        W32334   6.288  15.177   2.505 -0.0057  0.1214  0.1519
15861W        W32335  15.991   2.830  15.030  0.0013  0.1897 -0.1291
15862W        W32336   5.582  11.686   4.670  0.0182  0.1089  0.2360
15863W        W32337   4.155  17.246  14.631 -0.3640  0.2833  0.0426
15864W        W32338   4.321  15.489   3.717 -0.1355 -0.1512  0.2075
15865W        W32339  12.565   8.375  11.608  0.2434 -0.3662  0.1902
15866W        W32340  16.163  12.187   0.519 -0.2556  0.1041  0.0415
15867W        W32341  14.167  14.090   3.801 -0.0192 -0.2820  0.3794
15868W        W32342   9.754   8.310  11.787 -0.1483  0.1527  0.0595
15869W        W32343  15.296  12.865   1.953  0.0294  0.0299 -0.1929
15870W        W32344  15.343   9.316   3.947 -0.2838 -0.2154  0.0814
15871W        W32345   5.239   4.697   4.389  0.1152 -0.2101  0.3789
15872W        W32346   9.844   6.374  15.531 -0.2134  0.0626  0.0672
15873W        W32347   1.757  11.368   3.250  0.2082 -0.2531 -0.1129
15874W        W32348  13.820   2.099   5.701  0.0353  0.0806  0.0572
15875W        W32349  16.922   6.527  15.782  0.1147 -0.1536  0.3448
15876W        W32350  15.685  13.055  13.434  0.1861  0.0566 -0.1352
15877W        W32351  10.504   5.125  14.409 -0.0214 -0.1364 -0.2354
15878W        W32352   9.560  13.177  13.044  0.0570 -0.1309  0.0536
15879W        W32353   4.542   7.611  13.659  0.3258 -0.1443 -0.1107
15880W        W32354   2.875   1.309   0.132 -0.1695  0.0904  0.2405
15881W        W32355   6.520   6.541  13.927  0.2154 -0.2077  0.1269
15882W        W32356  17.827  16.926  11.868  0.1981 -0.2242 -0.1362
15883W        W32357  16.973   1.215  16.184  0.0741  0.3558 -0.2182
15884W        W32358   4.515   7.596  16.400 -0.0705  0.3256 -0.0081
15885W        W32359  10.995   2.716   2.628 -0.1043  0.0277 -0.0034
15886W        W32360  10.324   2.847   3.182  0.1856  0.1357  0.0639
15887W        W32361   5.432   4.250  11.875 -0.2347  0.3108 -0.0481
15888W        W32362  14.483   0.166   0.823  0.2043  0.2551 -0.0687
15889W        W32363   2.212  15.865  16.620 -0.1201 -0.1982  0.0265
15890W        W32364   7.921  12.097  16.666 -0.0795  0.4063 -0.1922
15891W        W32365  14.061   3.908  14.080 -0.0770 -0.2006  0.1155
15892W        W32366  13.853   8.878   4.193  0.3273  0.3646  0.3134
15893W        W32367  14.942  14.686  13.550  0.0125  0.0954 -0.1647
15894W        W32368   0.206   8.725   3.531  0.2551  0.1344 -0.0821
15895W        W32369   7.167  15.052   1.910  0.1388  0.0936  0.1777
15896W        W32370   7.800   7.081   1.575  0.0816 -0.4938 -0.1037
15897W        W32371  15.228   0.809   4.464  0.0792  0.1529  0.1021
15898W        W32372   3.248  16.051  11.748 -0.2294  0.3073 -0.0481
15899W        W32373  17.964  16.366  12.442  0.0205 -0.2081 -0.4283
15900W        W32374  15.637   3.510  12.267  0.1454  0.2205 -0.0542
15901W        W32375  15.272  12.386  15.853 -0.0898  0.0789  0.0883
15902W        W32376  12.932   8.563   3.759 -0.3612 -0.2737  0.0198
15903W        W32377   5.971   4.198  13.724 -0.2608 -0.1441 -0.0760
15904W        W32378   6.610  17.480  15.580 -0.0509  0.1099 -0.0480
15905W        W32379   2.129  13.408   0.909 -0.0120 -0.2571 -0.0854
15906W        W32380  17.527   0.213  13.018  0.1260  0.2883 -0.0817
15907W        W32381  11.995   3.308  15.424 -0.3570  0.0938 -0.1830
15908W        W32382  16.816   8.720   4.692 -0.0968  0.0789  0.2760
15909W        W32383  14.647   1.987   1.306  0.0239  0.3635  0.1367
15910W        W32384  17.773   1.200   2.281 -0.1070  0.1093 -0.0818
15911W        W32385   5.550  16.223   4.660 -0.2990  0.0147  0.0177
15912W        W32386  12.625  16.830  15.218  0.2421 -0.0416  0.1730
15913W        W32387   0.404   1.381   1.682 -0.1418 -0.1717 -0.4510
15914W        W32388   0.264   5.155   5.351  0.0187  0.1237  0.1056
15915W        W32389   9.452  15.061  15.129  0.1202 -0.0258 -0.1760
15916W        W32390   0.596  15.418   3.778 -0.1561 -0.2714 -0.1492
15917W        W32391  11.184   1.642   2.067  0.2812 -0.1862  0.2056
15918W        W32392   0.414  16.376  14.283 -0.1513 -0.1539 -0.3068
15919W        W32393   6.233  15.145   0.223 -0.1314  0.0719 -0.0597
15920W        W32394  11.795  12.220   3.586 -0.3200  0.1555  0.0385
15921W        W32395  11.565   2.508  14.927  0.1113  0.1139  0.0846
15922W        W32396   4.517  16.591   1.316 -0.1034  0.1903  0.1602
15923W        W32397  17.762  17.378  16.484  0.3259  0.1511  0.1819
15924W        W32398   1.334   7.049  16.776 -0.1869  0.0010  0.0286
15925W        W32399  17.866   2.835   0.651  0.0582  0.2021 -0.0284
15926W        W32400   8.107  13.880   1.661 -0.4247  0.2490 -0.1868
15927W        W32401  12.181   5.253   1.217 -0.2127  0.3410 -0.0645
15928W        W32402  13.199  11.893  16.327 -0.2110  0.3540  0.0814
15929W        W32403   4.900   6.000   1.976  0.0143 -0.1588 -0.0170
15930W        W32404  11.834   8.267  11.948 -0.1280  0.2366  0.0195
15931W        W32405  13.116  10.113  13.734  0.1307  0.1880  0.0002
15932W        W32406   6.078  12.972  14.377 -0.1001 -0.1424 -0.1407
15933W        W32407   5.379   8.035  12.496  0.2834 -0.0581  0.1547
15934W        W32408  12.328   7.143  14.175  0.1493  0.3156 -0.0366
15935W        W32409  13.868   1.136   3.849  0.1428  0.0977  0.1801
15936W        W32410   3.943   5.368  14.443 -0.1531 -0.0569  0.0250
15937W        W32411  10.328   8.242   5.487 -0.0324 -0.5010 -0.0274
15938W        W32412   7.106   7.300   4.336  0.1025 -0.2492 -0.3235
15939W        W32413  12.812   2.596   0.809 -0.0776  0.2398 -0.3045
15940W        W32414   3.929  10.288   4.752 -0.1395  0.0847 -0.2871
15941W        W32415   8.593  12.554   5.066  0.1683 -0.1075 -0.0100
15942W        W32416  13.159   7.718   4.124  0.0950 -0.5050 -0.1307
15943W        W32417  14.811   0.633  12.992 -0.1036 -0.1515  0.0150
15944W        W32418  12.362  13.822  15.219 -0.0619 -0.0386  0.0355
15945W        W32419  17.272   3.009   3.944  0.0121 -0.4773 -0.1951
15946W        W32420   4.175   1.697  12.814 -0.0452 -0.2582  0.0467
15947W        W32421  10.015  10.953   4.653 -0.3094  0.1251  0.0556
15948W        W32422  10.323  13.501   0.209  0.1870  0.0507 -0.3153
15949W        W32423   4.981   2.595  14.650 -0.0369 -0.2798 -0.0541
15950W        W32424  11.866  10.972  12.746 -0.3671 -0.4458 -0.2642
15951W        W32425   4.882  16.121   4.130 -0.1995  0.0179 -0.2835
15952W        W32426   4.760  14.361  13.414 -0.1783  0.1774 -0.1151
15953W        W32427  17.552   0.042   4.815  0.2258  0.0396 -0.0254
15954W        W32428  10.171  14.560  13.589  0.1021  0.0720  0.0877
15955W        W32429   8.579   4.947  15.760 -0.2252 -0.1078  0.1566
15956W        W32430  12.093   8.678   4.589  0.1537 -0.2342 -0.1486
15957W        W32431   1.659   8.757   1.601 -0.0992 -0.1434  0.0616
15958W        W32432   1.351  14.420   3.123  0.3352  0.0107 -0.1300
15959W        W32433   9.716   7.407  15.658  0.2824 -0.1497 -0.1445
15960W        W32434   9.321   9.038   0.594  0.0105  0.1307 -0.0263
15961W        W32435   1.625  13.646   3.091  0.0719 -0.3824  0.0591
15962W        W32436  12.590   4.679   4.927 -0.1526 -0.2837  0.0547
15963W        W32437  16.849  16.525   0.204  0.2259  0.0239 -0.0319
15964W        W32438   8.119  11.688   5.261 -0.0517 -0.2013 -0.2549
15965W        W32439   3.678  16.057  13.713 -0.0722 -0.2840 -0.2577
15966W        W32440   6.139   7.236  12.322 -0.1785 -0.2603 -0.0075
15967W        W32441  11.768   1.247   4.669 -0.0164  0.0400  0.1925
15968W        W32442   1.854  10.061  12.669 -0.2211  0.2206  0.2690
15969W        W32443   2.536   5.772  12.493 -0.2388  0.1045 -0.2666
15970W        W32444  12.799   5.976  13.641 -0.1746  0.2386 -0.0859
15971W        W32445   9.355   5.918   5.619  0.0102  0.1085  0.0772
15972W        W32446  14.032  15.918  12.017  0.3560 -0.2563  0.2792
15973W        W32447   8.752  13.704   2.996 -0.3372  0.1667  0.1225
15974W        W32448   5.645  17.220  15.643 -0.1588  0.0474 -0.1167
15975W        W32449  12.266  17.710   1.462  0.0567 -0.1594 -0.1323
15976W        W32450  12.059   1.635  12.589 -0.0244 -0.0046  0.3159
15977W        W32451   6.108  15.570   3.922 -0.1305 -0.0256  0.2547
15978W        W32452  15.864   8.244   3.776  0.1068  0.2366 -0.1008
15979W        W32453  14.301   8.161   5.463 -0.0796  0.3067 -0.0805
15980W        W32454  17.359  10.211   1.840 -0.1135 -0.0350 -0.1476
15981W        W32455   6.398  14.728   4.268  0.2144  0.1290  0.0035
15982W        W32456   2.531   4.407  12.460 -0.2421 -0.0732 -0.2571
15983W        W32457   1.325  15.080  15.115 -0.1234 -0.1983 -0.2197
15984W        W32458  10.236   3.237  16.340  0.1339 -0.0074  0.2676
15985W        W32459   7.391   0.547  12.524 -0.0779  0.1565 -0.0865
15986W        W32460   2.082   4.770   3.207  0.3094  0.1289  0.0309
15987W        W32461  12.556   4.478  11.818 -0.2938 -0.1645 -0.1498
15988W        W32462  12.582  13.247  14.482 -0.0543 -0.0020 -0.1427
15989W        W32463  16.701   6.660  16.647  0.2968  0.2162 -0.1294
15990W        W32464   1.413  14.352  15.594  0.2631  0.0932 -0.2441
15991W        W32465   4.724  11.558   2.123  0.1276 -0.0082 -0.1761
15992W        W32466   9.558   4.238  13.045 -0.0597 -0.1006 -0.2287
15993W        W32467  12.063   2.621   1.910  0.1167 -0.1247 -0.0664
15994W        W32468  15.852   1.426  13.523  0.0229 -0.1893 -0.1010
15995W        W32469   9.370   1.694  13.993  0.1749  0.5106  0.1023
15996W        W32470   4.871  11.403  16.549  0.1634 -0.1814 -0.0430
15997W        W32471  10.066  13.228  16.372  0.0106 -0.1360 -0.2037
15998W        W32472  13.568   2.020   3.449 -0.1451  0.1120  0.3171
15999W        W32473   0.861   1.912   4.186 -0.1073  0.1261 -0.2434
16000W        W32474  15.261   9.288  12.549 -0.2297 -0.2090 -0.0720
16001W        W32475   1.724   6.757  16.027 -0.0736  0.0408 -0.1674
16002W        W32476  10.847  15.536   0.784  0.1590  0.0700 -0.0448
16003W        W32477  12.127  14.080   1.126  0.1825 -0.1902 -0.4437
16004W        W32478   0.388   4.006   0.244  0.3277 -0.0634 -0.0397
16005W        W32479   6.596   7.719  14.756  0.2378 -0.1012 -0.0435
16006W        W32480   9.105   4.313  11.830  0.1059  0.2455 -0.1593
16007W        W32481   1.358  15.396   5.570  0.1160 -0.0717  0.0563
16008W        W32482   2.996  16.178   1.529 -0.0632  0.0066  0.0190
16009W        W32483   0.165  15.260  13.106  0.0259  0.0276  0.2632
16010W        W32484   8.510   6.961   3.229 -0.3248 -0.2552 -0.3375
16011W        W32485   4.187   6.501   2.125  0.1168 -0.2139  0.1067
16012W        W32486   9.822   1.729  12.639 -0.4332 -0.1584 -0.2144
16013W        W32487  17.095  10.554  13.490  0.1088  0.2589  0.0711
16014W        W32488   5.877  10.686  12.575 -0.1797 -0.0180  0.0025
16015W        W32489   9.873  14.033   3.074 -0.0274  0.1804  0.0690
16016W        W32490  14.915  15.614   3.913 -0.2421 -0.1916  0.1383
16017W        W32491   8.368  11.960   6.167  0.2847  0.0106 -0.1389
16018W        W32492  15.132   8.630  14.631  0.1140  0.0338  0.2730
16019W        W32493   8.248   4.994   2.058 -0.1511  0.0068  0.4220
16020W        W32494   4.403  13.405  11.300  0.2560 -0.0949 -0.0002
16021W        W32495   9.043   5.123  12.450  0.1604 -0.3853  0.3390
16022W        W32496  15.359   3.014   4.827  0.1141  0.1384 -0.0329
16023W        W32497  10.705  11.991   5.316  0.2955  0.0170 -0.0660
16024W        W32498  17.167   7.188  13.643  0.2283 -0.1880 -0.0505
16025W        W32499  16.977  16.523   2.856 -0.1438 -0.1428  0.0104
16026W        W32500  12.210  12.906   3.981  0.0079 -0.0531 -0.0240
16027W        W32501   6.846   5.164  13.689  0.1535  0.0607  0.0456
16028W        W32502  13.910  17.096   4.644  0.3798  0.2599  0.2787
16029W        W32503  12.770  11.344   5.710 -0.0481  0.2308  0.0466
16030W        W32504  11.947   9.059  11.718  0.0664 -0.2863  0.0386
16031W        W32505  11.444   5.301  13.862  0.1512 -0.0916  0.1377
16032W        W32506  16.211  10.472   1.885  0.0123 -0.0461 -0.0767
16033W        W32507   2.945   7.105   0.816 -0.0474  0.0641 -0.0695
16034W        W32508  17.570   9.170   3.242 -0.0477  0.1119 -0.0165
16035W        W32509  17.894   5.433   1.343  0.0985  0.0768 -0.0337
16036W        W32510   6.216  17.492   5.268  0.0095  0.0019  0.1134
16037W        W32511  16.404   4.994  14.278  0.1472 -0.0004 -0.1107
16038W        W32512  16.676  14.623   0.023 -0.0371  0.0242 -0.0769
16039W        W32513  16.539  13.245   1.239  0.1375  0.3318 -0.1667
16040W        W32514  13.663   6.667  14.355  0.0959  0.0302 -0.0171
16041W        W32515  17.964   5.084   3.204  0.3648  0.1040 -0.0951
16042W        W32516  11.928   5.475   5.523  0.1420  0.1773  0.2964
16043W        W32517  13.834  12.433   4.634  0.4758 -0.0358  0.2076
16044W        W32518  12.766  12.929   5.441 -0.2058 -0.2486 -0.4377
16045W        W32519   3.539   8.507   3.928 -0.1334 -0.1101 -0.1698
16046W        W32520   8.027  10.065  11.516 -0.2817  0.0263  0.2407
16047W        W32521  17.014   9.442  14.692 -0.1350 -0.0506 -0.1061
16048W        W32522   2.403  13.470  10.162  0.1693  0.0616  0.0631
16049W        W32523   8.999   4.489   2.124 -0.0307 -0.1964  0.0652
16050W        W32524  11.086  12.486  13.126  0.3865 -0.1388 -0.3274
16051W        W32525  15.933  14.979   6.264  0.0539  0.1839 -0.0060
16052W        W32526  13.047  14.662  12.593 -0.1404  0.0478  0.0970
16053W        W32527  11.049   9.115  12.812 -0.4154  0.2781  0.2756
16054W        W32528   9.684   0.762  13.883 -0.1894  0.1558  0.0674
16055W        W32529  14.245   5.348  12.734 -0.1592 -0.0135 -0.2051
16056W        W32530   4.252  16.455  14.444 -0.0346  0.1602 -0.1255
16057W        W32531   5.968   0.147  14.414  0.1229 -0.1664  0.2393
16058W        W32532  15.997   1.421   1.459  0.1572 -0.0802 -0.0802
16059W        W32533   1.305   7.567   0.195  0.0752  0.2032  0.0179
16060W        W32534   5.326   9.463  15.490  0.0515 -0.2749  0.0644
16061W        W32535   9.803   3.815  15.450  0.0353 -0.0151  0.1403
16062W        W32536  10.174  14.460  14.122 -0.1478  0.1252 -0.1093
16063W        W32537   0.956   1.440  11.939  0.0895  0.0177 -0.1017
16064W        W32538   1.312   2.362  16.624  0.1259 -0.2568 -0.1668
16065W        W32539   0.236  11.998   4.925 -0.2620 -0.1343 -0.0441
16066W        W32540  14.334  17.231  14.642  0.2888 -0.1536  0.0048
16067W        W32541   9.435  14.432   3.714  0.1373  0.0125 -0.0723
16068W        W32542   1.406   4.153  14.575  0.1324 -0.1943 -0.0801
16069W        W32543   4.384  13.154  15.479 -0.1109 -0.2264 -0.1799
16070W        W32544   7.511  16.478  14.286 -0.4437 -0.2844  0.0690
16071W        W32545   1.267  10.649  15.587 -0.4882  0.1528 -0.1530
16072W        W32546  15.309   4.382  12.968 -0.1907 -0.1969 -0.1375
16073W        W32547  11.562   7.788   2.888 -0.0277  0.2868 -0.0041
16074W        W32548  10.998  15.213   3.005 -0.0007 -0.2872  0.1136
16075W        W32549  13.036   8.497  12.967  0.0371 -0.0085  0.3301
16076W        W32550  11.093  16.947  16.534  0.0214  0.0997  0.2138
16077W        W32551   6.408  11.258   3.455  0.1607 -0.0314 -0.0420
16078W        W32552  12.554  17.887  12.883  0.1319 -0.0604  0.0369
16079W        W32553  13.407   8.205   0.079  0.0875 -0.1815  0.1362
16080W        W32554   2.793  17.412  11.576  0.0604 -0.1601  0.0294
16081W        W32555   0.276   5.040  12.091 -0.1769  0.0530  0.0453
16082W        W32556  13.420   2.807  12.861 -0.0435 -0.0056  0.1156
16083W        W32557   3.867  11.939  12.750 -0.3228 -0.0586 -0.1803
16084W        W32558  16.857   3.427  12.053 -0.1327 -0.2143 -0.3645
16085W        W32559   2.356   6.713  13.901  0.0355 -0.0708  0.1034
16086W        W32560  15.120  14.108   5.691  0.0404  0.0169  0.3134
16087W        W32561   7.088  17.411   0.675 -0.0473 -0.1529 -0.0978
16088W        W32562  11.157   2.124  11.298 -0.1696 -0.2533  0.0295
16089W        W32563   5.898   7.128   1.702  0.4115  0.1302  0.1398
16090W        W32564   2.640   0.270  13.244  0.0187  0.1694  0.0033
16091W        W32565   7.887   1.873   1.404  0.1872  0.1035 -0.0540
16092W        W32566  15.949  10.021  15.023  0.4158 -0.0916  0.0065
16093W        W32567  17.224  10.544   4.265  0.0737 -0.0141 -0.0164
16094W        W32568   7.148  11.426   2.777  0.0560  0.1778 -0.1245
16095W        W32569   4.100  10.594   4.407  0.1171  0.1048 -0.0211
16096W        W32570   3.228   0.855  13.009 -0.0018  0.2976  0.0970
16097W        W32571   9.479  12.470  16.736 -0.2119 -0.1853 -0.2436
16098W        W32572  11.796   4.657   5.259 -0.1880  0.1289 -0.2218
16099W        W32573  14.193   4.230  14.534  0.1974  0.0283  0.3842
16100W        W32574   1.883   9.536  12.751  0.1862  0.0943 -0.0879
16101W        W32575  17.272   6.699  13.889 -0.1582 -0.1203  0.0328
16102W        W32576   3.520   7.738  14.434 -0.2762  0.0545  0.0115
16103W        W32577   8.130   3.141  13.058  0.3054  0.0794  0.2263
16104W        W32578  11.754   8.118   0.754  0.0728  0.2918 -0.4873
16105W        W32579  15.560   4.650   3.929 -0.1530 -0.2952 -0.0374
16106W        W32580   2.817   2.305   3.258 -0.1688  0.1129  0.0558
16107W        W32581  14.060   6.573  14.666  0.0772  0.0638 -0.2189
16108W        W32582  12.742  11.101   2.237  0.0767  0.2216 -0.0716
16109W        W32583   1.693   4.613   2.946  0.0855 -0.0907 -0.1763
16110W        W32584   2.489   9.723   3.659  0.0186  0.4022 -0.0047
16111W        W32585   9.236  13.930   5.142 -0.1942 -0.1194 -0.2440
16112W        W32586   7.562   2.256   5.715  0.1629 -0.0666  0.1516
16113W        W32587   0.815   0.541  14.356 -0.0515 -0.0604  0.1057
16114W        W32588  16.313  13.548   4.333  0.1307 -0.1599  0.0851
16115W        W32589  11.081   2.256   0.785 -0.3055 -0.0149  0.2612
16116W        W32590  12.454   4.346  12.803 -0.0261  0.1282 -0.0625
16117W        W32591  13.925  11.627   4.643 -0.0111 -0.1004 -0.2182
16118W        W32592  16.383  11.098  12.309  0.1497 -0.0658 -0.1613
16119W        W32593  16.480   5.901   0.497  0.1314  0.0078  0.1709
16120W        W32594   2.583  11.863   2.119  0.0858 -0.1258  0.0997
16121W        W32595  15.233  11.062   4.918 -0.1435  0.3236  0.0718
16122W        W32596   3.411  11.993   0.843 -0.1114  0.2842 -0.0764
16123W        W32597  17.373  11.310  15.971  0.3937  0.1805  0.1932
16124W        W32598   9.122  16.789  15.077  0.0520  0.1132 -0.1435
16125W        W32599  10.972   2.509   2.164  0.1393  0.3853  0.0438
16126W        W32600  12.057   4.860   4.189  0.2876 -0.0695  0.1369
16127W        W32601   5.489  12.715   2.407  0.0033  0.2394 -0.0438
16128W        W32602   1.609   6.858  14.506 -0.1128  0.0163  0.0168
16129W        W32603   9.956   8.738   2.726 -0.2160  0.0802 -0.2054
16130W        W32604   8.746   3.795  14.580 -0.1320 -0.1017 -0.0002
16131W        W32605  14.822   9.835  12.968 -0.0371  0.3389 -0.0110
16132W        W32606   9.789  17.351  12.216  0.0893 -0.2237 -0.2851
16133W        W32607  14.451  11.648  13.861 -0.2880  0.1110  0.0038
16134W        W32608  17.084   0.319   3.911  0.1251  0.1158 -0.0184
16135W        W32609  17.635   7.663   4.990 -0.1060  0.1279 -0.1779
16136W        W32610  13.098   6.165   1.510  0.0718  0.3357 -0.2235
16137W        W32611  15.915  11.990   4.757  0.0185  0.0075  0.1455
16138W        W32612   0.610   7.679  14.983  0.3583  0.0455  0.2066
16139W        W32613  13.128  15.196  15.722 -0.0280 -0.4322 -0.1005
16140W        W32614   4.686  16.737  16.713 -0.1147 -0.0634 -0.0068
16141W        W32615   8.785   1.920   3.532  0.0129  0.2040  0.0573
16142W        W32616   6.752   4.769   2.178  0.1262  0.1877  0.1831
16143W        W32617   4.656   3.725  11.745 -0.1254  0.0585  0.2052
16144W        W32618  11.469  14.697  11.556 -0.1657  0.0205 -0.2739
16145W        W32619  17.344   4.065  15.993 -0.0070 -0.1949  0.0860
16146W        W32620  17.973  14.563  16.201  0.1011  0.0127  0.1085
16147W        W32621   4.064   5.611  15.264 -0.0188  0.0691  0.3576
16148W        W32622   8.459   2.798  16.173  0.0049  0.2428 -0.1374
16149W        W32623   7.857   9.340  13.462  0.0068 -0.2349  0.2351
16150W        W32624   4.226   6.359   3.705  0.3116 -0.0162 -0.0476
16151W        W32625   9.401  12.320  14.678 -0.3581  0.0755 -0.0234
16152W        W32626  17.349   6.234  15.440 -0.2577  0.3355  0.1024
16153W        W32627   3.026  12.246   4.600 -0.1220  0.1509  0.1846
16154W        W32628  10.817   9.377  13.644 -0.0194  0.2006 -0.1765
16155W        W32629   7.600   8.226  16.460 -0.1027 -0.0936 -0.2647
16156W        W32630  17.255   4.693   4.802 -0.1059  0.0259  0.1076
16157W        W32631   4.997   0.802  11.463 -0.0534  0.1076 -0.0258
16158W        W32632  13.460   9.500   3.657  0.0040  0.0000 -0.2839
16159W        W32633   4.462   6.194  13.048 -0.1379 -0.0917  0.1738
16160W        W32634  10.153  14.433  12.222 -0.1040  0.2012 -0.0846
16161W        W32635  10.171   8.855   4.476 -0.0985 -0.0388 -0.4282
16162W        W32636   3.800   1.929   4.775 -0.1108 -0.1748  0.1012
16163W        W32637   5.152  11.952   3.652  0.2108  0.1677  0.0811
16164W        W32638  14.986   8.140  12.370 -0.0456  0.1650  0.1127
16165W        W32639  12.530  10.341  16.227 -0.1181 -0.1726 -0.0032
16166W        W32640   0.012  11.327   2.101 -0.2090 -0.4059  0.2788
16167W        W32641  12.407  14.506   5.819 -0.1313  0.0118  0.0096
16168W        W32642   1.103   7.375   4.211  0.0465  0.2631 -0.1237
16169W        W32643   8.669   9.921   5.717  0.0190  0.4560 -0.4459
16170W        W32644  10.607  11.869  13.374 -0.0790 -0.0251 -0.1220
16171W        W32645  17.944  12.333   2.766 -0.3652  0.0043 -0.0492
16172W        W32646   7.187   2.026  13.567 -0.0061  0.2472  0.0667
16173W        W32647   4.091  11.055  14.320 -0.3391 -0.2873  0.0529
16174W        W32648   2.896   1.265   6.045 -0.1685 -0.0420 -0.0103
16175W        W32649  11.564   3.347   2.393 -0.0551 -0.1908  0.3478
16176W        W32650  13.911  17.063  11.793  0.1976 -0.0247  0.0084
16177W        W32651   5.756   0.049   2.870 -0.0677 -0.2406  0.0308
16178W        W32652  10.642  10.584   1.409 -0.3364 -0.0080  0.1655
16179W        W32653   0.980  15.789  11.216  0.0847 -0.0957  0.1828
16180W        W32654  16.937   4.196   4.316  0.3740 -0.2281  0.0561
16181W        W32655  16.500  17.409  15.689 -0.1020 -0.2208  0.0039
16182W        W32656   4.401   0.564  15.452  0.1117 -0.1277  0.1507
16183W        W32657   8.614  16.006   0.724  0.0715 -0.2235  0.0380
16184W        W32658   4.682  11.964   4.784  0.2952  0.0551 -0.2423
16185W        W32659   0.044  12.562  13.642 -0.0803 -0.2849 -0.2505
16186W        W32660   8.413   1.465   2.815  0.5507  0.2511 -0.3424
16187W        W32661  10.856  17.254  12.555 -0.0895 -0.0542 -0.0152
16188W        W32662  15.661  14.425   4.451  0.1237 -0.1864  0.3940
16189W        W32663  11.628   3.157   0.178 -0.0788  0.0167 -0.0470
16190W        W32664  14.884   0.227  13.381 -0.1138  0.1007 -0.0968
16191W        W32665  13.259   5.429  12.521  0.0944 -0.2149 -0.1793
16192W        W32666  15.100  16.109  14.420  0.0081 -0.0207  0.1153
16193W        W32667  15.873   8.365   4.710  0.3346  0.1551 -0.0503
16194W        W32668  10.211   6.607  14.690  0.2415  0.2446  0.1080
16195W        W32669   2.167  14.603  12.125  0.2186  0.0145  0.0790
16196W        W32670   2.672  11.896  11.701 -0.2742 -0.0394  0.0639
16197W        W32671   0.561   2.366  14.076 -0.2654 -0.1982 -0.0047
16198W        W32672  17.520   8.724  14.258 -0.2910 -0.0623 -0.1608
16199W        W32673  17.106   4.114  12.488 -0.0011  0.1368 -0.2351
16200W        W32674  13.912  14.540   1.188 -0.2741  0.1202  0.1665
16201W        W32675   0.066   6.943   0.423 -0.1191 -0.0683  0.0144
16202W        W32676   1.232   1.985   0.654 -0.2291 -0.0443  0.0685
16203W        W32677  12.561   2.729  15.850  0.0424 -0.0582 -0.0210
16204W        W32678   1.020  13.847  11.916  0.0560 -0.2034 -0.1316
16205W        W32679   7.387   4.913   0.360  0.0750  0.2690  0.2229
16206W        W32680  12.766  11.519  14.067  0.0219 -0.1375 -0.0921
16207W        W32681   5.018   8.264  16.577 -0.2263 -0.3301 -0.0574
16208W        W32682   6.754   7.819   4.487 -0.1422  0.1031 -0.0034
16209W        W32683  10.435   6.833  12.210 -0.1597 -0.0975  0.0586
16210W        W32684   8.981  14.186  15.457 -0.0941  0.1497  0.1751
16211W        W32685   6.799   0.981  15.479  0.2012 -0.1802 -0.3797
16212W        W32686   1.233  16.797   1.576  0.1370  0.0574 -0.2196
16213W        W32687   0.821   9.208  11.691 -0.1288  0.2034 -0.2117
16214W        W32688   4.645  10.396  16.765 -0.1012 -0.0297 -0.2085
16215W        W32689  11.038  15.720  16.283  0.1850 -0.1633  0.1305
16216W        W32690   6.136   8.541   1.719 -0.1962  0.1948 -0.3913
16217W        W32691   9.759   0.210   2.484  0.0342  0.0963  0.0517
16218W        W32692   4.814   3.131  11.693 -0.1044  0.0475 -0.0573
16219W        W32693  10.406   1.161   3.212  0.1633 -0.0541 -0.0263
16220W        W32694   4.621   0.189  15.718 -0.0123  0.3074  0.1121
16221W        W32695  14.606   0.553   3.398 -0.0171  0.2666 -0.3287
16222W        W32696   2.014  14.769   4.962  0.0992  0.1140  0.0482
16223W        W32697   3.309   1.505   5.401 -0.2304 -0.1958 -0.3375
16224W        W32698   6.723   3.789   3.037  0.2491  0.0939 -0.2048
16225W        W32699  16.913  13.483   5.161  0.0430  0.0916  0.2471
16226W        W32700  16.536  15.314  12.884  0.1783  0.0172  0.0608
16227W        W32701   8.347   7.126   4.848 -0.0326 -0.1104  0.0705
16228W        W32702  12.019   5.475   4.986  0.0985 -0.0226 -0.1823
16229W        W32703  15.519   9.041  13.030  0.2708  0.0487 -0.3859
16230W        W32704   9.837   6.511   3.985  0.1826  0.0954 -0.2807
16231W        W32705   3.903  11.443  15.131  0.1960  0.1185 -0.0094
16232W        W32706   9.357   7.634   1.648  0.0083  0.0772  0.1804
16233W        W32707   3.274  11.757  12.508 -0.1473 -0.0579  0.0713
16234W        W32708   9.110  14.392  12.929  0.0536  0.4449  0.0464
16235W        W32709   4.771  11.776  12.882 -0.2795 -0.2316 -0.1279
16236W        W32710   0.374   9.467   0.022  0.0283 -0.1117 -0.1966
16237W        W32711   3.016   8.550  13.553  0.0749 -0.1991  0.0600
16238W        W32712   4.016   2.502   1.418 -0.0647  0.1519  0.2002
16239W        W32713  12.454   5.469  15.870  0.1035 -0.2579 -0.0299
16240W        W32714  17.696  15.772  13.526 -0.0587  0.1124 -0.1883
16241W        W32715   3.295  12.149   0.053 -0.0263 -0.1786 -0.1782
16242W        W32716  10.936   9.842   1.633  0.0004  0.0274 -0.2299
16243W        W32717   7.590  12.363   4.868 -0.0696 -0.0003  0.0893
16244W        W32718   1.028  14.744  14.325 -0.2063  0.1050  0.0976
16245W        W32719   7.304   6.487  12.303 -0.1091  0.1501 -0.0037
16246W        W32720  10.789   7.371  12.136 -0.1629  0.0605  0.2995
16247W        W32721  15.679   3.029  14.113 -0.1764  0.1139  0.4512
16248W        W32722  10.902   0.663   1.894  0.2678  0.1275 -0.2800
16249W        W32723  13.768   4.850   4.532  0.1160  0.0372 -0.2745
16250W        W32724   6.180   6.724   5.802  0.2740 -0.2512  0.3912
16251W        W32725  11.518   1.846  12.662  0.0754 -0.2403  0.1296
16252W        W32726   1.465  17.671   4.093 -0.1410  0.4061  0.1783
16253W        W32727  11.589  14.199  14.587 -0.0573 -0.3788  0.0108
16254W        W32728  16.424   6.995   2.359 -0.1013 -0.2899  0.0639
16255W        W32729   8.273   2.519  15.243  0.1974  0.1204  0.0044
16256W        W32730  10.061   2.412  15.090 -0.1310  0.0119 -0.2488
16257W        W32731  15.900   3.654  11.807  0.0199 -0.1077  0.1364
16258W        W32732   0.750   0.274  16.075  0.0878  0.0758  0.1271
16259W        W32733   4.213  14.688  10.182 -0.0238 -0.0380 -0.0492
16260W        W32734   1.861  16.925  15.839  0.1968  0.1253 -0.0065
16261W        W32735  10.365  11.726   0.602  0.1220 -0.1880  0.1910
16262W        W32736  11.883  17.492  12.448  0.3010  0.0340  0.0782
16263W        W32737   5.118   4.319   2.671 -0.2023 -0.2456  0.0180
16264W        W32738  10.102   8.076   0.419  0.2524 -0.1407  0.3072
16265W        W32739   4.630  15.779  15.836 -0.0453 -0.0832  0.3609
16266W        W32740   3.551   4.754   1.273  0.0556  0.0971  0.4746
16267W        W32741   5.876   2.179   0.869  0.0511  0.1513 -0.1241
16268W        W32742   4.653   4.601  15.863 -0.2130 -0.4181  0.1202
16269W        W32743   2.283  16.614  16.052  0.0273 -0.3154 -0.0466
16270W        W32744   2.741   7.905  16.026  0.0402 -0.1410 -0.0707
16271W        W32745  12.825  16.357  13.397 -0.3504  0.2446  0.0089
16272W        W32746  17.628  13.494  11.486  0.1092 -0.0001 -0.0894
16273W        W32747   9.905   1.112   2.986 -0.0345  0.1252  0.1310
16274W        W32748   9.784   1.356  15.767 -0.0201  0.4734  0.0790
16275W        W32749  16.156  11.137   2.286 -0.0118  0.2716 -0.3051
16276W        W32750   3.477   6.895   3.239 -0.1331  0.4130 -0.1339
16277W        W32751   7.491   2.913  14.116 -0.3059 -0.0705  0.0624
16278W        W32752   8.232  16.165  15.001  0.0199  0.0710  0.0041
16279W        W32753   5.002   5.688  13.650  0.1897  0.0142 -0.1233
16280W        W32754   5.358  17.684  15.613 -0.1399 -0.1887 -0.2530
16281W        W32755   2.356   7.699  12.318 -0.3524  0.1934 -0.2628
16282W        W32756  13.534   9.869   3.960 -0.2782  0.4366  0.1026
16283W        W32757   8.420  15.039   1.569 -0.0178 -0.0977 -0.0783
16284W        W32758  15.329   3.586  15.056 -0.0009 -0.1338  0.0868
16285W        W32759  17.768  12.537  13.205 -0.2865 -0.0129 -0.0219
16286W        W32760   5.809  13.046  12.079 -0.0598 -0.0944 -0.0629
16287W        W32761  14.876   2.666   0.104 -0.0592 -0.0898 -0.1681
16288W        W32762  17.706  13.672   0.451 -0.0401  0.0886  0.0336
16289W        W32763  15.670   6.000   4.317  0.2290  0.1750 -0.2757
16290W        W32764   2.750  16.977   5.464  0.2012 -0.0010  0.1941
16291W        W32765  16.416  11.754   0.556 -0.1860  0.1342 -0.1655
16292W        W32766   6.912   6.615   2.419 -0.0674 -0.1223  0.1528
16293W        W32767   8.163   5.791  14.988  0.1882  0.0703 -0.0864
16294W        W32768   6.541   8.218   0.005 -0.1288 -0.3389 -0.1458
16295W        W32769  17.495   0.648   4.000  0.1712  0.1262  0.1671
16296W        W32770   0.359   3.992  16.136  0.2641 -0.1501 -0.0464
16297W        W32771   6.912   1.699   1.048  0.3706 -0.1649  0.5061
16298W        W32772   9.155   5.849   4.886  0.0581 -0.2149  0.0152
16299W        W32773   0.867   7.685   5.162  0.0040 -0.1044 -0.1371
16300W        W32774  11.966  13.108  13.439  0.1979 -0.1002 -0.2597
16301W        W32775  17.625  17.041   3.806  0.1684  0.0527 -0.1284
16302W        W32776   5.608  14.488   5.276  0.1450 -0.0674  0.1310
16303W        W32777  11.636   4.872  12.996 -0.0986  0.0206  0.4420
16304W        W32778   0.295   0.551  15.180  0.1077 -0.2414 -0.0837
16305W        W32779  14.745   1.434   4.005  0.1320  0.1963 -0.3002
16306W        W32780  16.589   9.093   1.340 -0.1761  0.0272  0.4733
16307W        W32781   3.609   7.766  11.947 -0.3150 -0.1582 -0.1869
16308W        W32782   0.581   4.484  16.199 -0.2283  0.0021  0.1063
16309W        W32783   0.832  15.165   5.424 -0.0675  0.1041  0.0147
16310W        W32784   4.730   2.549   0.056 -0.0866  0.3007 -0.2785
16311W        W32785   9.596   3.947  14.425 -0.0784 -0.1238 -0.0084
16312W        W32786   9.883  17.302   4.420  0.2008 -0.2422  0.1928
16313W        W32787  16.735  16.812  12.541  0.1481  0.3544 -0.1448
16314W        W32788   4.539   6.141   2.755  0.2023  0.0851 -0.0411
16315W        W32789  11.842   1.870   4.263  0.0917 -0.3305 -0.1741
16316W        W32790  12.119   6.225  16.439  0.0751 -0.1848  0.0181
16317W        W32791   3.781   5.596   5.256  0.1606 -0.0954 -0.0644
16318W        W32792  15.415   7.803   6.194  0.3002  0.0961 -0.2945
16319W        W32793   2.328   8.386   3.722  0.2691 -0.0685  0.1073
16320W        W32794  17.110   6.374   3.164 -0.0305  0.0524  0.1702
16321W        W32795   6.272  11.235   1.903 -0.0520  0.0828  0.2148
16322W        W32796  12.367  17.505   0.022  0.2375 -0.0054  0.0517
16323W        W32797   3.847  11.736  11.037  0.1136  0.0544  0.3041
16324W        W32798  16.405   6.400   4.749 -0.2779  0.0310  0.0412
16325W        W32799  13.951   8.059  12.486  0.3706  0.1692  0.1319
16326W        W32800  12.625   0.817   3.129 -0.5364 -0.1439 -0.2930
16327W        W32801   8.707  17.827  11.970  0.0516  0.0637  0.2600
16328W        W32802  17.282  12.311  13.215 -0.1334 -0.0265 -0.0566
16329W        W32803  14.695   3.492   0.512  0.0078 -0.0134  0.2220
16330W        W32804  11.042   0.584  12.235  0.4272 -0.0404  0.3519
16331W        W32805   7.515   1.069  12.980  0.0748 -0.0576  0.1585
16332W        W32806   3.331  16.558  12.358 -0.1343  0.1941 -0.2330
16333W        W32807  12.856   4.506  16.440 -0.1908  0.1810 -0.0419
16334W        W32808   4.973   6.047   0.548  0.1466 -0.0859 -0.0523
16335W        W32809  13.918   1.712  15.665  0.1635  0.0009 -0.1006
16336W        W32810   5.399   2.084  14.589  0.2194 -0.0759  0.0207
16337W        W32811  16.941   3.785  16.199  0.0862 -0.1280  0.0549
16338W        W32812   4.388   0.650   0.238  0.0908 -0.1810 -0.3798
16339W        W32813  12.672  17.108   0.347 -0.3876  0.0915 -0.0284
16340W        W32814   7.697   5.182  13.928 -0.0855  0.4668 -0.2182
16341W        W32815  17.523   8.989  12.095  0.0572  0.0401 -0.0331
16342W        W32816   8.196   1.990  15.028  0.1972  0.1055 -0.1215
16343W        W32817   9.749   2.788  15.194  0.1467 -0.2288 -0.0084
16344W        W32818   5.913   4.224  12.902 -0.0559 -0.0615  0.0207
16345W        W32819   5.762  11.219  12.332 -0.1142 -0.1145  0.1218
16346W        W32820   6.136   3.473  14.732 -0.1810 -0.1261 -0.0654
16347W        W32821   8.333  14.722  13.569  0.1186  0.1489 -0.1507
16348W        W32822   4.560  11.119   2.189  0.3183  0.0726 -0.1930
16349W        W32823   4.374   1.706   0.239 -0.0196  0.0147 -0.2674
16350W        W32824  12.382   9.701  14.832 -0.2098 -0.2574  0.0581
16351W        W32825  17.089  14.320  16.136  0.0247 -0.0321  0.0691
16352W        W32826  10.759  10.010   5.747 -0.2885  0.0429  0.3356
16353W        W32827   3.813   3.384   3.335 -0.3464 -0.0950  0.2411
16354W        W32828   3.001  15.661   0.831 -0.0652 -0.1995  0.0392
16355W        W32829   1.213   5.161   5.370 -0.0264 -0.0609 -0.0860
16356W        W32830   6.109   0.897   2.133  0.1422 -0.3697  0.0578
16357W        W32831   9.340   3.358  11.642  0.0699  0.0691 -0.0493
16358W        W32832  14.590  15.933   2.513  0.3164  0.1924  0.1103
16359W        W32833   2.257   6.709   3.084 -0.0224 -0.0657  0.1332
16360W        W32834   9.008  16.767   0.807  0.2354  0.2914 -0.0167
16361W        W32835  10.788  13.230   4.048  0.0879 -0.1741  0.0717
16362W        W32836   2.678   0.288  12.277 -0.1884  0.3783  0.2490
16363W        W32837   4.431  10.401   5.538 -0.2024 -0.1964  0.0697
16364W        W32838   6.982   9.608   1.577 -0.3860 -0.4210 -0.0580
16365W        W32839  11.187  17.548   0.679 -0.2423  0.2453  0.4139
16366W        W32840   4.430  15.366  15.642 -0.2070 -0.2124 -0.0313
16367W        W32841  17.957   0.339  13.216  0.4179  0.0886  0.1142
16368W        W32842   6.651  10.138  14.244  0.1623 -0.3314  0.0472
16369W        W32843   3.326   1.908  15.550 -0.0787 -0.3521  0.2052
16370W        W32844   5.368   3.291  15.115 -0.0386 -0.1018  0.1276
16371W        W32845  16.616   7.859  12.458  0.0657  0.0459  0.0628
16372W        W32846  11.340   1.380   3.714  0.0441 -0.1600  0.2363
16373W        W32847  16.941  12.726  15.012 -0.1010  0.0613  0.0523
16374W        W32848   3.274  14.498  13.588 -0.2752 -0.2886  0.2178
16375W        W32849   6.021  13.139   5.333  0.2787  0.2980 -0.1723
16376W        W32850   8.463   4.032   4.070 -0.0368 -0.3031 -0.0738
16377W        W32851   7.390  10.136  13.165  0.1393  0.0941  0.0307
16378W        W32852   6.898   2.779  13.239 -0.0612  0.2607  0.0923
16379W        W32853  14.285  15.253  13.203  0.3019  0.1751 -0.0703
16380W        W32854   4.616   0.824   5.020 -0.1819  0.2302 -0.0454
16381W        W32855   9.709   4.350   0.031  0.0674  0.0696 -0.1951
16382W        W32856   3.145   5.060   1.170  0.1287  0.1543  0.4222
16383W        W32857   4.619  10.234  15.271  0.0600  0.0763 -0.1630
16384W        W32858   0.160   4.608  14.891  0.3083 -0.2927  0.2502
16385W        W32859  13.831   0.460  16.156  0.2019  0.0995  0.1918
16386W        W32860  12.599  13.690   4.883 -0.1723 -0.1173 -0.2056
16387W        W32861   6.214  15.119  15.232 -0.1759 -0.0480  0.2107
16388W        W32862  17.389  16.206  16.415 -0.1894  0.1328 -0.0444
16389W        W32863   1.434   0.354  11.205 -0.0813  0.1525  0.0939
16390W        W32864   6.852   6.431   3.684 -0.0127 -0.1448  0.0831
16391W        W32865  12.876   6.536   2.394 -0.1921  0.3208  0.2020
16392W        W32866   1.581  10.033  15.980 -0.0615 -0.0478  0.2263
16393W        W32867   7.810  14.071  12.333 -0.1170 -0.0779  0.0558
16394W        W32868  16.378  16.518   4.463 -0.0180 -0.0491 -0.1315
16395W        W32869   9.511   7.138   3.630 -0.0232 -0.0015 -0.1345
16396W        W32870   8.182   7.737  16.227  0.0194  0.1418 -0.2673
16397W        W32871   7.366   4.643   1.337 -0.0507 -0.1371 -0.4362
16398W        W32872   1.856   3.415   1.314 -0.1054  0.3114 -0.2053
16399W        W32873   7.551   1.586  15.958 -0.1135  0.1000  0.1484
16400W        W32874   6.565   9.892   1.502  0.0341 -0.0590 -0.2144
16401W        W32875   7.672   7.368   3.467  0.0984 -0.0847  0.0641
16402W        W32876   2.231  11.672  16.542  0.0800  0.2118  0.3398
16403W        W32877  17.967   2.920   0.105  0.1609 -0.0713  0.0240
16404W        W32878   8.920  11.344  14.821 -0.0388 -0.0760 -0.1196
16405W        W32879   1.691   7.970  14.536  0.0539  0.0020  0.1259
16406W        W32880   2.600  14.856   0.469 -0.1789  0.2130  0.0342
16407W        W32881  10.684   7.558   3.341  0.1157  0.2857  0.0425
16408W        W32882   6.327  17.065   2.329  0.0075  0.0259 -0.0738
16409W        W32883  11.212  14.834   0.245  0.2177 -0.1631 -0.3048
16410W        W32884   2.538   0.732   2.405  0.0725 -0.0243 -0.1200
16411W        W32885   0.652   1.969   0.322  0.2163 -0.1880 -0.1016
16412W        W32886  10.713   0.252   5.065 -0.1063  0.3158  0.1318
16413W        W32887   4.789  11.842   2.674  0.0417  0.0428  0.1574
16414W        W32888  16.276  12.506  16.361  0.2922  0.1206 -0.0290
16415W        W32889   0.551  11.695  15.238  0.2218 -0.0120 -0.0762
16416W        W32890  15.448  17.986  12.210  0.0398 -0.0349  0.0507
16417W        W32891   6.006  17.263   1.491  0.1721 -0.1843  0.0296
16418W        W32892   0.062   8.276  10.563 -0.0097  0.1739 -0.2519
16419W        W32893   3.358   1.000  16.199 -0.1204 -0.1321  0.2069
16420W        W32894  14.297   2.960   5.455 -0.2556 -0.0089  0.0250
16421W        W32895  17.793   0.453  16.218  0.3208  0.0982 -0.1899
16422W        W32896  12.197   6.812   4.264  0.2151 -0.0992  0.2091
16423W        W32897   2.486   3.660  13.799 -0.0580  0.0007  0.0168
16424W        W32898  16.431  16.070  15.554  0.3220  0.1602  0.0855
16425W        W32899   7.315   0.933   0.476 -0.4166  0.0549 -0.0299
16426W        W32900   7.617  14.589  15.668  0.0198  0.2987 -0.1570
16427W        W32901   2.454   4.208  15.436 -0.2633  0.1336 -0.1386
16428W        W32902   9.361  16.614  15.479 -0.0132 -0.0057 -0.3862
16429W        W32903   7.967  13.394  16.625  0.0677 -0.0145 -0.0561
16430W        W32904  11.409   7.520  13.512  0.1312  0.1512  0.2626
16431W        W32905  13.435   6.576  15.464  0.0830 -0.0123  0.0179
16432W        W32906  14.420   9.536   0.848  0.0739 -0.0740 -0.1200
16433W        W32907  15.010  12.982   4.668 -0.1451  0.1417 -0.1782
16434W        W32908  12.702   4.278   5.171 -0.1066 -0.1682  0.1495
16435W        W32909   8.236   4.832   3.828 -0.1187 -0.1207 -0.3905
16436W        W32910   4.815  16.388  14.152 -0.0169 -0.1749 -0.0097
16437W        W32911   7.180   3.780  13.863  0.0754 -0.5353 -0.0283
16438W        W32912   2.371   1.640  12.117 -0.1261  0.0373 -0.1451
16439W        W32913   6.269   2.128  14.163  0.0991 -0.0680  0.1858
16440W        W32914   0.984   9.862   0.725 -0.0006 -0.0291 -0.1573
16441W        W32915   0.813  16.481  15.196  0.0077 -0.1353  0.1553
16442W        W32916  15.287  13.765  15.234 -0.0326 -0.0681  0.0817
16443W        W32917   5.490   9.495  12.323 -0.1696 -0.0415  0.3693
16444W        W32918   3.338   5.540  12.811  0.1965 -0.0814  0.0814
16445W        W32919  10.759  16.817   4.517 -0.2906  0.0272 -0.1947
16446W        W32920   2.684   5.950   0.902  0.1779  0.1005 -0.1521
16447W        W32921  16.309  11.811   3.851  0.3309 -0.3564  0.0403
16448W        W32922   0.482  16.188   2.590 -0.0995 -0.0611  0.2788
16449W        W32923  12.556  15.048  14.561 -0.1750  0.0707 -0.1324
16450W        W32924   2.197   2.687  12.164 -0.1887 -0.0273 -0.1174
16451W        W32925   0.665   2.511   4.909  0.1569  0.0580  0.1829
16452W        W32926   4.365  12.140  15.549  0.0019 -0.1714  0.3598
16453W        W32927   2.740  12.135  10.581  0.0276 -0.0767  0.2716
16454W        W32928  16.399  16.128  13.330  0.0101 -0.0388 -0.0156
16455W        W32929  15.128   5.822   2.746 -0.2157 -0.0587  0.0447
16456W        W32930   0.392  11.584  11.639 -0.1467 -0.0234  0.2281
16457W        W32931   8.665  10.523   2.742 -0.3180  0.0465  0.0862
16458W        W32932  17.082   1.599  15.852 -0.3323  0.0521  0.3134
16459W        W32933  10.463  10.998   0.116  0.1649 -0.3394  0.2464
16460W        W32934   8.711  17.858  13.735 -0.1013  0.1543 -0.1512
16461W        W32935   2.013  16.644   4.346  0.0628 -0.1075 -0.1548
16462W        W32936  12.477  15.930  12.636 -0.1291  0.0305 -0.2265
16463W        W32937  12.191  10.841  13.654  0.1043  0.1204  0.0804
16464W        W32938  15.310  15.451   5.259 -0.0432  0.1297 -0.1618
16465W        W32939   3.955   8.989  13.688  0.2155  0.0899 -0.0488
16466W        W32940   7.480   2.555  16.079  0.2195  0.0899 -0.2887
16467W        W32941   8.758  13.073  15.069 -0.2832 -0.3909  0.1268
16468W        W32942   0.662  14.556  11.879  0.1980 -0.0314  0.1025
16469W        W32943  12.909   6.370   3.267 -0.2933 -0.0667 -0.1138
16470W        W32944  16.886   2.019   5.363 -0.0215 -0.2365 -0.0733
16471W        W32945   6.096   9.104   1.629  0.1156  0.3096  0.2608
16472W        W32946  16.246  16.625  16.243  0.2228  0.1294 -0.0354
16473W        W32947  13.099   3.389   4.292  0.0350 -0.0040 -0.0795
16474W        W32948  16.462   3.453  16.155 -0.0179  0.1615  0.0786
16475W        W32949   3.532  10.203  13.577 -0.0748  0.1435 -0.0853
16476W        W32950   9.317  14.711   2.178 -0.2440 -0.2980  0.2653
16477W        W32951   7.751   3.159   4.303  0.1580  0.1423 -0.0046
16478W        W32952   3.677   2.455  13.311 -0.0730  0.1136 -0.0666
16479W        W32953   2.571  14.255   4.631 -0.1223  0.2096 -0.1203
16480W        W32954  15.619  13.126  12.439 -0.1467 -0.1038  0.1083
16481W        W32955   8.889  13.149  12.141 -0.2339  0.3724  0.0394
16482W        W32956   2.325   7.291  12.614  0.3134  0.0901  0.0807
16483W        W32957  14.083  11.276   3.647  0.1347  0.0249 -0.0666
16484W        W32958   6.826  16.804  14.821  0.0984  0.5707  0.1478
16485W        W32959  17.301   3.578   3.163  0.0688  0.1046 -0.0613
16486W        W32960   1.691   5.834  15.427  0.1392 -0.0048  0.1441
16487W        W32961  17.717  17.606   1.576  0.2455 -0.0906  0.0759
16488W        W32962  13.595   9.627  14.928  0.2390 -0.1359  0.0014
16489W        W32963  11.316  10.366   5.416  0.1478  0.1661  0.0623
16490W        W32964   8.113  16.942   3.908 -0.1155 -0.2610  0.1152
16491W        W32965  12.841  13.055   1.478  0.4108 -0.2118 -0.1230
16492W        W32966  16.250   3.609   1.192  0.0399  0.3417 -0.2165
16493W        W32967   7.541   6.058   5.213 -0.1106  0.0561  0.1131
16494W        W32968  11.333   4.705   2.195  0.0128  0.2792 -0.2337
16495W        W32969   1.814   3.465  16.521  0.2313 -0.4066  0.1418
16496W        W32970  10.631   2.848  14.018  0.1509 -0.3136 -0.3676
16497W        W32971   6.157  10.417  16.013 -0.0461  0.4546  0.0742
16498W        W32972  17.663   0.235   3.788  0.0554  0.1972 -0.0153
16499W        W32973   0.282   8.770  16.154  0.0544  0.3321  0.0539
16500W        W32974  10.071   9.701   3.240 -0.1761 -0.0533  0.2390
16501W        W32975   6.991  12.172  14.473 -0.1113  0.1562  0.2109
16502W        W32976  16.381  11.306   1.556 -0.1836 -0.1051  0.0204
16503W        W32977   2.491   7.929  15.052 -0.2991  0.0311  0.2158
16504W        W32978   2.626   3.864   5.017 -0.0704  0.0005 -0.0079
16505W        W32979  13.327  14.448   4.451  0.1394  0.0896 -0.1539
16506W        W32980  13.031  14.262  12.190  0.1000  0.2401 -0.1805
16507W        W32981  13.927   3.447  14.028  0.3103  0.0019  0.1659
16508W        W32982   5.713  10.727  13.408  0.3559 -0.1717 -0.1833
16509W        W32983   4.154  16.750  14.903 -0.0017  0.0536  0.0502
16510W        W32984   1.843  15.930  16.264 -0.1708 -0.0261 -0.1661
16511W        W32985  16.901   8.753   2.722  0.2748  0.1676 -0.0678
16512W        W32986   9.204   2.312  12.709 -0.4316 -0.0423 -0.1853
16513W        W32987  11.225   7.436  14.366 -0.0354 -0.0243 -0.0500
16514W        W32988   6.653  14.531   2.974  0.2510  0.0153 -0.0453
16515W        W32989   8.481   2.277   0.732 -0.1422 -0.3011 -0.1022
16516W        W32990   5.676  13.532  15.350  0.0480 -0.1952  0.0897
16517W        W32991   2.223  10.538  12.696  0.1708 -0.1603  0.1189
16518W        W32992  12.583   1.707   4.126 -0.2442 -0.0290 -0.2032
16519W        W32993   6.246  16.937   1.822  0.1253  0.0525  0.0915
16520W        W32994  12.342  16.135   3.824 -0.1461  0.0964  0.0957
16521W        W32995  11.894  17.237  15.337  0.1606  0.1946  0.3537
16522W        W32996   7.068   4.707  13.471  0.1522 -0.1419  0.1836
16523W        W32997   2.582  16.641   0.168 -0.0690  0.0081 -0.1323
16524W        W32998   4.343  14.549   5.711 -0.1009  0.0803  0.3620
16525W        W32999   4.624  10.224   3.607  0.1902 -0.0360 -0.3317
16526W        W33000   5.888  17.002   3.570  0.2299 -0.0021 -0.0157
16527W        W33001   7.668  16.095   3.632 -0.1823 -0.0678  0.0757
16528W        W33002   9.775  12.139  14.997 -0.0129  0.0849  0.0976
16529W        W33003   3.472  17.335   0.598 -0.0433  0.0911 -0.3014
16530W        W33004   3.473   4.182  15.731 -0.1371 -0.0150 -0.0247
16531W        W33005   5.948   5.186  13.720 -0.0747 -0.0331 -0.2544
16532W        W33006   3.462  10.999   4.831  0.3047 -0.3165  0.2518
16533W        W33007   0.032  10.110  11.014 -0.2433  0.0196  0.0171
16534W        W33008   2.272  15.600   2.970 -0.2095 -0.1732 -0.0898
16535W        W33009  15.041  17.614  12.548 -0.0959  0.3176 -0.0813
16536W        W33010  15.319   0.998  15.344 -0.1298 -0.1534 -0.3203
16537W        W33011   4.027  14.951  12.393  0.0193 -0.0992  0.4610
16538W        W33012   2.914   2.186  13.875 -0.1875  0.0666  0.4061
16539W        W33013   9.263  12.926   1.172 -0.2973 -0.0380 -0.0718
16540W        W33014  11.266  14.967   2.174 -0.0633 -0.1427 -0.2042
16541W        W33015  14.628  15.266  12.728 -0.1822 -0.2123 -0.1231
16542W        W33016   7.975   1.897  13.244  0.0030  0.1235 -0.0696
16543W        W33017   7.999  11.456  14.367 -0.0516  0.0356 -0.0294
16544W        W33018  12.483   7.230  16.088  0.0546 -0.0978 -0.1745
16545W        W33019   4.589   3.350  16.481 -0.0031 -0.0926  0.4465
16546W        W33020   3.629   7.935   1.099 -0.4789 -0.0786  0.0760
16547W        W33021   3.307   6.028   5.465  0.0675  0.0671  0.0260
16548W        W33022   5.362  17.466  16.088 -0.2635 -0.1473 -0.1486
16549W        W33023   4.921  12.104   2.242 -0.0342 -0.1143  0.2756
16550W        W33024   3.959  15.073  15.599 -0.0944  0.1472  0.0226
16551W        W33025   1.492  14.896  12.540 -0.3281  0.2410 -0.0064
16552W        W33026  12.854  13.133   5.997 -0.1548 -0.0683  0.1547
16553W        W33027  17.820   6.532  15.392 -0.3112  0.0294 -0.1971
16554W        W33028   5.066   3.545  14.838 -0.0646  0.0151 -0.1116
16555W        W33029  10.565  14.331  13.437  0.2228 -0.2330  0.1662
16556W        W33030   9.629  11.365   5.494 -0.1086 -0.1221  0.0123
16557W        W33031   7.290   3.087  12.493  0.1211 -0.1014  0.4233
16558W        W33032  13.229  16.876   3.107  0.0106 -0.0320 -0.0482
16559W        W33033  13.472   0.059  13.681 -0.3332 -0.1737  0.0802
16560W        W33034  10.089   0.802  11.549  0.3153 -0.1061 -0.1154
16561W        W33035  13.143   3.646   2.234 -0.2344  0.0216 -0.1049
16562W        W33036   2.944  17.679   1.107 -0.1270 -0.0690 -0.3433
16563W        W33037  15.667  11.309   0.968 -0.1354  0.0698  0.2500
16564W        W33038  12.609   0.443  16.621  0.2503 -0.2060 -0.1408
16565W        W33039  15.203   7.562   3.597  0.0929  0.1892  0.0360
16566W        W33040  12.703  17.001  13.269  0.1328 -0.2716  0.1538
16567W        W33041  13.486  17.372  14.977 -0.0026 -0.1358  0.1706
16568W        W33042  17.429  12.046  14.974  0.1669 -0.2896  0.3675
16569W        W33043   4.048   0.730  14.568 -0.0473  0.1669  0.1400
16570W        W33044   3.679   5.786   4.527  0.0340 -0.0210 -0.1936
16571W        W33045  14.745  15.998  11.610  0.0084 -0.0716 -0.0191
16572W        W33046   3.206  10.339  12.491  0.1012 -0.4380 -0.0495
16573W        W33047  15.302  10.716   1.513 -0.2925  0.3155 -0.0820
16574W        W33048   7.037  11.585   4.332  0.3467 -0.0582  0.2798
16575W        W33049   5.494   4.871  13.441 -0.1411 -0.0330 -0.1904
16576W        W33050  16.571  16.944  13.066  0.0641  0.2666  0.2250
16577W        W33051   4.061  13.763   5.735  0.0532  0.1890 -0.0567
16578W        W33052  14.985   4.667   3.200  0.0023 -0.0662 -0.2613
16579W        W33053   5.247   7.054   3.167 -0.0152  0.0745 -0.2547
16580W        W33054   6.517  12.893   2.077 -0.0836 -0.0841 -0.1026
16581W        W33055   5.011   4.240   3.283  0.0190  0.0861  0.0877
16582W        W33056   0.202  15.453   4.161 -0.1861 -0.1558 -0.3697
16583W        W33057  12.315  17.747  13.473  0.2782  0.0308  0.1047
16584W        W33058  17.682  16.596   5.625 -0.0387  0.0360  0.0677
16585W        W33059  10.549  11.192  15.028  0.1833 -0.0817 -0.0874
16586W        W33060   7.683  14.089  11.354 -0.2002  0.1763 -0.0895
16587W        W33061   6.712  17.007   3.236 -0.0369  0.0426 -0.1159
16588W        W33062   8.225  15.312  13.645 -0.0766  0.1411 -0.1660
16589W        W33063   9.938  11.065   0.109  0.0651  0.1060  0.0267
16590W        W33064   3.997  11.823   1.927 -0.3829  0.0236 -0.0437
16591W        W33065  12.053  13.802  16.626 -0.2656  0.0477  0.0148
16592W        W33066  16.022  14.563   5.805 -0.1514  0.0932  0.1818
16593W        W33067  14.044  14.200  15.911  0.1718  0.1223  0.1660
16594W        W33068   4.805  15.516   0.320 -0.0261  0.0779 -0.1357
16595W        W33069   3.681   8.349   0.798 -0.1880 -0.3530  0.0463
16596W        W33070  12.308  11.865   4.141 -0.1875 -0.0508 -0.1419
16597W        W33071   5.666   9.314   0.003  0.2525  0.1115 -0.1386
16598W        W33072  17.742   4.150   3.752 -0.0188  0.0668  0.2979
16599W        W33073   1.500   7.123   0.470  0.3607  0.1971 -0.3570
16600W        W33074  17.435  10.034  16.311 -0.0825  0.0789 -0.4612
16601W        W33075   8.605   7.012   2.141  0.1092 -0.2370  0.1140
16602W        W33076   0.594   9.784  13.828  0.1458 -0.2737 -0.2603
16603W        W33077  11.699   0.275   4.851  0.1230  0.5866  0.1143
16604W        W33078   4.880   4.858   5.418 -0.0568 -0.0917 -0.2821
16605W        W33079  17.155  11.069   2.909 -0.0099  0.0211  0.3507
16606W        W33080   5.474  16.036   1.647  0.1519  0.0375 -0.0485
16607W        W33081   9.173   8.821  14.914  0.2317  0.0151 -0.2603
16608W        W33082  13.683   1.559  12.487  0.1292  0.1736  0.0110
16609W        W33083  13.471  10.819   0.563  0.0484  0.2096 -0.0790
16610W        W33084   9.726   4.847  16.523  0.1508  0.0918 -0.1112
16611W        W33085   1.473  15.002  14.518 -0.1625 -0.1307  0.0228
16612W        W33086   3.507   2.848  15.696  0.1147  0.3963  0.0524
16613W        W33087   5.193  13.157   1.464 -0.2756  0.0950  0.0757
16614W        W33088  16.669  14.308  16.435  0.0194  0.1558  0.1576
16615W        W33089  17.643   6.522  12.100  0.0591 -0.1039  0.0885
16616W        W33090   1.302  17.831   1.896 -0.0471 -0.0376  0.0203
16617W        W33091   0.397  14.642   4.037  0.0079 -0.1646  0.1556
16618W        W33092   7.557   2.156  16.525 -0.1546 -0.0101 -0.0590
16619W        W33093  17.092   7.764   4.233  0.1052 -0.0070 -0.1556
16620W        W33094   9.378   2.849  16.667  0.3158  0.0997 -0.2327
16621W        W33095   3.377   3.796  15.285 -0.3785  0.1688 -0.0907
16622W        W33096   2.570   2.749   3.341 -0.0303 -0.3159  0.2451
16623W        W33097   5.994   5.895   3.746 -0.0812  0.3430 -0.0805
16624W        W33098  15.269  16.788  15.788 -0.1021 -0.1007 -0.2162
16625W        W33099  14.953   1.828  13.006 -0.0748  0.1064  0.0050
16626W        W33100   4.633   8.419  14.863  0.0634 -0.3005  0.0010
16627W        W33101  14.883   5.942  14.351  0.1680 -0.1489  0.2608
16628W        W33102   4.230   4.820  15.072  0.1660  0.1382 -0.0247
16629W        W33103   5.774  15.241  13.612 -0.0659  0.0644  0.0496
16630W        W33104   1.606   2.996  16.494  0.1455  0.1720 -0.1514
16631W        W33105  15.011  10.797  14.905  0.0648  0.1304  0.3556
16632W        W33106   4.157   4.882   6.518  0.0495 -0.2055  0.1901
16633W        W33107  13.038  16.427   2.921 -0.0470 -0.0260  0.0371
16634W        W33108  10.992  17.398   1.179 -0.0027 -0.0537  0.1420
16635W        W33109  12.211  16.998  12.420 -0.0115  0.0964  0.0239
16636W        W33110  14.600   0.713   2.660  0.1745 -0.3951  0.1439
16637W        W33111   7.600   7.787  16.276 -0.2004  0.1158  0.0636
16638W        W33112   3.700   7.016  13.208 -0.0310 -0.2862 -0.3747
16639W        W33113  10.085  10.575  13.545  0.1413 -0.4815 -0.0529
16640W        W33114   7.239  16.998   4.274 -0.0490  0.0264 -0.0765
16641W        W33115  16.500  11.185  13.252 -0.0757  0.0721  0.0763
16642W        W33116  13.860  10.133   1.953 -0.0194 -0.0962 -0.0697
16643W        W33117  16.838   4.632  15.754  0.3248 -0.4242  0.0358
16644W        W33118   1.216   7.413   3.729  0.0998  0.1056  0.1788
16645W        W33119   8.172   8.588  15.367 -0.0695 -0.1226  0.1085
16646W        W33120   4.668   9.967   4.125 -0.1589 -0.1472  0.0630
16647W        W33121  17.364   3.830  13.422 -0.3657  0.4903 -0.1561
16648W        W33122   0.663  17.674  14.861 -0.0448  0.0686  0.3176
16649W        W33123   4.309   5.464  14.759  0.1168 -0.1570  0.1499
16650W        W33124   3.570  12.636  16.546  0.0139  0.0775  0.1364
16651W        W33125  13.290   2.300  14.157  0.1007  0.4335 -0.1529
16652W        W33126  17.334  15.044  13.468  0.2124  0.2135  0.2031
16653W        W33127   3.842  11.560   2.537 -0.2231  0.1130  0.1029
16654W        W33128   5.346   2.424  14.964  0.0757 -0.4045  0.1157
16655W        W33129  15.708  14.139   3.489 -0.0127  0.1521 -0.0319
16656W        W33130  17.553   4.664   4.394 -0.0335 -0.2312  0.2391
16657W        W33131   4.435  11.045   3.221 -0.0542  0.0128 -0.2165
16658W        W33132   0.650  15.862  14.409 -0.1599  0.0676  0.0956
16659W        W33133  12.757   1.002  15.850 -0.3332  0.1115 -0.5798
16660W        W33134  16.106   6.742  13.276  0.2277  0.0243  0.0506
16661W        W33135  16.373   5.353  11.617 -0.0609 -0.0960 -0.0885
16662W        W33136   4.091   6.898  15.781 -0.0475  0.1709  0.1092
16663W        W33137   6.547   2.992  13.769  0.0065 -0.6428 -0.3729
16664W        W33138   3.601  14.309   0.142  0.1743 -0.1920 -0.0375
16665W        W33139   2.240   3.689  14.901 -0.1673  0.3760  0.1123
16666W        W33140   8.676   7.371   4.351  0.0206  0.3622 -0.0228
16667W        W33141  15.327   0.627   5.889 -0.0652 -0.0512 -0.1642
16668W        W33142   1.254   6.001   3.119 -0.3579  0.1380  0.0632
16669W        W33143   2.637   6.206   5.837 -0.0396  0.0649 -0.1211
16670W        W33144  13.778  15.231  15.038 -0.2852 -0.1323  0.1369
16671W        W33145   0.661   3.096   0.070  0.0109  0.0872 -0.0973
16672W        W33146   6.385  17.223  16.433  0.0135 -0.2506 -0.0842
16673W        W33147  15.907   7.183  15.249  0.1474 -0.0945  0.1325
16674W        W33148  15.517   2.289   2.905  0.2230 -0.1254  0.0908
16675W        W33149  15.912   3.475  14.112 -0.0080  0.0419  0.2001
16676W        W33150  10.203   4.632  14.272  0.3537  0.0533 -0.1892
16677W        W33151   3.963   2.805  15.785  0.1138  0.1252  0.1756
16678W        W33152  12.962  13.781  14.990 -0.2018  0.3531  0.4099
16679W        W33153  13.148   3.903   5.315  0.0363 -0.1224  0.1712
16680W        W33154   1.945  14.272   2.800 -0.0774  0.0614 -0.2621
16681W        W33155   0.445  12.226  10.893  0.0622 -0.0641 -0.0238
16682W        W33156  11.151   3.502   3.328  0.0376  0.0091  0.2240
16683W        W33157   8.421  16.778   4.956  0.0671  0.2022  0.2627
16684W        W33158   4.618   0.154   3.767  0.2747  0.3619 -0.3883
16685W        W33159   4.151  13.956  14.830  0.4034 -0.0720 -0.3175
16686W        W33160  12.043  15.859  14.148  0.1248  0.1422  0.2392
16687W        W33161   1.886   5.116   6.072 -0.3726 -0.0348  0.2453
16688W        W33162   0.986   4.849   1.894  0.2157  0.4504 -0.1951
16689W        W33163   4.264  16.181   2.164  0.0006 -0.0616 -0.0294
16690W        W33164   7.842   7.164   2.043 -0.2633 -0.0734 -0.0333
16691W        W33165   2.209   5.500  16.167  0.1880 -0.4316  0.0088
16692W        W33166   8.533   4.229  16.077 -0.1276  0.1495 -0.1699
16693W        W33167   8.448  13.688   5.372 -0.2201  0.0178  0.3066
16694W        W33168  14.311   6.451  15.137 -0.1163 -0.3737  0.4316
16695W        W33169   4.693  12.902  11.015 -0.2461  0.1108 -0.2891
16696W        W33170  10.345  13.505  11.301  0.2202  0.0471  0.0054
16697W        W33171   4.517   6.252  14.220 -0.0302 -0.4536  0.1143
16698W        W33172   2.077   0.381   2.168  0.0965 -0.2485 -0.3439
16699W        W33173   6.676  16.979  13.112 -0.0099 -0.2143  0.2408
16700W        W33174   7.924  12.986  15.339 -0.0689 -0.0056 -0.1556
16701W        W33175   9.677  13.146  11.751 -0.1883 -0.0932  0.0393
16702W        W33176  11.367   3.732  14.405  0.0295  0.0597 -0.1275
16703W        W33177   6.834   8.093   1.343  0.1042 -0.0893 -0.1402
16704W        W33178   2.486   4.481  11.722  0.0945 -0.2937  0.0797
16705W        W33179   4.670   1.751   1.685 -0.0302  0.1271 -0.1897
16706W        W33180   4.897  11.922  13.377 -0.0958 -0.0954 -0.0780
16707W        W33181  16.342   4.924  15.597 -0.1982 -0.0764 -0.0061
16708W        W33182  17.165  16.896   2.011 -0.0266 -0.2095 -0.0253
16709W        W33183  12.396   7.497  13.261  0.1009  0.1152 -0.3190
16710W        W33184   0.208  16.406   4.535 -0.0224 -0.1545  0.0041
16711W        W33185  10.127   2.581  14.602  0.2560  0.0932  0.0308
16712W        W33186   7.751   0.113  11.965  0.2278 -0.1563 -0.0908
16713W        W33187   1.936   1.432  11.819 -0.2393 -0.0225  0.0582
16714W        W33188   3.938   5.462   0.833  0.0701  0.0759  0.0195
16715W        W33189  16.422  10.602  15.131 -0.2324  0.0286 -0.1078
16716W        W33190   1.924   8.051  13.049  0.1086 -0.1266  0.3918
16717W        W33191   5.122   4.913  15.759 -0.0230  0.2375 -0.1689
16718W        W33192   5.617  16.357   0.335 -0.4130 -0.1376  0.0133
16719W        W33193   0.771   1.355   4.387 -0.1512 -0.0007 -0.0603
16720W        W33194   5.034   1.029  15.796 -0.2235 -0.0664 -0.0281
16721W        W33195   8.421   8.746  13.101  0.1582 -0.1102  0.2341
16722W        W33196   2.570   7.619  15.461 -0.0463 -0.1226 -0.0457
16723W        W33197   2.014   9.239  12.381  0.1491  0.1230 -0.1355
16724W        W33198  15.469   2.605  13.945 -0.4745 -0.2350  0.0962
16725W        W33199   9.785   0.512   0.123  0.0044  0.0637 -0.3436
16726W        W33200   7.590  16.284   5.670  0.3669  0.2327  0.1183
16727W        W33201   5.684   4.044  15.598  0.1251 -0.0832  0.0085
16728W        W33202   5.999   7.734   3.752 -0.0002  0.0644  0.2070
16729W        W33203  12.477   1.072   6.557  0.1231  0.0091  0.0232
16730W        W33204   5.573  10.439   2.042 -0.1497  0.0448 -0.2507
16731W        W33205  16.470   3.316  13.248 -0.0737 -0.0722  0.3212
16732W        W33206   2.763  16.605  14.418 -0.3454  0.2016 -0.2010
16733W        W33207  15.583   7.244  13.553 -0.2742  0.0900  0.0023
16734W        W33208  17.587  11.765  15.784  0.1901  0.1566  0.1644
16735W        W33209  14.954   4.884  15.015 -0.0650  0.0409  0.2170
16736W        W33210   8.135   0.135   1.523 -0.0676 -0.1555 -0.2826
16737W        W33211   6.198   3.771   2.997 -0.1086  0.0328  0.1773
16738W        W33212  16.957   6.505  15.234  0.1252 -0.0685  0.1743
16739W        W33213   3.788   3.473   0.911  0.3342  0.0611 -0.1387
16740W        W33214   3.661  15.276  16.224  0.0056 -0.1363 -0.2043
16741W        W33215  14.046  12.426  16.600 -0.3668  0.2696 -0.0919
16742W        W33216  17.958  14.399   5.007 -0.1092  0.1808 -0.0937
16743W        W33217  12.349   3.583  13.230 -0.1663 -0.0299  0.1616
16744W        W33218   9.803   4.162   2.242 -0.0064 -0.1514 -0.1637
16745W        W33219   6.683   9.258  16.045  0.0122  0.0941  0.0674
16746W        W33220  10.269   1.229  15.963 -0.2610 -0.2549 -0.3376
16747W        W33221   0.405  13.075   1.940  0.0887 -0.1204 -0.2339
16748W        W33222  16.395  16.454   0.007  0.3555 -0.2004  0.0531
16749W        W33223   7.656  12.161   2.718  0.0710  0.0026 -0.0343
16750W        W33224  11.028   9.889  12.351  0.2365  0.2516  0.1797
16751W        W33225   1.328   6.694  11.856 -0.0478 -0.0722 -0.0152
16752W        W33226  11.168  16.532   4.141 -0.1182  0.1294  0.0636
16753W        W33227   1.000  16.932   2.456  0.3549  0.0638  0.2138
16754W        W33228  12.242  15.313   1.691 -0.1426 -0.1823 -0.2222
16755W        W33229   4.143  15.998  12.884  0.0550 -0.3011 -0.0028
16756W        W33230   4.877   9.013   1.674 -0.1663  0.0948 -0.0127
16757W        W33231   1.475   4.594   1.063  0.0903 -0.1191  0.0929
16758W        W33232   4.513   0.421   0.694  0.1299  0.0558 -0.0752
16759W        W33233   9.672   0.372  13.008  0.2440  0.0708  0.1426
16760W        W33234   9.658   3.952  12.214  0.0849 -0.0527 -0.0949
16761W        W33235   0.815   8.368   0.910  0.1551  0.3705  0.1505
16762W        W33236   0.892   9.195   4.816 -0.0505  0.2111  0.0411
16763W        W33237   1.050   1.158  10.575  0.0022 -0.1163  0.0637
16764W        W33238  12.377   7.881   3.506  0.0554 -0.0331 -0.2179
16765W        W33239  16.788   4.555   5.578  0.3603  0.0793 -0.1347
16766W        W33240  13.505   6.630  13.376  0.0152 -0.0737  0.4339
16767W        W33241   4.748  15.916   0.058  0.2698 -0.0386  0.0915
16768W        W33242   4.462   3.216  15.328  0.0718  0.1090 -0.1799
16769W        W33243   3.679   6.774  14.191 -0.1040  0.4055  0.3583
16770W        W33244   2.898  17.951   2.495  0.1984  0.0467  0.0705
16771W        W33245   5.950  13.965  16.765 -0.2219  0.0864 -0.1143
16772W        W33246  15.492   1.443  16.609 -0.2091  0.2625  0.1453
16773W        W33247  12.744   0.456   0.372  0.3173 -0.1611  0.2921
16774W        W33248  15.071  16.551  14.066 -0.0228  0.2247  0.0934
16775W        W33249   2.866   2.934   4.956  0.1337  0.0862 -0.2353
16776W        W33250  11.093   7.596  13.109 -0.0757  0.1663 -0.0407
16777W        W33251   1.150   1.311  12.389 -0.1623 -0.0402  0.0392
16778W        W33252  16.883   5.129  14.709 -0.0192 -0.0941  0.2735
16779W        W33253   2.912   3.065   1.667  0.1895 -0.1089 -0.0657
16780W        W33254   2.179   7.942  13.504  0.0039 -0.0323  0.0120
16781W        W33255  16.349  17.743  14.341  0.3609  0.0337  0.2119
16782W        W33256  10.233  10.365  14.708  0.1795 -0.0657 -0.0890
16783W        W33257   4.104  13.849  11.294  0.2118  0.0983 -0.0864
16784W        W33258   2.573  17.725   5.949 -0.0050 -0.1498 -0.0276
16785W        W33259   3.049  16.002   0.493  0.0675 -0.1892  0.2144
16786W        W33260   5.512   8.747   0.518  0.1355  0.1922 -0.0050
16787W        W33261  15.817   9.556   5.642  0.0124 -0.1640 -0.2834
16788W        W33262   4.469   4.300   2.022  0.0855  0.1557  0.1461
16789W        W33263   3.076   5.697   5.177 -0.2303  0.0558 -0.2402
16790W        W33264  17.128   0.583   2.976 -0.0297  0.2884  0.1383
16791W        W33265   3.019  13.942   0.830 -0.0466  0.1731  0.3163
16792W        W33266   7.035  14.956   5.004  0.0319 -0.0261 -0.0350
16793W        W33267   8.079  14.177   1.177  0.2594  0.3447 -0.1616
16794W        W33268   9.886  12.341  12.791  0.2613  0.0783 -0.2074
16795W        W33269   8.046  17.261  11.398  0.0463  0.0798 -0.1993
16796W        W33270  16.917   9.332  13.750 -0.0645 -0.0665 -0.1003
16797W        W33271   2.979  13.969  14.293 -0.1471  0.1610 -0.1174
16798W        W33272  16.636  14.286   2.747  0.0017 -0.1981  0.0849
16799W        W33273  12.904  11.567  16.015  0.0394  0.0689 -0.0395
16800W        W33274   0.554  14.704   4.542 -0.0163 -0.3695  0.1769
16801W        W33275   8.515   4.459   4.779  0.1766  0.1693 -0.2472
16802W        W33276   7.450  16.252  11.915  0.1288 -0.0436 -0.2595
16803W        W33277   3.271   0.808   1.086  0.1192  0.1726  0.0938
16804W        W33278  10.878  16.881   1.790  0.1107 -0.3075  0.2727
16805W        W33279   2.086  12.059  14.302  0.2646 -0.0865  0.1528
16806W        W33280   8.085  13.573   2.234  0.1497  0.1756 -0.2804
16807W        W33281   4.086   8.354   2.750  0.0868 -0.1833 -0.0304
16808W        W33282   5.946   3.874  13.330 -0.0467 -0.1281  0.0545
16809W        W33283  13.791   0.352  12.942  0.0307 -0.1461  0.2112
16810W        W33284  17.783   2.016  13.302  0.0635 -0.1906  0.0398
16811W        W33285  14.260  10.279  12.675  0.0134  0.0827 -0.2085
16812W        W33286  10.303  17.627   4.611 -0.1137  0.0251 -0.0477
16813W        W33287   8.929  11.974   3.214 -0.0347 -0.1223  0.1121
16814W        W33288   0.289  15.976   2.119 -0.0345  0.3326 -0.1769
16815W        W33289   2.489  15.652   1.239  0.2907 -0.4889 -0.0441
16816W        W33290  10.635   0.928  14.666 -0.0675 -0.0666  0.1973
16817W        W33291   0.546  14.823  15.968 -0.2431  0.1802  0.0227
16818W        W33292   1.379   2.125   5.506  0.1491 -0.1011  0.1925
16819W        W33293   5.502   1.967  12.303  0.0066 -0.0466 -0.2301
16820W        W33294  10.818  10.323  15.157  0.2533  0.0713  0.2188
16821W        W33295   7.309  11.095  11.654 -0.0492 -0.1382 -0.3823
16822W        W33296   1.316  13.539  16.139 -0.3461 -0.0057  0.2269
16823W        W33297  13.840  13.946  14.958  0.3096 -0.0044 -0.0337
16824W        W33298  14.985  17.769  11.485 -0.0651  0.0253  0.1673
16825W        W33299   4.584  10.565  12.696 -0.2147  0.3181  0.3113
16826W        W33300   2.042  17.993   3.327 -0.1483 -0.0438  0.0167
16827W        W33301   4.600  10.414  13.795  0.0469 -0.2892  0.2137
16828W        W33302  14.839  11.549   2.171  0.0495  0.0777  0.4129
16829W        W33303   4.456   9.424  14.727 -0.1587 -0.0634  0.3204
16830W        W33304   9.867   6.048  13.616  0.0943  0.0090  0.0922
16831W        W33305  14.166   6.209   2.300 -0.3714 -0.0083 -0.0395
16832W        W33306  10.146  12.600  15.651 -0.0456 -0.1350 -0.1098
16833W        W33307  13.222  15.669   2.558  0.0732 -0.1692 -0.3755
16834W        W33308   7.892  14.421  14.706 -0.0841  0.1765 -0.1216
16835W        W33309  12.840   0.439  13.102 -0.2756  0.2853  0.0304
16836W        W33310   5.220   5.694   2.185  0.2935 -0.1603 -0.2064
16837W        W33311   5.081   1.189  14.813 -0.0974 -0.1522 -0.0045
16838W        W33312   8.513  10.811  14.393  0.3106  0.3890  0.0425
16839W        W33313   5.873  13.514   3.834  0.0745  0.2751  0.1999
16840W        W33314  14.926   0.771   3.065 -0.1381  0.1100  0.0006
16841W        W33315  10.760   9.455  14.915  0.0736 -0.1690  0.1169
16842W        W33316   1.833   5.668   1.475 -0.0463  0.0733  0.0768
16843W        W33317   1.526  16.630  11.342 -0.0009  0.0422 -0.0415
16844W        W33318   2.687  16.286  13.470  0.2429 -0.0008  0.0782
16845W        W33319   6.312   6.253   5.042  0.2145 -0.2614  0.3230
16846W        W33320  14.629  11.127  16.452  0.2997  0.0170 -0.1023
16847W        W33321  11.782   7.779   5.667  0.0811 -0.0805  0.2228
16848W        W33322   6.445  15.271   1.293  0.5065 -0.1333  0.1336
16849W        W33323   7.991  16.802  13.326 -0.1008 -0.2845 -0.1946
16850W        W33324   4.444   6.750   1.192  0.1704  0.1250 -0.1397
16851W        W33325   6.104   2.765  14.007 -0.0962  0.1927 -0.2919
16852W        W33326   5.915   4.112   3.272  0.1464 -0.1885  0.0052
16853W        W33327   1.015   0.234   0.193  0.0285  0.0224 -0.2760
16854W        W33328  16.755  17.616   1.169  0.0725 -0.1171  0.1400
16855W        W33329  14.854  17.313  14.946 -0.1818 -0.0360 -0.0049
16856W        W33330   2.208  11.501  10.589  0.2461 -0.2002  0.1712
16857W        W33331  15.482  14.914  14.100  0.2131 -0.0806  0.1292
16858W        W33332   2.901   4.901  15.754 -0.1125  0.1883 -0.0115
16859W        W33333  13.217   8.642   0.355  0.0117  0.1096  0.1566
16860W        W33334   1.518  17.473   4.691  0.3544 -0.0762  0.0530
16861W        W33335  13.833   5.398  15.750 -0.3910  0.0174  0.1091
16862W        W33336  13.359  11.008  12.238  0.0653  0.1735 -0.1739
16863W        W33337   6.381  13.280  14.511  0.0104  0.2548 -0.1630
16864W        W33338  16.643  14.140  12.023 -0.0274  0.1467 -0.2942
16865W        W33339   0.628  11.233  12.750 -0.2837  0.0843 -0.1193
16866W        W33340   7.711  14.022  14.849  0.2120 -0.0806  0.1030
16867W        W33341  17.309   7.824  16.172  0.1531  0.0430 -0.1004
16868W        W33342  14.887   8.407  13.012 -0.0006  0.2642 -0.0855
16869W        W33343   9.504  10.072   1.504  0.0543  0.1765 -0.1045
16870W        W33344   5.774  12.839   1.318  0.0516  0.2407 -0.3934
16871W        W33345  15.472  15.604   2.325  0.2023 -0.0998 -0.2354
16872W        W33346  16.758   5.120   2.566  0.2091 -0.0345  0.2486
16873W        W33347   6.600  13.844   1.462 -0.0978  0.4177  0.0548
16874W        W33348   5.276  15.211   2.356  0.0877 -0.0734 -0.0967
16875W        W33349  10.657   5.704  15.002  0.3459  0.2394  0.1017
16876W        W33350   7.364   2.949  11.398  0.0529  0.0299 -0.0789
16877W        W33351  10.004  14.803   5.251  0.2797 -0.2784 -0.0706
16878W        W33352   9.524  15.693  15.924  0.1327  0.3831 -0.1556
16879W        W33353  10.606  16.594   5.457 -0.0274  0.1104 -0.1487
16880W        W33354   1.958   0.440   1.680 -0.1418  0.1280  0.1052
16881W        W33355  11.457   0.888   5.502 -0.1064 -0.1170 -0.3825
16882W        W33356   3.887   5.857   3.479  0.1387 -0.2313  0.3170
16883W        W33357   2.023   7.437   0.547 -0.3116 -0.1705 -0.0210
16884W        W33358   1.186   3.997  14.152 -0.1086 -0.1980  0.3382
16885W        W33359  13.003   0.528   1.799 -0.2836  0.0758 -0.1694
16886W        W33360   0.980  11.606  16.119 -0.2043 -0.2017 -0.2231
16887W        W33361  15.356   7.913  16.572  0.1299  0.0056 -0.0345
16888W        W33362   5.042  12.848  14.484  0.1740 -0.0063 -0.2617
16889W        W33363   9.920  17.812  12.094  0.0780  0.0609 -0.2286
16890W        W33364  13.071  16.163  12.266 -0.0852 -0.0214 -0.1698
16891W        W33365  14.367   1.893   3.698  0.1747 -0.2538 -0.0733
16892W        W33366   6.541   3.616   4.501  0.0324  0.3568 -0.0408
16893W        W33367   3.683   0.662   3.704 -0.1958  0.1426  0.0456
16894W        W33368   4.327   0.019  15.339  0.0395  0.1922 -0.1360
16895W        W33369   2.555   5.568   5.242  0.0328 -0.1610 -0.1744
16896W        W33370  11.551  16.971  13.484  0.1052  0.1159 -0.0653
16897W        W33371  11.202   1.686  14.549  0.0510  0.2914  0.1619
16898W        W33372   6.716   3.108  15.800 -0.2011  0.0020 -0.2330
16899W        W33373  10.666  12.420   1.139 -0.3298  0.0326  0.0744
16900W        W33374   8.573   3.523  10.373 -0.1355 -0.0994 -0.1485
16901W        W33375   4.218   2.119  13.403  0.1095 -0.0081 -0.1533
16902W        W33376  13.816   5.614  16.175 -0.4549 -0.1737 -0.1390
16903W        W33377  17.002   6.761   2.738 -0.0011 -0.0638  0.0725
16904W        W33378   4.091  11.359  15.967  0.1955  0.1013 -0.0480
16905W        W33379  17.899   2.855   4.261  0.0374 -0.0727  0.2397
16906W        W33380  16.016  12.562   3.980  0.1486  0.0441 -0.0694
16907W        W33381   6.411   3.996  13.246  0.2092 -0.2081  0.2183
16908W        W33382   3.493  12.714   1.995  0.1848 -0.0748 -0.3052
16909W        W33383   6.291   4.402  14.038 -0.2050 -0.0056  0.0712
16910W        W33384  17.527  14.176   1.970  0.1390 -0.0683 -0.1140
16911W        W33385   2.314   3.000   3.771 -0.1284  0.2015 -0.4282
16912W        W33386  13.217  17.551   5.788 -0.0936 -0.0831 -0.1240
16913W        W33387  11.465   2.635  12.996 -0.0136 -0.0240 -0.1336
16914W        W33388  10.080  16.036   3.132  0.1296  0.0897  0.1494
16915W        W33389   9.094  16.429  16.273  0.3707  0.1643  0.2436
16916W        W33390  15.238   3.557   5.852 -0.0360  0.0046  0.1214
16917W        W33391  16.419  13.116  14.536 -0.2157  0.1791  0.1562
16918W        W33392   6.856   2.366   0.218  0.1407 -0.2731  0.0886
16919W        W33393  10.771   0.692   4.796 -0.0589  0.0028 -0.0345
16920W        W33394  14.016   8.058   2.481  0.2590 -0.0322  0.0766
16921W        W33395   8.965   9.436  13.107 -0.2987 -0.2122  0.1164
16922W        W33396   5.581   1.994  15.030  0.1683  0.0202  0.2836
16923W        W33397   2.106   2.235  13.434 -0.0755  0.0373  0.0259
16924W        W33398  17.238  17.960  13.309  0.3200 -0.0753 -0.0372
16925W        W33399  17.727  11.841   2.873 -0.0019 -0.2683  0.2684
16926W        W33400   5.997  15.955  12.807 -0.3125  0.0536  0.1252
16927W        W33401   1.117   9.035   5.362 -0.3828  0.0838  0.0653
16928W        W33402   1.054  16.867   5.308 -0.0014  0.6552  0.1568
16929W        W33403   0.236  16.958   3.749 -0.0212 -0.0951  0.1012
16930W        W33404   5.130  15.286  11.758  0.2099 -0.2518 -0.0175
16931W        W33405   3.499   5.337   4.273 -0.1441 -0.0401  0.0152
16932W        W33406   5.829   0.644   0.900 -0.1144 -0.3437  0.1828
16933W        W33407  17.450  11.463   3.124  0.2602  0.2161  0.0322
16934W        W33408   8.899   6.375  15.205  0.3037 -0.0613  0.1430
16935W        W33409   1.699  12.017  12.450 -0.1083 -0.0394 -0.0612
16936W        W33410   2.689  14.492  11.585 -0.0753 -0.0338 -0.0738
16937W        W33411  15.136   8.529  16.193  0.0910  0.0738 -0.0730
16938W        W33412  15.744   3.747  15.489  0.0017 -0.0920 -0.2103
16939W        W33413   9.728   9.877   4.512  0.1376  0.0993  0.0330
16940W        W33414   7.036  11.166   5.310  0.2137 -0.0920 -0.4918
16941W        W33415  15.804   8.464  13.792 -0.0896 -0.1588 -0.0314
16942W        W33416   9.141  17.978  11.745  0.1690  0.0650  0.2014
16943W        W33417  17.247  12.684   0.424 -0.1087 -0.1962  0.2343
16944W        W33418   1.731  17.959   1.518  0.2226  0.1555 -0.0249
16945W        W33419  11.562  15.308   0.184  0.0365 -0.2135  0.2994
16946W        W33420   9.631   5.938   4.680  0.0605 -0.0692 -0.2202
16947W        W33421  15.560   9.523  11.711 -0.0271  0.4453 -0.0665
16948W        W33422   0.788  15.260   2.037  0.0272  0.0435 -0.1489
16949W        W33423   2.761   6.934   4.709 -0.0082 -0.0039  0.0123
16950W        W33424   8.070  14.841  13.965  0.0236  0.0374  0.1696
16951W        W33425   1.188  12.531  13.213 -0.0241  0.1207 -0.1636
16952W        W33426   4.735   1.631  11.098  0.2035  0.0298 -0.2174
16953W        W33427  13.979   9.490  16.770  0.1389 -0.1042 -0.0839
16954W        W33428  12.450  16.239  14.066 -0.3500 -0.0428 -0.2430
16955W        W33429   8.647  13.302  11.651 -0.0697  0.2381  0.0310
16956W        W33430  12.746  14.557   2.975  0.0381  0.0268 -0.2070
16957W        W33431   5.183   5.070   0.949  0.2113 -0.0553  0.2618
16958W        W33432   3.638   2.867  16.302 -0.0655  0.0120  0.1372
16959W        W33433  10.933  17.242   0.273 -0.0556 -0.1887  0.0550
16960W        W33434   0.401  15.684   3.373  0.2400  0.2682  0.0118
16961W        W33435   5.704   3.858  16.551  0.3145 -0.1812  0.3541
16962W        W33436  17.948  13.407  16.027 -0.2468  0.1564 -0.0549
16963W        W33437  12.686  14.656  13.798 -0.2877 -0.0956 -0.0648
16964W        W33438  17.477   1.373   1.415 -0.0845  0.4836  0.2010
16965W        W33439   3.599  12.842  13.510 -0.3131  0.1676 -0.2499
16966W        W33440   3.759   7.749  13.434  0.0530 -0.1129  0.0422
16967W        W33441   0.477  17.740  15.946 -0.0018 -0.0845 -0.2082
16968W        W33442   8.122   2.744   4.354  0.2025  0.1442 -0.0892
16969W        W33443   7.608   9.303   6.009  0.0985 -0.0256  0.1612
16970W        W33444   6.158   9.281  15.340  0.4651 -0.1568 -0.0451
16971W        W33445  14.224  10.273  11.776 -0.0992 -0.0105 -0.2772
16972W        W33446   6.355   2.812   0.908  0.2497 -0.0615  0.1873
16973W        W33447  10.331  17.159  12.712  0.0030  0.1828  0.0551
16974W        W33448   6.792   1.108   4.426  0.2744 -0.0377 -0.1231
16975W        W33449  11.145  16.942   4.922 -0.0252 -0.1006  0.1901
16976W        W33450   6.504   9.548  14.483 -0.0175 -0.2210  0.0215
16977W        W33451  10.457  17.583   1.795 -0.0683  0.0721  0.0327
16978W        W33452  10.564   1.068  15.607  0.0299 -0.0539  0.1059
16979W        W33453  15.380   1.708  13.530  0.2819 -0.1759 -0.2107
16980W        W33454   5.828   0.856  15.323 -0.1378  0.1841 -0.0588
16981W        W33455   6.745  16.732  12.692  0.0164 -0.1336  0.1109
16982W        W33456   2.615  13.087  11.707  0.2895  0.2121 -0.0444
16983W        W33457   5.180  14.758  13.400 -0.0611  0.2645 -0.3909
16984W        W33458  16.066  10.054   5.651  0.2226 -0.1598 -0.2592
16985W        W33459  16.761   0.174  16.187  0.3329 -0.1949  0.4727
16986W        W33460   5.253   7.839   0.042  0.2702 -0.1206 -0.3812
16987W        W33461   2.618   5.865  14.008  0.1827  0.2124  0.0656
16988W        W33462   8.789  17.507  16.503 -0.1003 -0.1913  0.0204
16989W        W33463   6.200  13.791  15.347  0.2565 -0.0100  0.4431
16990W        W33464   0.438   6.565   6.199 -0.0034  0.2241  0.1811
16991W        W33465   2.672   8.987   4.833 -0.2461  0.1833  0.0875
16992W        W33466   8.148  17.199  13.595  0.0759 -0.1125  0.2336
16993W        W33467  10.941   8.713  16.031 -0.0339 -0.1754 -0.0411
16994W        W33468  17.142  11.845   4.209  0.1737  0.0540 -0.3053
16995W        W33469   3.476   5.159  13.131  0.0907 -0.5334 -0.1028
16996W        W33470   4.441   0.010  16.293 -0.1382 -0.4171  0.1798
16997W        W33471  13.887   9.094   2.385 -0.2207 -0.2193  0.3991
16998W        W33472  16.043  10.336   1.408 -0.2443 -0.1381  0.2372
16999W        W33473   0.384  14.436   6.320  0.0297 -0.1441 -0.0517
17000W        W33474   6.585   3.826  14.879 -0.1475 -0.2031  0.2901
17001W        W33475   7.151  13.598  15.732 -0.1910  0.0950 -0.3023
17002W        W33476   6.051  11.897   4.111 -0.2878 -0.2302 -0.1380
17003W        W33477   0.802   4.364   2.898 -0.0046 -0.2486  0.1700
17004W        W33478  17.275  17.974   1.782  0.2542 -0.0349  0.0369
17005W        W33479   7.473  12.423  15.180  0.0423 -0.0077 -0.1652
17006W        W33480  10.687   9.474  16.391  0.0557  0.0338  0.0114
17007W        W33481   1.224  12.836   2.199 -0.3754  0.0433 -0.3588
17008W        W33482   0.409   7.390  13.537  0.0818 -0.0959  0.1212
17009W        W33483  12.490   6.817  13.789  0.0472 -0.1062  0.1746
17010W        W33484   4.165   4.220   5.933 -0.1472 -0.2415  0.2060
17011W        W33485   8.213   0.293  14.701 -0.3629  0.1126  0.1156
17012W        W33486   0.316   4.381   1.821  0.0971  0.0499  0.3121
17013W        W33487   5.090   6.032  11.627 -0.1899 -0.0853  0.0738
17014W        W33488   2.350   5.649   1.615  0.1452  0.3273 -0.0609
17015W        W33489   9.206   7.715   3.511 -0.3228 -0.0073  0.0519
17016W        W33490  16.550  10.040   3.770  0.1159  0.0642  0.2158
17017W        W33491  14.833  14.764   0.125 -0.3564 -0.0610 -0.1553
17018W        W33492   1.848   1.863   2.746  0.0045  0.1544 -0.0422
17019W        W33493   6.381   4.199   3.084 -0.4978  0.1244 -0.1901
17020W        W33494  10.822   7.164   2.763 -0.1793  0.1129  0.0703
17021W        W33495   1.709  13.696   3.589  0.0553 -0.3323  0.3244
17022W        W33496  10.441  17.488   5.058 -0.0957 -0.0676 -0.1466
17023W        W33497  10.931   1.284  15.326  0.3944 -0.0115  0.3118
17024W        W33498  11.229  15.762   1.013  0.0901 -0.0331 -0.0585
17025W        W33499   2.898  14.196  13.828 -0.0894 -0.0371 -0.1440
17026W        W33500   7.131  17.336   3.380 -0.0271  0.1553 -0.2138
17027W        W33501   9.112   9.110  13.979 -0.1884  0.0560 -0.0373
17028W        W33502   7.858  10.142   5.153 -0.0827  0.2360 -0.1561
17029W        W33503  17.083   2.843   2.436 -0.0234 -0.1198  0.2658
17030W        W33504  17.829   8.825  14.746  0.1357  0.0078  0.4841
17031W        W33505   2.481  12.175  14.741 -0.0839 -0.2161  0.0725
17032W        W33506  10.899  11.873  13.907  0.0194 -0.2415 -0.1370
17033W        W33507  11.760  16.353   0.967  0.1966  0.2055 -0.2659
17034W        W33508  11.506   4.328   1.987  0.2457  0.0368 -0.3453
17035W        W33509   5.182  12.173   2.862 -0.0056  0.0666 -0.0891
17036W        W33510   1.527  12.075  14.339 -0.2399 -0.3728 -0.1166
17037W        W33511   2.312   3.857   0.186 -0.3128 -0.0485 -0.1672
17038W        W33512   3.517   2.811   2.909  0.0328 -0.0457 -0.1393
17039W        W33513  14.633   8.027   2.294  0.1365 -0.0573  0.1289
17040W        W33514  12.666  11.829   2.195 -0.2513 -0.0450  0.0337
17041W        W33515   9.686   1.555   2.946  0.1271  0.1435 -0.4479
17042W        W33516   2.767   6.948  16.183  0.2754  0.1090  0.3026
17043W        W33517   9.520  17.822  12.471  0.2143  0.2357  0.1701
17044W        W33518   6.510  11.622  13.831 -0.2058  0.0961  0.2624
17045W        W33519   5.230  12.645   4.323 -0.0345  0.0821  0.0487
17046W        W33520  13.138  11.894  14.004  0.0427  0.1691  0.1766
17047W        W33521   1.429   1.594   2.519 -0.2107  0.0024  0.0085
17048W        W33522   3.215   2.666   4.721 -0.0812  0.0129  0.0036
17049W        W33523  17.266   1.084   5.429 -0.2772  0.2745  0.2202
17050W        W33524   7.188   3.254   3.489  0.0238 -0.0341 -0.0876
17051W        W33525   0.825  10.074  16.345  0.2136  0.2119 -0.2057
17052W        W33526  15.017   4.553   6.025 -0.0187 -0.1799 -0.0708
17053W        W33527   5.284  12.688  13.172  0.1529  0.0505 -0.1110
17054W        W33528  13.280   5.676   4.334 -0.0685  0.1018  0.1112
17055W        W33529  16.844  13.383  11.820 -0.2895  0.1432 -0.1023
17056W        W33530  10.907   7.322   2.237 -0.1205  0.0883  0.1513
17057W        W33531   3.266   1.324  12.794 -0.4294  0.3241  0.0741
17058W        W33532  10.872  10.783  14.953 -0.0631 -0.0239  0.1163
17059W        W33533  15.057   2.723  13.499  0.1825  0.1449 -0.1116
17060W        W33534   9.364   3.739  13.145 -0.0503 -0.3694  0.0812
17061W        W33535  13.933   8.336  12.910 -0.3044  0.1579 -0.0825
17062W        W33536  12.837   3.045  14.511 -0.0690 -0.0641 -0.0132
17063W        W33537  17.456   0.160  11.256 -0.1743  0.0859  0.2936
17064W        W33538  13.391  12.899  16.149  0.0927  0.1636  0.0730
17065W        W33539  10.045   2.969   4.438  0.0637  0.1355  0.2407
17066W        W33540  17.958   9.917  13.114  0.4440  0.2665  0.0948
17067W        W33541   7.455   0.136  16.143  0.1436  0.0330  0.2429
17068W        W33542  16.169  12.264  13.475  0.0515 -0.0759 -0.1215
17069W        W33543   2.035  12.596   5.071  0.0497 -0.2324  0.2962
17070W        W33544   3.962   1.310  14.063  0.2191 -0.0641  0.1552
17071W        W33545  14.756  11.064   2.986 -0.1943 -0.0385 -0.0883
17072W        W33546  17.728   5.509  14.722 -0.0343 -0.1382  0.0942
17073W        W33547   3.869  16.128  16.513  0.1859 -0.0810  0.1171
17074W        W33548  16.546  15.356   1.529 -0.1675  0.1646  0.2190
17075W        W33549  17.382   9.632   2.993 -0.1504 -0.1766 -0.0482
17076W        W33550   7.008   9.441   0.613  0.1531 -0.1837  0.1212
17077W        W33551   0.890   9.156   1.243  0.3109  0.2124  0.2557
17078W        W33552   4.151  10.706  14.024  0.0705  0.1940 -0.0774
17079W        W33553  10.858   5.252   1.150 -0.0593  0.0398 -0.1306
17080W        W33554  10.058  13.874  13.359  0.2274  0.1742  0.1367
17081W        W33555   1.327   4.830  16.129  0.0580 -0.2162 -0.2517
17082W        W33556  10.097  12.332  14.224  0.0291 -0.1082  0.3643
17083W        W33557  13.158  14.287   2.808 -0.2375 -0.2985 -0.3323
17084W        W33558   0.793   6.856  14.274  0.0273  0.0976  0.2929
17085W        W33559  10.595  16.063  16.765 -0.2128 -0.0190  0.3254
17086W        W33560  17.079  12.877  11.931 -0.0489 -0.0119 -0.1919
17087W        W33561   7.647   3.214  12.961  0.1916 -0.2252  0.0868
17088W        W33562  16.792  17.888  13.470  0.0639  0.0358 -0.0463
17089W        W33563   8.567   5.277   2.423 -0.2550 -0.0045  0.0936
17090W        W33564  17.198  16.536   0.578 -0.3966 -0.0716  0.2541
17091W        W33565   1.230   5.873   1.440  0.1417  0.0724 -0.1910
17092W        W33566  15.939   8.697  15.617  0.0909  0.1141 -0.1353
17093W        W33567  16.522   3.234   6.008 -0.0926 -0.3104  0.0142
17094W        W33568  16.183   6.969   2.960 -0.1169  0.0091 -0.1145
17095W        W33569  13.900  13.243   4.362  0.1212  0.0856 -0.1282
17096W        W33570  16.929   3.185   1.465 -0.0855 -0.0470  0.1221
17097W        W33571  12.861   7.387   3.738 -0.1409 -0.0344  0.0323
17098W        W33572  15.747   3.683  12.759  0.2404  0.1738  0.2482
17099W        W33573   6.895  14.522  14.806  0.0355 -0.0100  0.2115
17100W        W33574  16.622   0.256  16.730 -0.1850 -0.0236 -0.2706
17101W        W33575  14.544   3.919   4.904  0.1107 -0.1381 -0.0932
17102W        W33576  14.454   3.706  14.701 -0.0963 -0.0539 -0.0007
17103W        W33577  13.612   4.940  13.020 -0.0670  0.0020 -0.0780
17104W        W33578   9.132   0.457   1.392  0.1389  0.0292 -0.0353
17105W        W33579  13.823  11.761  13.434  0.1137  0.1012 -0.0094
17106W        W33580  15.736  17.483  14.807  0.2432 -0.0115 -0.0422
17107W        W33581  16.912   2.351   2.685 -0.2193 -0.0508  0.1870
17108W        W33582  14.146   8.447  15.734 -0.0865 -0.0914  0.1509
17109W        W33583   6.026  10.995  16.391  0.0766 -0.4722 -0.4101
17110W        W33584  13.876  14.155   0.580  0.1190 -0.3613  0.2903
17111W        W33585  15.328   9.809   4.749  0.1270  0.1021  0.1930
17112W        W33586  14.685   7.616   3.640  0.1451 -0.1050  0.0732
17113W        W33587  10.437   6.357   5.540 -0.0704  0.1982  0.0014
17114W        W33588   7.072  16.363   5.027  0.2192  0.0175 -0.0470
17115W        W33589  12.931  15.230   5.215  0.1793  0.0057 -0.1544
17116W        W33590  14.195   6.895  11.793 -0.0747  0.2891  0.1768
17117W        W33591  13.975  16.187  13.028  0.1688 -0.0925 -0.2566
17118W        W33592   7.458  15.657  13.040  0.0894  0.0721  0.3264
17119W        W33593   9.800   2.987   3.153 -0.1435 -0.1936 -0.2033
17120W        W33594  15.652   0.586   1.667 -0.1455  0.0035  0.3353
17121W        W33595  14.220  12.961  15.128 -0.1385  0.0437  0.1668
17122W        W33596  15.572   8.801  12.535  0.3303 -0.0082 -0.1641
17123W        W33597   3.088   6.162   2.531 -0.0625 -0.0856 -0.0161
17124W        W33598  10.865  16.284   3.822  0.0506  0.1083 -0.0610
17125W        W33599  16.509   3.424   0.724 -0.0325 -0.0243  0.0738
17126W        W33600   7.029  15.455   0.504 -0.3012 -0.1655  0.1447
17127W        W33601   8.500  17.708   5.203 -0.0255  0.2858  0.3140
17128W        W33602   4.058  10.423  14.434  0.0732 -0.0446  0.0274
17129W        W33603   5.546   7.130   4.661 -0.1155 -0.1041 -0.0021
17130W        W33604   5.532   1.231  13.338 -0.3597 -0.0095 -0.1513
17131W        W33605  17.391   1.830   2.133  0.3187 -0.1752 -0.0121
17132W        W33606   7.620  17.507  15.417 -0.0126 -0.0166 -0.0365
17133W        W33607   9.046   2.997  14.563 -0.1577  0.1804  0.2782
17134W        W33608  12.468  17.291  14.334 -0.4869  0.2594  0.1471
17135W        W33609   8.607  13.388  13.900  0.1167  0.0056  0.1078
17136W        W33610  14.348   5.318   2.540  0.1829  0.0913  0.1766
17137W        W33611   0.285  17.742   1.519  0.1950 -0.2387  0.1445
17138W        W33612   7.248   0.433  15.218  0.1165 -0.0268 -0.1440
17139W        W33613   0.182  13.779  14.035 -0.0852 -0.0974 -0.2759
17140W        W33614  14.277   1.295   0.043  0.0270 -0.0996  0.2935
17141W        W33615   1.470   6.900   2.250 -0.1268  0.0281 -0.1820
17142W        W33616  15.736  10.433  16.158  0.0289  0.1732 -0.1366
17143W        W33617   5.794  15.849   2.398  0.3558 -0.3715 -0.1185
17144W        W33618   9.842   6.640   2.212 -0.0373 -0.0868  0.1240
17145W        W33619  10.310   6.041   5.917  0.3620 -0.1304  0.1963
17146W        W33620   2.851  14.528  16.346 -0.0384 -0.5359 -0.2648
17147W        W33621  15.005   7.845   3.971 -0.0086  0.0017  0.2169
17148W        W33622   8.929   3.617  12.930 -0.0207 -0.3466  0.2885
17149W        W33623   0.205  16.419   3.999 -0.2986 -0.1626  0.0038
17150W        W33624   1.183   2.953  14.319  0.1384 -0.0095  0.1423
17151W        W33625  14.584  14.088  12.846  0.0792  0.1420  0.4070
17152W        W33626   1.824  11.760  14.734 -0.2689  0.1849  0.1658
17153W        W33627  11.519   1.909  14.982 -0.0602 -0.2239 -0.1170
17154W        W33628   2.950   0.195   2.993 -0.2158 -0.0649  0.2500
17155W        W33629   5.669  14.375  14.774 -0.1447  0.0024  0.2829
17156W        W33630  10.110   5.190  14.119 -0.0085  0.0901  0.1187
17157W        W33631  11.393  17.962   3.631  0.1775  0.0079  0.0079
17158W        W33632  13.786  10.817  12.271 -0.1692  0.2835 -0.0851
17159W        W33633   4.954   1.209   3.591 -0.1314  0.2182 -0.2042
17160W        W33634   8.441   6.160  15.091  0.0898 -0.2213 -0.1352
17161W        W33635   0.851  12.375  16.223  0.3197  0.1732  0.1771
17162W        W33636   7.156   2.085  11.697  0.0184 -0.2186 -0.3104
17163W        W33637   2.071  16.178   2.401 -0.1376  0.2837  0.0706
17164W        W33638  11.786   3.990   4.141 -0.0535  0.0493 -0.0925
17165W        W33639  11.604  11.015  14.413  0.4605  0.3380 -0.2580
17166W        W33640   5.141  11.428   3.455 -0.1442  0.1546  0.0775
17167W        W33641   6.774  10.006   2.002 -0.1025 -0.2771 -0.0494
17168W        W33642   3.020   0.959  14.177  0.1081  0.1035 -0.0714
17169W        W33643   3.174  17.731  13.393  0.5345  0.1868 -0.0445
17170W        W33644   6.922  13.829  16.516 -0.3184  0.0190  0.2081
17171W        W33645   3.256  14.365   1.636  0.1834  0.0552 -0.0570
17172W        W33646   7.367   9.360  12.663 -0.0780 -0.3502  0.0135
17173W        W33647   1.728   8.590   3.758 -0.1397  0.0239 -0.1465
17174W        W33648   2.125  17.489   5.731 -0.0382 -0.2099 -0.0215
17175W        W33649  12.697  12.866   4.919 -0.0244  0.3929  0.0183
17176W        W33650  11.940  12.947  12.549  0.3998 -0.0646 -0.2302
17177W        W33651   6.742  16.133   6.076 -0.1401 -0.2384 -0.0542
17178W        W33652   2.640   9.914   4.551  0.1709  0.0974  0.0123
17179W        W33653  12.013  10.025  13.331  0.2450  0.1729  0.0172
17180W        W33654  12.706   1.801   5.030 -0.1819  0.0555 -0.0198
17181W        W33655  16.095  16.740   4.005 -0.1271 -0.1226 -0.1990
17182W        W33656  14.446   9.043  15.676 -0.2104 -0.5280 -0.0223
17183W        W33657  12.145   2.385   4.920 -0.2471  0.0781 -0.2327
17184W        W33658  15.838   7.534  14.948 -0.0412  0.0394 -0.1290
17185W        W33659  12.607   5.100  15.589  0.0453  0.2250 -0.0654
17186W        W33660  10.621  17.889  16.244 -0.1011  0.2139  0.1514
17187W        W33661   3.371   9.972   2.727 -0.1111  0.1114  0.5213
17188W        W33662  12.103  13.754  11.208 -0.0515  0.0437 -0.3470
17189W        W33663   1.415   5.510   4.481 -0.1842  0.0308  0.1055
17190W        W33664  14.465  11.182   1.826 -0.0571 -0.3699 -0.2266
17191W        W33665   4.485  11.753  14.566 -0.2712 -0.0492  0.1858
17192W        W33666  13.719  12.084  16.430  0.2048  0.2382 -0.1859
17193W        W33667   5.462  17.902   4.733  0.1649  0.1853 -0.2264
17194W        W33668  11.608   6.199  14.467  0.0451 -0.0195 -0.1862
17195W        W33669   2.946  12.092   0.751 -0.3814  0.0261  0.2715
17196W        W33670  16.609   1.470  11.870  0.2069 -0.4098  0.0180
17197W        W33671  14.519  12.065  15.184 -0.0449 -0.3909  0.2331
17198W        W33672  17.870  11.726   4.701 -0.1316  0.0295 -0.0674
17199W        W33673   5.328   1.647  16.560 -0.0773  0.1166 -0.2586
17200W        W33674  16.016   7.273   0.759 -0.0170  0.2129  0.0464
17201W        W33675  15.853   9.474   1.242  0.3339 -0.1681 -0.1100
17202W        W33676  11.912   0.095  14.226 -0.1708  0.0357  0.1117
17203W        W33677   5.732   8.081  13.835  0.0931  0.0766 -0.0372
17204W        W33678   4.722  13.309   2.177  0.2491  0.3099 -0.0176
17205W        W33679  10.946   9.272   4.793 -0.0434  0.1744  0.0481
17206W        W33680   2.745   4.533  15.182  0.1540 -0.1889  0.2513
17207W        W33681  17.307  16.699   2.492  0.1219  0.1064 -0.0271
17208W        W33682  10.286   7.130  13.042 -0.1597  0.1690  0.2371
17209W        W33683  10.778  14.502  14.797  0.0652 -0.4965  0.0921
17210W        W33684   1.289  10.938  16.177  0.0201  0.0132 -0.2000
17211W        W33685   0.633   5.276   1.920 -0.0531  0.1170  0.4789
17212W        W33686  17.240   3.445   1.058  0.2133 -0.3979  0.1646
17213W        W33687   6.695  13.536   4.588 -0.0663 -0.0299  0.2107
17214W        W33688   4.130   7.333   0.089 -0.2682 -0.3399 -0.1065
17215W        W33689   8.891   0.833   3.837  0.0764  0.1188  0.0146
17216W        W33690  10.785  14.216   0.096 -0.2245 -0.2839  0.0937
17217W        W33691  11.915  16.606  14.913  0.0987 -0.0444 -0.1743
17218W        W33692  12.693  10.152  12.595 -0.0937  0.1139  0.0619
17219W        W33693   6.642  16.510   0.539  0.1391 -0.2412  0.2983
17220W        W33694   6.470   3.542  11.994 -0.0050 -0.3244  0.2368
17221W        W33695   3.973   4.146   4.920 -0.0652 -0.0159 -0.2090
17222W        W33696   4.812  14.207   2.033  0.0409 -0.0331  0.0126
17223W        W33697  15.158  10.139   1.020 -0.1333 -0.3517  0.0680
17224W        W33698   1.689  12.464  12.043  0.0206  0.3075  0.2417
17225W        W33699   4.397  15.088   2.583 -0.0201 -0.0355 -0.1286
17226W        W33700  13.076  13.836   2.166 -0.0455 -0.1675  0.0504
17227W        W33701   1.921   6.910   3.991 -0.3165  0.2845  0.0690
17228W        W33702   2.264  15.940  11.966  0.3305 -0.1182 -0.0406
17229W        W33703   8.169   1.595  16.524 -0.1665 -0.0455 -0.0314
17230W        W33704   7.907   5.513  15.603  0.2218  0.0547 -0.0981
17231W        W33705  11.802  16.663  14.429  0.0977 -0.1022  0.3326
17232W        W33706  10.455  15.625  13.267  0.0605  0.3238 -0.1125
17233W        W33707   7.578  11.657   2.950 -0.0024 -0.4262  0.1010
17234W        W33708  11.222   9.526  14.807 -0.1575 -0.0886  0.3457
17235W        W33709   4.479  13.754  16.688 -0.1640  0.0120 -0.1311
17236W        W33710  15.966   5.591  15.831  0.0335  0.0610 -0.0947
17237W        W33711   6.918  13.917   4.297  0.0095  0.1713 -0.1474
17238W        W33712   8.529   6.300   0.360  0.1231 -0.3321 -0.2259
17239W        W33713   9.298   3.806  11.829 -0.0127 -0.0599  0.1352
17240W        W33714  11.749   0.965  14.109 -0.3229  0.1270 -0.1320
17241W        W33715  16.661   5.626  14.685 -0.0129  0.1379  0.2529
17242W        W33716   9.947  10.204  13.856  0.0633  0.1074  0.1048
17243W        W33717   0.952  17.975   0.771 -0.0936  0.2939  0.0038
17244W        W33718  14.583   1.815  12.252 -0.1074  0.0222 -0.0730
17245W        W33719  11.286   1.009  16.312  0.2656 -0.0717 -0.1346
17246W        W33720  12.702  13.281   4.564 -0.0124 -0.1615 -0.0317
17247W        W33721   1.280  14.560   5.541  0.0639  0.0196 -0.0533
17248W        W33722   8.083   5.533  16.597 -0.0735  0.1099 -0.1173
17249W        W33723  12.363   3.839   1.517  0.2133  0.1600  0.1406
17250W        W33724   1.032  14.590  14.792  0.1997 -0.1172 -0.0498
17251W        W33725  17.091   4.745  13.723 -0.0856 -0.2286  0.1731
17252W        W33726  12.648  16.828   1.509  0.0834  0.0538 -0.5332
17253W        W33727   4.485  14.624  14.286 -0.1083  0.0398  0.0885
17254W        W33728  16.303   1.868   6.188 -0.1328  0.3550  0.2696
17255W        W33729   9.219   8.658   1.565 -0.0524  0.0146  0.0766
17256W        W33730  12.105   8.255  16.623 -0.0232  0.0785  0.3104
17257W        W33731  10.980   5.860   6.030 -0.2688 -0.0949 -0.0532
17258W        W33732  16.334  14.081  15.509  0.0818  0.2224 -0.0249
17259W        W33733  15.987   3.779   1.684 -0.1022 -0.0270 -0.3119
17260W        W33734   3.646   0.778  11.490 -0.0081 -0.4501  0.1502
17261W        W33735   3.741   2.841   4.824  0.1624  0.0594 -0.1688
17262W        W33736  13.937   2.219   3.694  0.1364  0.1313  0.1848
17263W        W33737   1.281  10.048  11.195 -0.0033  0.0878  0.0183
17264W        W33738   7.881  12.531   2.985 -0.1491 -0.2549 -0.0115
17265W        W33739   4.068   2.678  10.379 -0.0294  0.0215  0.3853
17266W        W33740   9.335   8.508   4.677 -0.2554  0.3668  0.2149
17267W        W33741  11.094  11.979   5.018  0.0518 -0.2025  0.1433
17268W        W33742   5.247   2.848  16.146 -0.1132 -0.0347 -0.0807
17269W        W33743  17.736   8.654  16.157  0.0767 -0.1633 -0.2171
17270W        W33744   6.596   7.694   1.486 -0.2024  0.2428  0.4971
17271W        W33745  13.771  12.564   2.524 -0.1387 -0.0899  0.2429
17272W        W33746  15.590  13.775   4.465  0.0378  0.0002 -0.1857
17273W        W33747   3.326  16.834   2.216  0.2878  0.0018  0.2099
17274W        W33748  16.027  13.661  14.560 -0.1444 -0.4344 -0.1390
17275W        W33749  12.816  14.985   1.532 -0.0739  0.1714 -0.0881
17276W        W33750   8.987  17.784   2.564  0.2985 -0.2352 -0.1873
17277W        W33751   3.622   4.243  12.497 -0.0102  0.2449 -0.0954
17278W        W33752   9.443   4.389  12.234 -0.0523  0.3426  0.0034
17279W        W33753  15.992   7.254   5.859 -0.0193  0.0645 -0.0265
17280W        W33754  12.469   8.960   2.247  0.0781  0.2221  0.2639
17281W        W33755   8.265   8.885  16.770  0.3118 -0.0304  0.0892
17282W        W33756  15.497   3.849  14.172  0.0977  0.0002 -0.0740
17283W        W33757  16.477  12.437  11.316  0.1111  0.2079  0.1943
17284W        W33758   8.779  12.637  12.987  0.1167  0.0986  0.2364
17285W        W33759   2.911  12.848   3.883 -0.0169 -0.0375 -0.0143
17286W        W33760  15.372   0.563  13.704  0.0973  0.2609  0.0525
17287W        W33761  13.262  17.359   2.841  0.0476  0.0497 -0.0581
17288W        W33762   3.041   6.461  12.057 -0.2176 -0.2682 -0.0252
17289W        W33763   5.569   5.356  14.751 -0.2701  0.1818 -0.2873
17290W        W33764   7.045   5.603   2.896  0.0745 -0.0703  0.2553
17291W        W33765  17.327   3.903  11.372  0.1155  0.0125 -0.1276
17292W        W33766   7.979  11.212   1.829 -0.1764 -0.3218  0.0068
17293W        W33767   5.985  13.289   1.341 -0.0042 -0.0137  0.1252
17294W        W33768  16.884   0.670  16.204 -0.2190  0.0606  0.6055
17295W        W33769   5.422  10.630   2.510  0.0692  0.2063  0.1893
17296W        W33770   7.238  12.003  15.400 -0.1077 -0.2519 -0.0004
17297W        W33771   6.916   3.809  12.246 -0.2031 -0.0072  0.1128
17298W        W33772   1.485   1.398   4.956 -0.0887 -0.1984 -0.0644
17299W        W33773   4.694   7.061  14.838  0.1148  0.0438 -0.1275
17300W        W33774  15.467  10.603   4.971 -0.1645  0.0977  0.1708
17301W        W33775   8.176   6.240  11.895  0.0904  0.1767  0.1746
17302W        W33776  12.888   7.698   3.349  0.0519 -0.1974 -0.0386
17303W        W33777   3.036  10.666  15.376  0.0936 -0.0234 -0.0126
17304W        W33778   6.542   5.814  13.274  0.1801  0.1555  0.1553
17305W        W33779  10.674   8.921  15.075 -0.1157  0.1240 -0.2172
17306W        W33780   2.478  12.796   5.414  0.2662  0.0804 -0.1628
17307W        W33781  12.440   7.840   5.301  0.1057  0.0675 -0.0883
17308W        W33782  17.335  16.790  14.514  0.0585  0.1225 -0.1150
17309W        W33783   9.656   7.368   4.073  0.1994  0.0768  0.3772
17310W        W33784   9.730   3.396  13.067 -0.3887 -0.2120  0.3368
17311W        W33785   0.346  17.545   0.083  0.1320  0.0702 -0.2605
17312W        W33786   6.589  12.849  14.283  0.1155  0.0178  0.2844
17313W        W33787  13.549  10.341   3.774 -0.0513 -0.2290 -0.0072
17314W        W33788  10.737  13.164  14.159  0.0714  0.1053  0.0819
17315W        W33789  13.659   1.267  14.111  0.3028 -0.1256 -0.0474
17316W        W33790  12.656  17.550   1.767  0.0392  0.1556 -0.2708
17317W        W33791  11.383  11.641  10.271  0.2006  0.0879  0.1812
17318W        W33792   4.899  10.150  13.445  0.2361  0.0392 -0.0809
17319W        W33793   2.355   3.457   2.940 -0.1179 -0.2397  0.0850
17320W        W33794   6.816   6.488  12.080  0.1761 -0.1360  0.1041
17321W        W33795   1.132  13.448  15.662 -0.2781  0.0933  0.2681
17322W        W33796  10.666   7.961   3.024 -0.0338 -0.1895 -0.1636
17323W        W33797   5.004   6.242   6.197  0.0010  0.0256 -0.1596
17324W        W33798  13.797  15.166   3.663 -0.1407 -0.0114  0.3499
17325W        W33799  13.160  16.956  16.373 -0.2460 -0.3897  0.1418
17326W        W33800   3.079  13.676   2.858 -0.3559 -0.1689 -0.1046
17327W        W33801   8.441  12.121   3.227  0.1563 -0.0962  0.1978
17328W        W33802   2.111   9.325   2.185  0.0352  0.2695 -0.2567
17329W        W33803  15.600   7.301   5.518 -0.3476  0.1501 -0.3492
17330W        W33804   3.372   0.133  13.737  0.2860 -0.0697 -0.1143
17331W        W33805   9.143   7.281  11.546 -0.0226 -0.0052 -0.0194
17332W        W33806  10.414   4.023   2.302  0.2761 -0.0681 -0.1853
17333W        W33807  14.634  15.884   0.725 -0.0714 -0.0908  0.0127
17334W        W33808  16.757  11.224  15.109 -0.0050  0.0169  0.0840
17335W        W33809   5.025   7.615  15.569 -0.0751 -0.1664 -0.1889
17336W        W33810   2.696  15.181   4.064 -0.1116 -0.3899 -0.3170
17337W        W33811   6.514   0.790   2.559  0.0361  0.0689 -0.2848
17338W        W33812  12.251   8.699  14.545  0.1942 -0.0142 -0.0091
17339W        W33813   2.566  12.475   4.580 -0.1229 -0.1153 -0.1852
17340W        W33814  15.595   7.200   0.958 -0.3930 -0.1309 -0.1557
17341W        W33815   8.397  17.100   1.473  0.1814 -0.2668 -0.0616
17342W        W33816   4.713   4.539   2.870  0.3718  0.0192  0.4361
17343W        W33817   9.839   0.338  15.796 -0.1984  0.0597 -0.0146
17344W        W33818  16.322  15.383   4.189 -0.0306 -0.1506  0.0243
17345W        W33819   7.476  16.985   5.259  0.1732 -0.1388 -0.0448
17346W        W33820  13.962   3.709  12.810 -0.2055  0.2867 -0.1288
17347W        W33821   0.371   8.293  15.668 -0.0973 -0.3141 -0.2638
17348W        W33822   5.920   4.495   3.697  0.0319  0.1140  0.0261
17349W        W33823  13.132   3.491  16.297  0.0120 -0.1611  0.2113
17350W        W33824   5.391  16.519   5.938  0.0352  0.1185 -0.4709
17351W        W33825  12.297  11.509  15.742 -0.0890 -0.0142 -0.1034
17352W        W33826   5.866   8.139   3.997 -0.1114 -0.0197  0.2001
17353W        W33827  13.811   3.546  15.476 -0.1499  0.0798  0.0698
17354W        W33828   8.908  13.142   1.667  0.0648  0.0329  0.3992
17355W        W33829  16.673   4.963  16.515  0.0128  0.2665  0.2718
17356W        W33830  10.830   5.386  13.450 -0.0384  0.0920  0.0322
17357W        W33831   3.459   6.315  12.165 -0.3792  0.1963 -0.2275
17358W        W33832   4.545  11.644  11.471 -0.0491 -0.0608  0.3689
17359W        W33833  15.170  15.073  12.524  0.0174  0.0095  0.1473
17360W        W33834  11.747  11.909  14.430  0.1366  0.2653 -0.1892
17361W        W33835   6.526   5.354   6.200  0.1346 -0.0065  0.0935
17362W        W33836   0.128  10.981   0.049  0.0762  0.3819  0.0097
17363W        W33837  13.237   9.635  13.546  0.4524 -0.0289 -0.1711
17364W        W33838   6.256  15.451  13.517  0.1164 -0.0387  0.1944
17365W        W33839   5.170  17.361  13.644  0.1526  0.4734  0.3010
17366W        W33840  14.183   9.128  12.089 -0.0565 -0.2553 -0.1301
17367W        W33841  11.922   9.161   3.195 -0.0562  0.0563 -0.2461
17368W        W33842   0.905   4.456   3.414 -0.1550 -0.0112 -0.0339
17369W        W33843  17.251  11.049  15.126 -0.2103  0.1000  0.0494
17370W        W33844  14.238   2.332   4.166 -0.0650  0.0024 -0.2413
17371W        W33845  16.019   1.153   3.935 -0.0681 -0.0281 -0.0816
17372W        W33846   1.080  13.802  16.646  0.0871 -0.0890  0.0625
17373W        W33847   2.548   4.417   2.585 -0.0496  0.1661 -0.1416
17374W        W33848  15.831  10.021  13.895  0.2579  0.1127 -0.0352
17375W        W33849  14.937  11.486  14.059  0.0879 -0.1060  0.3030
17376W        W33850  11.354   4.096  13.595 -0.0810 -0.0876 -0.1838
17377W        W33851  10.222  16.106  13.062 -0.1601 -0.1497 -0.0679
17378W        W33852   9.667   0.734  11.827  0.0265  0.0510  0.4050
17379W        W33853  16.637  17.134   1.663  0.4206 -0.0102 -0.1167
17380W        W33854   2.737  16.171  14.208 -0.0099  0.1553  0.1685
17381W        W33855   7.293  17.746  14.461 -0.1868  0.2355  0.0435
17382W        W33856  10.616  12.199  14.324  0.2242  0.1110 -0.3371
17383W        W33857   4.356   9.188   4.700  0.1802 -0.0936  0.0236
17384W        W33858   3.480  16.361   1.517 -0.0858 -0.1298 -0.0163
17385W        W33859   4.050  16.111   2.590 -0.1556  0.0554 -0.0828
17386W        W33860   3.803   6.370  16.576  0.2323 -0.2477 -0.0297
17387W        W33861   7.575   5.145  15.712 -0.0026  0.1562  0.2438
17388W        W33862   1.743  11.837   0.397  0.0111  0.0276  0.0889
17389W        W33863  14.583  12.217  14.634  0.1882  0.0546 -0.0247
17390W        W33864   6.876   3.913   5.220 -0.2211 -0.1167  0.1461
17391W        W33865   2.952  15.570  16.008 -0.0282  0.2229  0.1835
17392W        W33866   6.772  13.982  12.158 -0.2615  0.0662  0.1132
17393W        W33867  11.103  13.799  15.480  0.2081  0.0726 -0.0874
17394W        W33868  16.867   5.831   3.121  0.1176  0.0201 -0.2226
17395W        W33869   0.589   4.952   0.034  0.0926 -0.2660  0.1443
17396W        W33870   6.557   0.479  12.144  0.2316  0.0417  0.1638
17397W        W33871   4.205  17.050   0.482  0.2266 -0.0887 -0.0057
17398W        W33872   3.165   2.855   1.312  0.1181 -0.3165  0.0470
17399W        W33873  11.357   0.816   2.380  0.1529 -0.0640 -0.1385
17400W        W33874   9.240   0.521  14.450  0.1596 -0.0453  0.1935
17401W        W33875  11.721   7.963  15.900 -0.2753 -0.3080 -0.0486
17402W        W33876  15.521   2.503   1.058  0.0576  0.0013  0.0404
17403W        W33877  16.702   9.612  12.911 -0.1221 -0.0209 -0.0150
17404W        W33878  12.349  10.370   3.665  0.0538 -0.0281  0.2233
17405W        W33879   8.448  10.821   0.495 -0.2608  0.3971 -0.0842
17406W        W33880  10.966   0.581  14.634  0.2773 -0.0174  0.2957
17407W        W33881   1.016   7.622   3.251  0.0243 -0.1069 -0.2279
17408W        W33882   1.834  14.530   1.431  0.0494  0.0832  0.1462
17409W        W33883   2.698   2.351  11.774 -0.2863 -0.0939  0.1695
17410W        W33884  15.503  15.499  13.884  0.0257 -0.2625  0.1350
17411W        W33885   0.089  12.314  12.798  0.2398 -0.0460 -0.0916
17412W        W33886   8.486   1.507  14.386  0.3754  0.0462  0.0295
17413W        W33887  11.949   7.107  15.066 -0.0772 -0.0580  0.3622
17414W        W33888  13.993   3.588  16.723  0.3981  0.0284  0.1694
17415W        W33889  10.629  14.483  16.451 -0.3215  0.2524  0.0227
17416W        W33890  17.155   7.228   4.145  0.0836  0.0369 -0.1086
17417W        W33891   6.525   4.527  15.362  0.1371 -0.2603  0.1648
17418W        W33892  12.154   3.780   4.966  0.4457 -0.1418 -0.1682
17419W        W33893  17.003  12.340   4.179 -0.3474 -0.0569 -0.1145
17420W        W33894   4.705   6.389   2.258 -0.1500 -0.1246  0.2735
17421W        W33895   4.591   2.298   0.527 -0.0334 -0.2153 -0.1784
17422W        W33896  10.137   2.440  14.126 -0.0677  0.0255  0.2725
17423W        W33897  10.391   7.059  15.374 -0.3244 -0.0614 -0.0329
17424W        W33898   9.212  11.762   6.003 -0.3454 -0.0096  0.2516
17425W        W33899   1.768  12.627  10.973  0.0025 -0.0050 -0.1397
17426W        W33900  15.052  16.511   5.327 -0.1730 -0.1209 -0.2512
17427W        W33901  16.899   0.312  11.965  0.2481  0.1618  0.0324
17428W        W33902  15.293  15.852  12.228  0.1441 -0.1800 -0.0336
17429W        W33903   0.250   9.556  13.191 -0.0910 -0.0781 -0.0615
17430W        W33904   6.182  15.996  11.436  0.0181  0.0980  0.0996
17431W        W33905  11.484  15.850   3.734  0.1202 -0.3131 -0.0596
17432W        W33906   1.349   4.188   1.450  0.2584 -0.0416  0.1763
17433W        W33907  12.869   7.967   6.127  0.0352 -0.1558  0.2405
17434W        W33908  17.354   2.784  15.200  0.1248 -0.2971  0.4059
17435W        W33909  13.060  15.108  14.620  0.0524 -0.0881 -0.2109
17436W        W33910   7.345   4.440   2.677  0.0262  0.0051 -0.1294
17437W        W33911   8.655  17.962  14.680  0.1472 -0.2135 -0.0697
17438W        W33912  14.906  17.357   5.833 -0.2721 -0.0599 -0.2303
17439W        W33913   1.239   0.295   2.070 -0.1010 -0.0426  0.1041
17440W        W33914   6.505   1.069   5.221  0.1047 -0.3085 -0.3592
17441W        W33915  11.777   7.963   4.662 -0.0228  0.0323  0.1655
17442W        W33916   8.441  17.178  16.250 -0.0232  0.0491 -0.0463
17443W        W33917  16.955  17.321  16.545  0.1344  0.1827  0.1515
17444W        W33918   1.872  15.163  15.152 -0.2062  0.0054 -0.0875
17445W        W33919  12.782  14.085  11.589 -0.2677 -0.2325 -0.2902
17446W        W33920   9.828  10.221   1.162 -0.1634  0.2875  0.1477
17447W        W33921  17.787  16.170   4.724 -0.1696 -0.2457  0.0844
17448W        W33922  11.761  15.346   5.285  0.3250 -0.1900  0.1430
17449W        W33923   3.615   1.978  14.535  0.1716 -0.0139 -0.0430
17450W        W33924  11.115   9.673  12.803  0.2512  0.0800 -0.2707
17451W        W33925  16.267  16.162   3.240 -0.1635 -0.1888  0.0494
17452W        W33926   7.374   5.856   2.476  0.1071  0.2101 -0.1271
17453W        W33927  15.010   8.327   2.224  0.1818 -0.2028  0.0498
17454W        W33928   3.534   7.119  11.936 -0.2819  0.2063 -0.0350
17455W        W33929  16.537  13.106  15.015  0.0208 -0.1304 -0.2749
17456W        W33930   3.219   8.734  11.863 -0.0100 -0.0173  0.2782
17457W        W33931  17.730  15.245   5.612 -0.0911  0.1005 -0.1058
17458W        W33932   8.852  14.238  15.960 -0.0325  0.2735 -0.1877
17459W        W33933  10.185  15.511  15.185  0.1304 -0.2341 -0.0274
17460W        W33934   2.778   2.958  12.701 -0.2187 -0.2437 -0.2742
17461W        W33935  13.348  16.137  14.090 -0.0425 -0.2298 -0.2569
17462W        W33936   3.886  16.134   4.806  0.2744  0.0619  0.0589
17463W        W33937   8.239   7.138  14.991  0.1142 -0.0214  0.2744
17464W        W33938   7.243  14.216   0.659  0.1340 -0.1919  0.1856
17465W        W33939   2.002  11.351  13.288 -0.2232  0.1010 -0.2740
17466W        W33940  17.877   0.100  14.130  0.1078  0.0425 -0.0861
17467W        W33941   2.586   7.733  11.319  0.1066 -0.0116 -0.0176
17468W        W33942  17.971  13.284   0.197 -0.0436  0.0743  0.2945
17469W        W33943   2.741  10.597  13.798 -0.1726  0.0053  0.0522
17470W        W33944   4.504  17.539  14.367  0.0351  0.1224 -0.0302
17471W        W33945  11.186   8.014   5.837  0.1773  0.0017  0.0104
17472W        W33946  11.912  12.739   3.587 -0.0806  0.2896 -0.1329
17473W        W33947   3.624   1.994  14.031  0.0696 -0.1360  0.0906
17474W        W33948   2.518  10.630   1.826 -0.0724  0.0143 -0.2581
17475W        W33949   6.839   7.171  13.643  0.2905  0.0612  0.0720
17476W        W33950   3.351  15.305   0.982  0.0652 -0.1999 -0.2133
17477W        W33951   5.554  11.890   4.102 -0.1756  0.1893  0.0950
17478W        W33952  10.720  15.698   6.185 -0.0115 -0.4601 -0.0920
17479W        W33953   2.819   3.917  14.137  0.3646  0.1906 -0.1541
17480W        W33954   5.784  13.559   4.677  0.0549  0.0160  0.0932
17481W        W33955   1.585  12.281   3.493  0.0926  0.0007  0.2080
17482W        W33956  14.930   9.698   6.205 -0.0028 -0.1496 -0.0823
17483W        W33957   2.213  14.237   1.160 -0.3046  0.1438 -0.2113
17484W        W33958   1.970  14.342  14.914 -0.0223  0.3460 -0.1863
17485W        W33959  10.038  12.867   5.153  0.1490  0.0723 -0.3435
17486W        W33960  10.632  10.259   2.304  0.1674  0.3323 -0.5326
17487W        W33961  16.582   9.402  15.968 -0.0031  0.0538 -0.1517
17488W        W33962   5.093  12.424  15.399 -0.2216 -0.3120  0.1808
17489W        W33963   9.217  12.769  12.171 -0.2209  0.0817  0.1441
17490W        W33964   5.948  16.112  11.891 -0.0194  0.1421 -0.0856
17491W        W33965  17.774   9.905  12.013 -0.0584 -0.2703 -0.0973
17492W        W33966   2.002  15.290  14.702 -0.0468  0.2124 -0.0602
17493W        W33967   0.053   0.248  14.912 -0.0789 -0.0189  0.2191
17494W        W33968   4.189   2.883   3.639 -0.2267 -0.0319  0.0247
17495W        W33969   6.865  15.711  16.415  0.1133  0.0133  0.0887
17496W        W33970  16.272   9.129  12.089  0.0228  0.1998 -0.0251
17497W        W33971   6.413  15.278   3.673  0.3838  0.1596 -0.2035
17498W        W33972  10.939  15.704   3.743  0.0086 -0.1247  0.1506
17499W        W33973   7.463   3.183  14.684  0.1839  0.0700  0.2566
17500W        W33974   7.295   2.326  14.514 -0.1730 -0.1485  0.1545
17501W        W33975  13.015   9.503   2.733  0.1147  0.0658  0.0130
17502W        W33976  17.402   5.672   0.495  0.1826  0.2511 -0.1391
17503W        W33977  16.383  14.858  10.652 -0.1689 -0.0380  0.1292
17504W        W33978  12.313   8.768  14.040 -0.1659  0.1008 -0.2477
17505W        W33979   2.573   3.334   1.890  0.0700 -0.0291 -0.0700
17506W        W33980   4.168   4.363   2.793  0.0573 -0.0733  0.1121
17507W        W33981   5.513  13.096   5.564  0.1243  0.5294 -0.2456
17508W        W33982  12.907   3.838  15.396 -0.0739  0.1911 -0.2018
17509W        W33983   7.412  15.356  11.961 -0.3964 -0.0965 -0.1226
17510W        W33984  10.455  16.495  13.358 -0.1898 -0.0875  0.2146
17511W        W33985   9.779   7.295   0.531  0.2633 -0.1941 -0.0325
17512W        W33986  14.258   1.539   5.520  0.1646 -0.1099  0.1078
17513W        W33987   9.542  10.678   1.056  0.1704 -0.0177  0.0301
17514W        W33988  16.483  12.728  13.909  0.3580 -0.0427 -0.0859
17515W        W33989  15.450  17.531   5.131 -0.0601  0.0099 -0.4270
17516W        W33990  17.188   2.993  13.921  0.0743  0.1093 -0.3343
17517W        W33991   7.244   8.392   0.804 -0.1559  0.1804 -0.1065
17518W        W33992  10.531   4.179   0.180  0.1518  0.0069 -0.0403
17519W        W33993   7.321  12.492   3.053  0.0889 -0.1042 -0.1456
17520W        W33994  10.843   1.763  13.359 -0.2304  0.2769  0.2945
17521W        W33995   0.856   1.259  13.860  0.0108 -0.1138 -0.1270
17522W        W33996   1.168   3.879  11.657  0.2265 -0.0696  0.2269
17523W        W33997   9.216   4.769   4.157  0.0748  0.0588  0.1493
17524W        W33998   8.578   8.295   0.565 -0.2364  0.1321  0.0748
17525W        W33999  13.260   5.174   4.602  0.0177  0.2948 -0.0685
17526W        W34000   5.500   7.722  11.868 -0.1653  0.0676  0.2170
17527W        W34001  14.957   1.814  16.234 -0.1399 -0.0234  0.0625
17528W        W34002  15.997  12.826   4.751  0.0117  0.1055  0.0267
17529W        W34003   2.932   2.985  14.900 -0.0343 -0.0361 -0.1241
17530W        W34004   3.902  16.646  12.463 -0.3192  0.2149 -0.2375
17531W        W34005   6.120   6.586  13.563  0.0792  0.3004 -0.1083
17532W        W34006   5.174   6.420   0.855  0.2703  0.1709  0.0586
17533W        W34007   6.182  14.524  13.072 -0.4277 -0.1300 -0.5115
17534W        W34008  14.142  12.870  14.023  0.1677  0.1137 -0.4103
17535W        W34009  10.032   9.173   3.024 -0.0481  0.1852 -0.0390
17536W        W34010   3.780   3.945  11.737  0.0611 -0.2512  0.0932
17537W        W34011   4.504  15.722  15.297 -0.1670 -0.0022  0.0649
17538W        W34012   0.584  12.759   4.237 -0.0251 -0.1999  0.0207
17539W        W34013   5.746  14.394  11.911 -0.1768  0.1511  0.1222
17540W        W34014  15.408   5.450   5.207 -0.1424  0.1159  0.2139
17541W        W34015   2.886  10.276   2.654 -0.2966  0.0401  0.0816
17542W        W34016   5.700  13.977  15.156  0.0712  0.1407 -0.0092
17543W        W34017   8.852  10.357  15.681 -0.0826  0.1290 -0.1126
17544W        W34018  16.430  13.133  11.934 -0.2652 -0.2752 -0.0285
17545W        W34019   0.231  12.717  15.031 -0.0455 -0.1196  0.0670
17546W        W34020  14.541  16.523   1.051  0.0614 -0.0613 -0.1040
17547W        W34021   1.069  14.778   5.154 -0.0577  0.2955 -0.1690
17548W        W34022   3.558   8.971  16.379  0.1777 -0.2401 -0.2544
17549W        W34023   3.248  14.617   2.620  0.0714  0.0123 -0.1863
17550W        W34024   1.073   5.515   0.943  0.0876 -0.0570 -0.2156
17551W        W34025   0.027  11.599   0.888 -0.0082 -0.1117  0.1692
17552W        W34026  10.635  12.529  15.874  0.3979  0.2928 -0.3528
17553W        W34027  14.149   5.739   4.808 -0.0636 -0.0898 -0.1509
17554W        W34028  10.230   4.711   1.117  0.2725 -0.1265  0.3414
17555W        W34029   3.015  12.742  11.724  0.1014  0.1923  0.1728
17556W        W34030  17.939  14.602   1.284 -0.2873  0.1936  0.0899
17557W        W34031   8.539  12.908   5.904 -0.1722 -0.0451 -0.0017
17558W        W34032  14.591  15.418  13.900 -0.3700 -0.1402  0.0265
17559W        W34033   0.516   7.426  14.045 -0.0410  0.0850  0.1185
17560W        W34034   4.496  10.581  16.276  0.2769  0.1282 -0.2827
17561W        W34035   1.014   2.785   0.350 -0.1383 -0.1264 -0.2471
17562W        W34036  16.807  17.589   3.671  0.1687  0.0787  0.0920
17563W        W34037  15.963   7.465  11.376 -0.2399  0.0402 -0.1195
17564W        W34038   8.701  10.400   1.358  0.1052 -0.0294 -0.0871
17565W        W34039   1.444   9.012   4.952  0.0386  0.0530 -0.2708
17566W        W34040  16.977   2.850  11.762  0.1123 -0.0106  0.1041
17567W        W34041  14.301  10.347   2.033  0.3121  0.0632  0.0794
17568W        W34042  15.397   4.781   0.100  0.1092 -0.0447  0.1901
17569W        W34043  15.507   1.850   2.496 -0.0072  0.0346  0.0117
17570W        W34044   2.514   5.204  14.716 -0.0189  0.1448  0.0969
17571W        W34045  12.882  11.503   2.569 -0.1392  0.2576  0.0836
17572W        W34046   0.216  16.092   5.516  0.1347 -0.3635  0.2747
17573W        W34047   9.298  17.247  13.260  0.3736 -0.1464 -0.0651
17574W        W34048   1.475   7.140  14.918 -0.0283 -0.1700  0.1445
17575W        W34049   0.921  11.759  14.293  0.1862  0.1262  0.1276
17576W        W34050   4.265   7.359  14.990  0.2265  0.0373 -0.2205
17577W        W34051  15.932  12.462   2.174  0.3196 -0.0152  0.0142
17578W        W34052   1.057  17.505   1.060  0.0294  0.0051  0.0184
17579W        W34053   1.237   2.365   4.018  0.3205 -0.2778  0.3746
17580W        W34054   4.355   8.042  13.388 -0.1092  0.0009 -0.0766
17581W        W34055  14.948  17.917  13.902 -0.2164 -0.1017  0.3311
17582W        W34056  15.952   4.330   2.381  0.0352  0.0124  0.0836
17583W        W34057  15.750   3.289   4.543 -0.0187 -0.3701  0.0832
17584W        W34058  15.831   8.304  12.790 -0.2078  0.1966 -0.0189
17585W        W34059   1.619   7.709  14.117  0.1630  0.3910  0.0103
17586W        W34060   6.565  15.458  13.941 -0.0976 -0.3930 -0.0820
17587W        W34061   2.915  16.319  12.648 -0.3468  0.1238  0.4158
17588W        W34062   5.246   1.679   4.433 -0.0049 -0.1195 -0.1381
17589W        W34063   4.875  15.644  14.546  0.2524  0.1958  0.0776
17590W        W34064   6.032  13.043   4.762 -0.3509  0.0795  0.0905
17591W        W34065  16.520   5.945   2.005 -0.0450 -0.0938  0.2070
17592W        W34066   3.947  12.874   1.927 -0.2204  0.0912 -0.0655
17593W        W34067   9.804   2.169  11.874  0.4025  0.2731 -0.0888
17594W        W34068   4.867  13.997  12.054  0.0835 -0.0111  0.0904
17595W        W34069  15.136  13.932   4.214 -0.1504  0.1855 -0.0207
17596W        W34070  17.933   8.285  14.540 -0.3396 -0.0737 -0.0244
17597W        W34071   5.374  12.289  11.739  0.3052  0.2324 -0.1292
17598W        W34072  15.906  10.016   0.616  0.0993 -0.0223 -0.1140
17599W        W34073   7.222   8.579  13.743  0.2058 -0.2113  0.1384
17600W        W34074  14.649  15.541   1.553  0.1403  0.0905  0.1070
17601W        W34075   0.060  12.283   1.951 -0.1214  0.1399  0.2051
17602W        W34076   4.801   3.160  12.496  0.2038  0.0915  0.1328
17603W        W34077   2.545   6.344   4.528  0.0290  0.0182  0.1670
17604W        W34078   4.241   6.782  13.948  0.0388  0.1115 -0.1455
17605W        W34079  14.315  15.202  15.056  0.0789  0.1765 -0.2394
17606W        W34080   7.613   4.382  12.769  0.0208 -0.0291 -0.0097
17607W        W34081   5.522  11.441   3.837  0.0735 -0.1442 -0.1589
17608W        W34082   4.880   8.220  12.615  0.1413  0.0282  0.1734
17609W        W34083   9.570   7.136  16.129  0.2185 -0.0494  0.1181
17610W        W34084   7.144  14.295   1.623  0.1267 -0.2552 -0.0392
17611W        W34085  16.579   0.665   4.609  0.2039  0.0445  0.1503
17612W        W34086  17.184   7.941   2.816  0.2264  0.2049 -0.0624
17613W        W34087   2.817  16.758  13.520  0.1656  0.2526  0.0015
17614W        W34088   5.155  13.646   1.457  0.1812  0.2499  0.1821
17615W        W34089  14.797   1.532  15.878  0.0436  0.1993 -0.2039
17616W        W34090  16.673   8.899  13.590  0.2732  0.2191  0.1061
17617W        W34091  13.368  13.747   5.133  0.0448 -0.0481 -0.1197
17618W        W34092   7.483  13.774   0.858  0.5190 -0.0792  0.0347
17619W        W34093   4.732  11.824  15.380 -0.0743 -0.0455 -0.1849
17620W        W34094   4.565   6.864   2.361 -0.1023 -0.4411 -0.1349
17621W        W34095  10.362   6.276  12.255  0.1221 -0.0098 -0.3027
17622W        W34096  10.257   6.531   4.606 -0.0068 -0.2312 -0.0108
17623W        W34097   1.319  16.480   0.099  0.2943  0.0682 -0.1623
17624W        W34098   4.976   3.684  13.595  0.0638 -0.0246 -0.0930
17625W        W34099  10.767   6.714   3.941  0.2060  0.0358  0.3191
17626W        W34100   8.708  15.412  13.775 -0.2463  0.1918 -0.0647
17627W        W34101   1.774  10.590  10.118 -0.0756 -0.3635  0.1129
17628W        W34102  17.515   9.665  11.532 -0.2275 -0.1551 -0.0107
17629W        W34103   8.489   9.452   2.433  0.0236  0.0299  0.2155
17630W        W34104   0.683   7.012  13.802  0.1091 -0.2331  0.0780
17631W        W34105   8.947   5.146   3.283  0.2687 -0.3421  0.1726
17632W        W34106   5.078  10.386   3.424  0.1232 -0.1934  0.1044
17633W        W34107   2.799   4.125   2.926  0.1646  0.4530 -0.0416
17634W        W34108   9.011   5.335   4.831 -0.3527  0.0994 -0.1522
17635W        W34109   0.561  17.821   5.359 -0.1873  0.1097  0.2596
17636W        W34110  13.974   4.200  16.542  0.3716  0.2380 -0.0863
17637W        W34111   6.272  17.019   0.181 -0.2746  0.2564  0.1482
17638W        W34112   0.615   4.423  16.717 -0.1868  0.1240  0.0487
17639W        W34113  11.006   1.472  14.146  0.2045  0.1562  0.2558
17640W        W34114   4.837  15.476   0.862  0.0252  0.1733 -0.0869
17641W        W34115  14.750   2.207  15.853  0.2056  0.0095  0.0582
17642W        W34116   3.756   7.113   3.653  0.4593  0.1330 -0.2128
17643W        W34117   9.286  13.762   2.293  0.2469  0.2428  0.1551
17644W        W34118   3.732  16.479  11.585 -0.0339 -0.0905 -0.3037
17645W        W34119   7.360   7.588   5.959 -0.1270 -0.0844 -0.0425
17646W        W34120   5.657   5.502   6.047  0.0933  0.0913 -0.3805
17647W        W34121   3.712   3.524  15.563 -0.2547 -0.3104  0.1763
17648W        W34122   0.715   0.338   5.585  0.1929  0.3387 -0.1155
17649W        W34123   3.117   8.329  15.268  0.2444 -0.1684 -0.0803
17650W        W34124  11.727   2.200   3.271 -0.3163 -0.0225  0.1208
17651W        W34125  11.775   4.681   3.554  0.1068 -0.2006  0.0805
17652W        W34126   1.162   4.184   0.937  0.1316 -0.0387  0.0080
17653W        W34127  10.329  12.630  13.899  0.2525  0.0623 -0.2312
17654W        W34128  14.812   0.189   5.033  0.2189 -0.1357  0.1726
17655W        W34129  10.152   2.270  13.136  0.1154 -0.1263  0.0244
17656W        W34130  14.118   3.262   5.113  0.0948  0.1617 -0.0984
17657W        W34131   4.086   6.625  14.867  0.1904  0.1314 -0.0268
17658W        W34132  11.298  17.831   4.171 -0.3060  0.1989  0.1442
17659W        W34133  13.512  11.699  15.946 -0.0683  0.0408 -0.0322
17660W        W34134   0.756  10.957  15.412 -0.0202 -0.2652  0.0393
17661W        W34135   5.440  17.133  16.724  0.0151  0.1381 -0.0184
17662W        W34136   8.102  16.888  16.049 -0.3190 -0.1664  0.1849
17663W        W34137   8.986  11.299   1.577  0.0103 -0.0888 -0.3864
17664W        W34138   5.422   7.461  14.053 -0.0088 -0.1404  0.1624
17665W        W34139  13.723   5.262   3.085 -0.0951  0.2097 -0.2158
17666W        W34140  17.549  15.319  15.144 -0.0566 -0.0401 -0.1522
17667W        W34141  15.322  15.617   4.222  0.1425 -0.0382 -0.3427
17668W        W34142  17.525   7.414  14.174  0.1623 -0.0298 -0.1576
17669W        W34143   2.751  13.378   6.026 -0.0299 -0.1026 -0.0442
17670W        W34144   1.812  13.906   1.311  0.1828  0.0080  0.0291
17671W        W34145  16.195  14.015  16.735  0.1360  0.0362  0.0641
17672W        W34146  12.114   9.885   2.010  0.1188  0.1230 -0.2687
17673W        W34147   8.682   3.943  11.911  0.2755 -0.0831  0.0658
17674W        W34148  14.331   1.446  13.190 -0.0782  0.1378 -0.1065
17675W        W34149   6.617   9.153  12.439 -0.1791  0.0932  0.2928
17676W        W34150  17.777  16.067   0.289  0.0357  0.0456 -0.0449
17677W        W34151   5.878  12.099   1.014  0.1841  0.0093 -0.1045
17678W        W34152   0.563   1.973  12.608 -0.4516  0.0466 -0.3102
17679W        W34153  11.846   8.258   0.267 -0.1224 -0.1351 -0.1869
17680W        W34154   0.675   1.624  12.989 -0.0684  0.1988 -0.1593
17681W        W34155   3.794   3.471   1.549  0.0551  0.0540 -0.0459
17682W        W34156  13.118  17.970   5.524 -0.1407 -0.0263 -0.2611
17683W        W34157   8.947   2.099  11.342 -0.0906  0.3428 -0.1525
17684W        W34158   7.213   9.974   0.008  0.0809 -0.0993  0.0261
17685W        W34159  14.729  10.921   5.613 -0.0631  0.7304 -0.0231
17686W        W34160   0.415   8.434   0.606 -0.4229  0.2891 -0.1015
17687W        W34161   3.049   3.024   2.751 -0.2614  0.0753 -0.1117
17688W        W34162  15.089  14.472  11.716 -0.2993  0.1461  0.0653
17689W        W34163   0.971  16.641  14.701 -0.0730  0.2224 -0.1103
17690W        W34164   5.397  12.102   5.797 -0.1400 -0.2420 -0.0962
17691W        W34165   8.070   2.852  14.463 -0.0888 -0.0860  0.2953
17692W        W34166  15.811  16.197  13.107  0.1316 -0.0329  0.0550
17693W        W34167  10.574  11.378   2.159  0.0510 -0.1078  0.1291
17694W        W34168   1.008   1.238   1.401  0.2837  0.2072 -0.2953
17695W        W34169  11.491   7.862  15.027 -0.2557  0.2153  0.0754
17696W        W34170  14.229  12.579   5.991 -0.0271 -0.2031  0.1802
17697W        W34171  17.681  12.934   3.998 -0.2721 -0.3936 -0.0846
17698W        W34172   0.895  15.475   1.156 -0.2303 -0.1635  0.2906
17699W        W34173   6.957   8.481  14.208  0.2461  0.1591  0.0284
17700W        W34174  12.910   4.687  15.885  0.1966  0.2046  0.1359
17701W        W34175   7.590   8.120   3.306  0.0425  0.5301 -0.5122
17702W        W34176   4.973   3.828   1.729 -0.1896  0.0640 -0.0108
17703W        W34177   9.440  11.103   1.960 -0.0740 -0.0714  0.2664
17704W        W34178   1.312   1.266   2.097  0.0938 -0.1454 -0.0901
17705W        W34179   9.230   0.635  13.607  0.1734 -0.1527 -0.0146
17706W        W34180   4.456   1.285   1.482 -0.0603 -0.1080 -0.0035
17707W        W34181  14.943  13.400  14.443  0.1264 -0.3095 -0.0771
17708W        W34182   9.517  15.267  11.592  0.2938  0.1136 -0.1284
17709W        W34183  16.765   1.835   1.054 -0.0249 -0.2960 -0.0034
17710W        W34184  14.242  17.747   0.239 -0.1004 -0.1627  0.0549
17711W        W34185   1.829   2.991   1.025 -0.2455  0.0500 -0.0016
17712W        W34186   0.239   4.938  14.503 -0.1674  0.0703 -0.0318
17713W        W34187  17.629  10.670  14.325  0.2733  0.1082 -0.3277
17714W        W34188   2.494   3.555  14.280  0.1173  0.3247 -0.1956
17715W        W34189   7.059  12.747  12.279 -0.2326  0.1405 -0.1916
17716W        W34190   0.613   8.621  11.079  0.3209 -0.3401  0.1816
17717W        W34191   5.135   0.231   3.446  0.2740 -0.1406  0.4666
17718W        W34192  12.208  11.937   2.102 -0.0817 -0.0436 -0.2416
17719W        W34193   9.036  11.028  16.533 -0.1026  0.1233 -0.0085
17720W        W34194   4.235  10.190  14.040 -0.2376 -0.0664  0.2919
17721W        W34195   8.857   9.387   3.782  0.1220 -0.1599  0.3868
17722W        W34196  10.277   7.723  14.272  0.0513  0.0423  0.0507
17723W        W34197  14.082  16.528  16.441 -0.4547  0.0075 -0.0123
17724W        W34198  10.677   3.461  14.192 -0.0430 -0.0974  0.2066
17725W        W34199   0.060  17.677   0.518  0.1973  0.2409 -0.1867
17726W        W34200  15.323   2.162   2.090 -0.1297  0.1372  0.3005
17727W        W34201   1.395   9.836  16.443 -0.1808 -0.1142  0.5808
17728W        W34202  16.396   2.500   2.708  0.0711 -0.0037  0.0629
17729W        W34203  12.644   4.241   1.635  0.0281  0.0157 -0.0862
17730W        W34204   5.941   1.097  16.139 -0.0951 -0.0436  0.4208
17731W        W34205  11.347  13.919  14.144  0.0150  0.1776 -0.1429
17732W        W34206  14.500   7.795   4.544  0.1351 -0.0988 -0.1620
17733W        W34207   5.053  11.209   0.895 -0.2292  0.1012  0.1795
17734W        W34208   3.273   0.338   0.707  0.0484 -0.0604  0.1277
17735W        W34209   2.162  12.872  13.035 -0.0807 -0.2497  0.2048
17736W        W34210  15.220  12.814   3.490  0.2038 -0.0161  0.0410
17737W        W34211   7.642  14.177  15.381 -0.1382 -0.1426  0.3402
17738W        W34212   2.631   1.380  13.120  0.4064 -0.1155  0.0891
17739W        W34213  17.638   2.973  16.549  0.1227  0.1426  0.1626
17740W        W34214  11.287  16.454  15.650 -0.1555  0.1833 -0.0965
17741W        W34215  13.462  12.987   3.813  0.3274  0.0903  0.2323
17742W        W34216  10.919   8.847   1.522  0.0901 -0.1821 -0.3036
17743W        W34217  11.648  16.100   1.845  0.0824  0.0065 -0.0740
17744W        W34218   4.718   7.419  11.737 -0.0519  0.0916  0.3075
17745W        W34219  10.055   9.748  14.039  0.5160 -0.0286  0.0376
17746W        W34220   8.625   0.407  14.418 -0.0876 -0.0197  0.0397
17747W        W34221   4.214  14.024  13.399 -0.1402  0.2062 -0.0328
17748W        W34222  11.343   9.799  14.363  0.0622 -0.0233 -0.2079
17749W        W34223  11.407   4.815   3.303  0.2812 -0.4780  0.1096
17750W        W34224  16.328   1.422   2.937 -0.0982  0.2296  0.0969
17751W        W34225   2.823   2.271  12.745 -0.1408  0.0962 -0.3608
17752W        W34226   6.587   0.865  12.756  0.0993  0.2759  0.0462
17753W        W34227  11.996  16.541   3.781  0.0039 -0.3692  0.1123
17754W        W34228   5.171  13.147  11.172  0.0145  0.0016  0.0251
17755W        W34229  17.311   5.368   4.915  0.3356  0.0522 -0.3818
17756W        W34230  10.286   6.543   2.110 -0.3511  0.0628  0.0108
17757W        W34231  16.199   9.524   6.422 -0.1790  0.0071 -0.1339
17758W        W34232   5.312  13.558  10.978  0.0364 -0.4653  0.0587
17759W        W34233  10.166   7.674   3.266 -0.1636  0.0467  0.0678
17760W        W34234   7.056  10.444  14.436  0.0220  0.2582 -0.1698
17761W        W34235  14.857  17.719   4.912 -0.0224 -0.2990 -0.3028
17762W        W34236  17.165  15.039   3.149 -0.0568  0.2602 -0.3424
17763W        W34237   1.471   7.063  15.777 -0.0639 -0.0504  0.1924
17764W        W34238  15.297   2.842  12.529  0.1251  0.1127  0.3182
17765W        W34239   3.022   4.987  15.079 -0.1588  0.0900 -0.2936
17766W        W34240  10.603  17.635   3.866 -0.1424 -0.1896 -0.1428
17767W        W34241   8.542  11.598  16.526 -0.0203 -0.2286  0.0172
17768W        W34242  13.151  12.545   4.590  0.0071  0.2953 -0.0327
17769W        W34243   4.604  15.366   1.886  0.3100  0.1593  0.1452
17770W        W34244  17.687  16.936  16.701  0.1809 -0.2837 -0.0711
17771W        W34245   0.943  11.189   3.549  0.1551  0.0256 -0.2834
17772W        W34246   6.647  13.599  15.463 -0.6083 -0.3161 -0.0544
17773W        W34247   7.950   2.673  12.199  0.0347 -0.0550  0.1098
17774W        W34248   2.165  16.334   6.298  0.0344  0.0117  0.0840
17775W        W34249   9.771   2.357  12.836 -0.2084  0.2848 -0.0845
17776W        W34250   6.810   4.954   5.208  0.0280  0.2033 -0.0785
17777W        W34251   3.376  11.295   5.813  0.0764 -0.1834 -0.3419
17778W        W34252  10.035   3.985   0.210  0.0622 -0.1258  0.0399
17779W        W34253  11.497   4.318   4.441  0.1060  0.0904 -0.1708
17780W        W34254   5.052   1.126  13.134  0.2545 -0.0593 -0.0661
17781W        W34255  10.254   6.633  15.749 -0.0911 -0.1550 -0.0954
17782W        W34256  13.670   2.806  16.026 -0.0629 -0.1990  0.0982
17783W        W34257   8.903  13.534  14.244 -0.2276  0.0954 -0.1746
17784W        W34258  17.002  14.702  14.776 -0.0905 -0.1753 -0.0071
17785W        W34259  12.763   2.873   2.868 -0.0472  0.1729 -0.1737
17786W        W34260  12.237   8.633   1.503  0.2213 -0.0209  0.1445
17787W        W34261  10.570  17.235   4.233 -0.2176 -0.0240  0.3783
17788W        W34262  17.475   0.520  13.386  0.3051  0.0206  0.0302
17789W        W34263   9.488   7.230  15.212 -0.0093  0.0455  0.4297
17790W        W34264   2.766   1.832  15.639  0.0727 -0.0971 -0.1889
17791W        W34265  11.661  12.431   3.048 -0.0503  0.0803 -0.2586
17792W        W34266   7.304   8.660  15.500  0.1677  0.0775 -0.5692
17793W        W34267   3.032  11.640  14.431 -0.3127 -0.2005  0.0955
17794W        W34268  16.936   3.526  13.133  0.3170 -0.1166 -0.0297
17795W        W34269  12.861  17.989  15.727 -0.1477 -0.0717  0.1218
17796W        W34270   8.600   8.289  12.132 -0.3133  0.2719  0.1182
17797W        W34271   0.574   4.684   3.721  0.1021  0.1157 -0.0102
17798W        W34272   3.632  14.244   5.439  0.1699 -0.0405  0.1871
17799W        W34273  12.579   5.615   2.148  0.0150  0.2762  0.1226
17800W        W34274   4.557   7.470  14.597 -0.1323  0.3151  0.0278
17801W        W34275   6.817   5.875   3.774  0.0742 -0.2207 -0.2608
17802W        W34276   0.253   2.016   3.248  0.2299 -0.0316  0.1372
17803W        W34277  11.007  11.457   5.310  0.0827  0.1488 -0.0178
17804W        W34278  16.197   2.795  16.554 -0.0442 -0.1177 -0.1686
17805W        W34279   5.389  13.177   4.003  0.1970  0.1298 -0.0030
17806W        W34280   3.411  10.860  15.706 -0.2256  0.1931  0.0676
17807W        W34281   9.177  13.547   1.795 -0.0348  0.0515 -0.0189
17808W        W34282  13.840   4.767   4.031  0.0356  0.0465  0.1620
17809W        W34283  16.324  14.856  12.162  0.1051  0.2883 -0.2343
17810W        W34284   7.824  15.983   1.279 -0.0120 -0.1043  0.1627
17811W        W34285   1.505   7.152   2.749  0.2089 -0.0066 -0.0790
17812W        W34286  16.082   2.338  16.412  0.0886  0.2478 -0.0824
17813W        W34287   2.169   1.702   3.690  0.2102  0.1725 -0.0518
17814W        W34288   4.950  12.469  11.859 -0.0649  0.0541  0.0143
17815W        W34289   4.925  17.872   4.992 -0.0213  0.0611 -0.0883
17816W        W34290   1.327  17.632   1.460 -0.1499 -0.1720  0.0707
17817W        W34291  12.383  12.324  12.325 -0.1471 -0.0540  0.0336
17818W        W34292   8.533  14.562  15.794  0.1167 -0.0162 -0.2849
17819W        W34293   5.798  12.660  15.558 -0.1609  0.2743  0.1257
17820W        W34294   1.046   8.480   0.496 -0.1109  0.0612 -0.3223
17821W        W34295   2.570   0.381   1.037  0.1860  0.2193 -0.2330
17822W        W34296  17.992  12.116   3.829 -0.0368  0.1438  0.3920
17823W        W34297  13.823   3.916   0.442  0.1662 -0.1231  0.2343
17824W        W34298   4.392  16.288  15.145  0.1114 -0.3700 -0.0801
17825W        W34299   8.007  17.376   4.082  0.0703 -0.1964  0.0956
17826W        W34300   7.101   9.333   3.144  0.3078  0.0320 -0.0879
17827W        W34301  10.300   8.545   4.878  0.1948  0.0300  0.3425
17828W        W34302   6.239   9.431  15.848 -0.1711  0.0142 -0.0130
17829W        W34303   7.136  11.606  15.742  0.1127 -0.0674  0.2046
17830W        W34304  11.128   5.473  13.062  0.2207  0.1774 -0.2330
17831W        W34305   7.044  13.707   2.959 -0.2586  0.1820 -0.0254
17832W        W34306   0.632   5.776  16.552 -0.0717  0.0867 -0.0727
17833W        W34307  10.337   4.601  16.196  0.0531  0.4325  0.2212
17834W        W34308   5.974   8.359  11.308 -0.0059 -0.0161 -0.0180
17835W        W34309   8.224   9.993   4.893 -0.0458 -0.1654 -0.1424
17836W        W34310  11.362   2.895   2.283  0.0252 -0.2933 -0.3315
17837W        W34311   1.006  14.241  11.618  0.0492 -0.0851  0.0830
17838W        W34312   7.510  11.697   4.475 -0.1574  0.0167  0.1206
17839W        W34313  11.137   7.701   0.150  0.0294  0.1969 -0.2601
17840W        W34314  11.004   7.819   0.652  0.3116  0.0745 -0.4450
17841W        W34315   8.369   1.209  12.524  0.3255 -0.1962 -0.1204
17842W        W34316  13.770  15.074   4.996 -0.1744 -0.1155 -0.0090
17843W        W34317   4.223   5.180   2.346 -0.0146 -0.0853 -0.0962
17844W        W34318   3.440   0.605   1.727 -0.0519 -0.0079 -0.1016
17845W        W34319   4.324  11.093  11.327  0.1068  0.0129  0.0696
17846W        W34320  14.569   2.346   2.287  0.0485  0.3185 -0.0319
17847W        W34321   2.559   0.052   0.085 -0.3022 -0.0754 -0.0205
17848W        W34322  15.573   4.409  16.174  0.0011 -0.2759 -0.1762
17849W        W34323   9.294  13.858  12.230 -0.3615  0.1174  0.1134
17850W        W34324  15.478   1.394  13.952  0.2552  0.0270 -0.1293
17851W        W34325   6.150  10.583  13.645  0.0571  0.0943  0.1374
17852W        W34326  13.161  14.368  12.962 -0.0929 -0.1585 -0.0627
17853W        W34327  10.433   2.313   2.325  0.1819  0.0942  0.2737
17854W        W34328  14.152  14.754  14.778 -0.0514 -0.0393  0.0060
17855W        W34329  16.552   0.867   5.077 -0.0471 -0.0008 -0.0031
17856W        W34330  17.737   9.001   2.688  0.3005  0.2284 -0.1714
17857W        W34331   8.396   5.144   2.982 -0.0656 -0.3795  0.2032
17858W        W34332  16.425   3.631  11.876 -0.2600 -0.2319 -0.0367
17859W        W34333   4.500   4.195  15.364 -0.0348  0.3479 -0.2310
17860W        W34334   0.201   5.524   3.447 -0.2443  0.2430 -0.1200
17861W        W34335  17.964   9.506   5.546 -0.0911 -0.0343 -0.1831
17862W        W34336  12.256   1.531  14.713 -0.4805 -0.0480  0.1831
17863W        W34337   3.561  13.205  14.808  0.0655 -0.1704  0.1407
17864W        W34338  14.899   0.765   2.122  0.0536  0.0100  0.0476
17865W        W34339   2.204  17.110  15.037 -0.0823  0.0080  0.1488
17866W        W34340  17.765  15.681  11.478  0.3484 -0.2909 -0.1131
17867W        W34341  10.426  15.151  15.418 -0.0129 -0.0932  0.0665
17868W        W34342   3.838   0.216   0.866 -0.0959 -0.0112  0.3892
17869W        W34343  11.533   9.741  12.502 -0.1181  0.0400 -0.1645
17870W        W34344  10.327  10.952  14.607  0.1339  0.0046 -0.1526
17871W        W34345  17.851  14.789  11.810  0.0392  0.1068 -0.2362
17872W        W34346   2.047  15.159  13.270 -0.1469  0.0698  0.1796
17873W        W34347   0.878   4.828  13.588  0.3937  0.2787  0.1315
17874W        W34348  11.111  17.977   5.231  0.2448 -0.0892 -0.0116
17875W        W34349  16.687  15.011  11.021  0.0860  0.0627  0.1412
17876W        W34350   3.635   1.815   0.676 -0.2923 -0.0841  0.1099
17877W        W34351   5.267  15.339   3.563 -0.1924 -0.0274  0.2372
17878W        W34352   9.822   6.577  15.058 -0.0297 -0.2461  0.2283
17879W        W34353  12.796   2.290  13.075 -0.1107 -0.1488  0.0296
17880W        W34354   7.970   0.273  14.044  0.2002 -0.2834 -0.0578
17881W        W34355  17.836   1.655   3.460  0.3927 -0.3547 -0.0510
17882W        W34356   7.287  17.643   5.432  0.1009  0.2104  0.0245
17883W        W34357   9.454  12.003   4.152 -0.0196  0.2303 -0.0251
17884W        W34358   0.231   9.442   5.127 -0.0810 -0.3508  0.3649
17885W        W34359   9.283   7.824   4.345 -0.3685 -0.2174 -0.2846
17886W        W34360  17.048   6.676   4.098 -0.0244 -0.3392  0.0104
17887W        W34361  12.924   5.596   5.241  0.0355 -0.1176 -0.1095
17888W        W34362   4.241   6.230  11.514 -0.1376  0.0648  0.3061
17889W        W34363   9.772  12.139   3.771  0.0501 -0.1497 -0.2903
17890W        W34364   4.173  11.061  16.407  0.1428  0.0043  0.0317
17891W        W34365  17.763  15.417   2.677 -0.1491 -0.1148  0.1116
17892W        W34366  14.738  13.632  14.062  0.2907  0.2084  0.1633
17893W        W34367  15.348  10.373  12.511 -0.0111  0.0650  0.1266
17894W        W34368   4.957   0.721   3.628  0.0364 -0.2917  0.1707
17895W        W34369   6.498   7.770   3.678 -0.0980 -0.3826  0.0470
17896W        W34370   7.282   7.169  13.126 -0.1981  0.1245 -0.0823
17897W        W34371  12.641   7.393   5.553 -0.0050 -0.2743  0.1134
17898W        W34372   5.633  13.189  15.749  0.2652 -0.1132  0.2317
17899W        W34373  12.731  11.045  12.348 -0.1035 -0.0090  0.0898
17900W        W34374  14.011   3.936   3.354  0.2678  0.0450 -0.3348
17901W        W34375  17.612  11.800   1.509 -0.0239  0.1749 -0.1637
17902W        W34376   6.785  12.769   5.065  0.1090  0.2581 -0.1440
17903W        W34377   3.262   2.902  14.460 -0.2655 -0.4489  0.2555
17904W        W34378  12.753  17.562   2.861  0.3499  0.1792  0.2937
17905W        W34379   3.901   0.510   4.578  0.0219 -0.1491 -0.1922
17906W        W34380  13.788  13.136  13.243 -0.3858 -0.0150  0.0019
17907W        W34381  15.283  17.962  13.454 -0.1777  0.1550 -0.0896
17908W        W34382   3.085  12.198  14.614  0.1612  0.0277  0.1852
17909W        W34383   6.963   0.120  14.951 -0.0869 -0.0623 -0.1354
17910W        W34384   6.877  16.848   5.995  0.1434  0.0486  0.1764
17911W        W34385   3.192  16.346  14.372 -0.1152  0.0258  0.2570
17912W        W34386   3.406   1.160  15.090  0.3258 -0.1210 -0.0010
17913W        W34387   2.456  11.011  15.799  0.1122 -0.1288 -0.0807
17914W        W34388  15.757   9.628   0.384  0.0096 -0.4228  0.1474
17915W        W34389   8.580   5.767  13.756 -0.1105 -0.2104  0.3656
17916W        W34390   1.906   5.695  11.627  0.1549  0.0223  0.2328
17917W        W34391   0.297   0.533  16.298 -0.0329 -0.1039 -0.0685
17918W        W34392   6.922  16.111   0.446  0.2610 -0.1916 -0.0276
17919W        W34393  12.994  12.488   5.660 -0.2228  0.1523 -0.1577
17920W        W34394   4.587   1.571   5.657 -0.1136  0.1432 -0.1711
17921W        W34395  13.113   0.778   3.270  0.3744 -0.1202  0.0401
17922W        W34396  13.420   9.728  13.091 -0.0457 -0.2150 -0.0427
17923W        W34397   3.621  12.815   3.849  0.2495 -0.4027 -0.4456
17924W        W34398  16.657   5.233   3.009 -0.2478  0.1476  0.3070
17925W        W34399  10.717   2.318   0.410 -0.1036  0.1188  0.0941
17926W        W34400   1.468   9.430   3.644  0.0411 -0.0064  0.3045
17927W        W34401  12.531  11.055   0.563  0.2964 -0.1266  0.1563
17928W        W34402  10.828  14.832  13.407  0.1670 -0.0384  0.4211
17929W        W34403  12.406  10.661   6.046 -0.1238  0.1981  0.2561
17930W        W34404   6.048   9.234  13.774 -0.1289 -0.0925 -0.1330
17931W        W34405  17.301   8.493  12.434  0.2162  0.0191 -0.1555
17932W        W34406  12.866   1.460  13.134  0.3033 -0.2094 -0.0419
17933W        W34407   5.026   2.079   0.737 -0.1605  0.2178 -0.0320
17934W        W34408   3.359  10.914   3.823 -0.0457 -0.0347 -0.0470
17935W        W34409   9.218   5.589  10.602  0.3333 -0.2088 -0.2398
17936W        W34410  13.818   3.097   1.243  0.1693 -0.0275  0.1614
17937W        W34411   1.557  11.435  15.470 -0.1217  0.0681 -0.1576
17938W        W34412   1.991  13.434   4.442 -0.0555 -0.2360 -0.1882
17939W        W34413   3.116   8.068  12.742 -0.2138 -0.0316 -0.0124
17940W        W34414   0.487  15.854  10.522 -0.0259 -0.0560  0.2798
17941W        W34415   0.037  15.946  14.346  0.0201  0.0711  0.0672
17942W        W34416   7.711   2.593   5.323  0.1615 -0.1547 -0.0326
17943W        W34417   2.159  11.626   4.895 -0.0938  0.1530 -0.1443
17944W        W34418  16.277   0.247   2.577  0.1036  0.0063  0.2123
17945W        W34419   5.701   6.993   2.211 -0.0475 -0.0937 -0.2509
17946W        W34420  10.760   0.252  11.953 -0.0302  0.1032 -0.2681
17947W        W34421  17.439   5.010  13.944 -0.2340 -0.0753 -0.1210
17948W        W34422   3.380   8.817  14.621 -0.2139 -0.0057 -0.2231
17949W        W34423  17.194   8.444   1.139 -0.3395  0.3087 -0.0913
17950W        W34424  17.645   5.113   0.017  0.1497 -0.1845 -0.0418
17951W        W34425   6.942  16.051   4.317  0.1670  0.0943 -0.0143
17952W        W34426  14.092  13.588   5.529  0.0322  0.0399  0.1793
17953W        W34427   3.341  17.694   2.534 -0.1271  0.0128 -0.4058
17954W        W34428   6.155  11.371   5.271 -0.0691 -0.0084 -0.0602
17955W        W34429   7.848   6.742  13.617  0.0440 -0.0593 -0.0937
17956W        W34430   9.283  15.397  14.724 -0.2112  0.1395 -0.3054
17957W        W34431   7.745   9.745  14.317 -0.2219  0.0077  0.1107
17958W        W34432   9.375  14.186   3.289 -0.0391 -0.3406 -0.0476
17959W        W34433   5.309  14.847   3.529 -0.0073  0.1334  0.0237
17960W        W34434  16.560  16.846   4.133 -0.0409 -0.3554 -0.0992
17961W        W34435   9.517  16.684   4.110  0.0260  0.0588 -0.0565
17962W        W34436   4.551  17.754  14.894  0.2023 -0.0454 -0.0662
17963W        W34437  15.286  14.602  12.420 -0.1946 -0.0300 -0.0265
17964W        W34438  12.244  13.086   1.412 -0.0840 -0.0726 -0.0560
17965W        W34439   8.817   0.344  13.559  0.1165 -0.1679 -0.0759
17966W        W34440  15.028   3.967   4.880  0.0514 -0.0146 -0.0051
17967W        W34441  10.002   6.169  11.984 -0.3123  0.0796 -0.0180
17968W        W34442  14.185  15.494  15.918  0.2227 -0.0848  0.1529
17969W        W34443  15.292  15.702   3.225  0.1835  0.1238  0.3161
17970W        W34444  14.581   2.705  15.818 -0.2815  0.1099  0.1608
17971W        W34445   5.810   9.685   0.328  0.3712  0.1213  0.3279
17972W        W34446  16.398  11.374  11.451 -0.0457 -0.0395  0.0591
17973W        W34447   8.815  14.014   2.485 -0.1563  0.1079 -0.1379
17974W        W34448   3.096   9.053  13.546  0.1100 -0.0648  0.0882
17975W        W34449  12.482  11.473  12.455  0.0787 -0.1892 -0.0157
17976W        W34450  13.031   7.224  14.642  0.0308 -0.0128 -0.1377
17977W        W34451  11.168   6.378   2.650 -0.0516 -0.1470  0.2627
17978W        W34452  12.720   1.731  14.752  0.1084 -0.1326  0.4787
17979W        W34453  12.308   8.252  15.389 -0.1166 -0.1032  0.1484
17980W        W34454   6.908   5.814  13.708 -0.0682 -0.1950 -0.1273
17981W        W34455  15.535   3.083  13.057 -0.3094  0.0323 -0.1820
17982W        W34456   8.090   6.791   0.940 -0.1539  0.0759 -0.0650
17983W        W34457   1.073   4.727  15.505  0.0549  0.0061  0.3446
17984W        W34458  17.538  13.212   0.556 -0.2970  0.1545 -0.1903
17985W        W34459  15.794  15.122  12.117  0.0560  0.1804 -0.3205
17986W        W34460  17.498   1.173  12.995  0.1244 -0.0718  0.1053
17987W        W34461  15.092   6.410   3.571 -0.2303  0.2661  0.0303
17988W        W34462   5.696   4.438  14.061 -0.2116  0.0450  0.0052
17989W        W34463  11.327   6.089   2.261 -0.1997 -0.0861  0.1042
17990W        W34464  13.551   4.684   0.752  0.0043  0.2030  0.3208
17991W        W34465   6.859  10.500  15.678 -0.1274 -0.1433  0.1708
17992W        W34466   5.155   1.536   0.885 -0.0580  0.2071 -0.0934
17993W        W34467   0.400  16.995   4.522 -0.2054  0.0758  0.1032
17994W        W34468  11.085  11.495   3.359 -0.0226  0.1900  0.1924
17995W        W34469   0.868   7.540  12.672  0.1317 -0.1803 -0.0949
17996W        W34470  17.614   2.219   2.359 -0.2549  0.2030 -0.0003
17997W        W34471  11.158   6.784  11.534  0.0521  0.0176  0.3287
17998W        W34472  10.808   7.113  13.087 -0.1818  0.0801  0.1978
17999W        W34473  14.049  10.454   5.025  0.1934 -0.0220  0.1068
18000W        W34474   7.448   6.999  12.341  0.1625  0.1084 -0.0929
18001W        W34475  11.698   0.027  16.447 -0.0097  0.0519  0.0523
18002W        W34476  15.487   0.851   5.032  0.0481  0.0340  0.0733
18003W        W34477   5.472   4.054  11.384 -0.3469  0.0478 -0.0772
18004W        W34478   0.998   8.249   1.420  0.1053 -0.0180 -0.1439
18005W        W34479   8.098  12.880   3.532  0.1791  0.1429  0.2332
18006W        W34480   5.098  13.275   3.639  0.0185 -0.0308  0.0466
18007W        W34481   0.194  10.233  15.130  0.3510 -0.0853  0.2172
18008W        W34482   9.594   1.092   1.962  0.2416 -0.1524 -0.0845
18009W        W34483  13.287  17.730  16.361  0.1107 -0.1719 -0.2980
18010W        W34484  15.805  11.026   2.726  0.1141  0.0726  0.1247
18011W        W34485  16.027   4.276   1.621  0.0613  0.0832 -0.1543
18012W        W34486   7.827  12.427   1.331  0.2025  0.1584 -0.1086
18013W        W34487   8.864  15.847   5.276  0.1566 -0.1105  0.2564
18014W        W34488   3.581   8.881  15.862 -0.0155 -0.0559  0.1315
18015W        W34489   5.581   2.823   4.594 -0.2774  0.1684 -0.1111
18016W        W34490  15.721  12.291  12.840 -0.0326 -0.1295 -0.0138
18017W        W34491  14.695  16.739  15.612  0.3298  0.4979 -0.0421
18018W        W34492   0.979   8.646  16.732 -0.1192 -0.0951 -0.0096
18019W        W34493  16.275   2.308   3.163  0.0884  0.1439  0.3375
18020W        W34494  10.079  16.926   2.308 -0.1583  0.1654  0.0122
18021W        W34495  15.018   1.828  12.489  0.0536 -0.0016  0.0323
18022W        W34496   9.541  14.780   4.990 -0.1038 -0.0841 -0.1434
18023W        W34497  17.769   3.468   5.942 -0.1616  0.1542  0.0633
18024W        W34498   3.526   8.060  16.712  0.2054 -0.0622  0.3855
18025W        W34499  13.385  13.895  14.751 -0.0111 -0.0074  0.1235
18026W        W34500   3.616   0.926   3.186 -0.0909  0.0451 -0.0232
18027W        W34501   0.023   5.667   5.451  0.1020  0.3177 -0.1986
18028W        W34502   9.103  12.981  13.060 -0.2851 -0.0914 -0.1038
18029W        W34503   4.620  12.672  16.364  0.0131 -0.0886 -0.0672
18030W        W34504   6.029  10.109   2.464  0.2397 -0.1897 -0.1100
18031W        W34505   1.935   7.766  12.001 -0.2057  0.4091 -0.1875
18032W        W34506   1.839  17.113   2.084  0.0508  0.1761  0.2562
18033W        W34507   9.749   6.249  14.592  0.0440  0.0672 -0.0616
18034W        W34508  10.242   1.703  14.378 -0.3984 -0.0983  0.2065
18035W        W34509   4.137   3.580  16.381 -0.2123 -0.1159  0.0011
18036W        W34510  14.260  10.992   3.237 -0.3513  0.0596 -0.1344
18037W        W34511  15.458  12.397   3.642  0.0638  0.0692 -0.3246
18038W        W34512  11.781   2.845  12.135 -0.1255 -0.1681 -0.0132
18039W        W34513  11.328  11.870   0.050  0.2319 -0.1308  0.0151
18040W        W34514   8.061   1.790  12.335 -0.0679 -0.1120 -0.4099
18041W        W34515  14.064  15.230   2.777 -0.0203  0.0412  0.2221
18042W        W34516   7.077   1.261   1.940 -0.1381 -0.0181 -0.1009
18043W        W34517  15.823  16.177  15.139 -0.3138  0.0123 -0.1665
18044W        W34518   8.377  12.643   3.193 -0.0519  0.0450 -0.1843
18045W        W34519   4.966   5.277   0.428  0.2905  0.0836  0.4150
18046W        W34520   5.454  12.939  13.576  0.2767 -0.0633 -0.1127
18047W        W34521   7.531  13.838  15.712  0.2082  0.0344 -0.0574
18048W        W34522   4.267   5.912   0.062  0.0967  0.1821 -0.0465
18049W        W34523  15.269   8.469  14.142  0.3329 -0.3315 -0.1939
18050W        W34524   5.765   8.898   3.252  0.1984 -0.0652  0.2756
18051W        W34525   6.683  17.919   2.845  0.2208  0.0239 -0.0655
18052W        W34526   8.611  17.113  11.776 -0.2520 -0.3512 -0.1665
18053W        W34527   2.880   3.549  13.563 -0.1184 -0.1157  0.1254
18054W        W34528   2.676  16.184  15.250  0.1748  0.5476  0.2591
18055W        W34529  16.588  11.723   5.273 -0.1287 -0.1115 -0.0934
18056W        W34530  14.614  17.970  16.162  0.2891 -0.0600 -0.0866
18057W        W34531   5.822   5.448   0.968  0.0365  0.0887 -0.0621
18058W        W34532   6.890  12.392  11.826  0.1002  0.1806  0.1719
18059W        W34533   2.018   1.629  16.422  0.0488 -0.2548  0.1351
18060W        W34534   7.074   9.896   3.951 -0.3684  0.3379  0.1044
18061W        W34535  17.360   6.759   1.408 -0.0114 -0.0449 -0.0382
18062W        W34536  15.798   5.371   1.553  0.0111  0.0434  0.0854
18063W        W34537   7.647   7.973   2.800  0.1460  0.0754  0.0663
18064W        W34538   2.321   3.544   0.537  0.0933 -0.1415 -0.0307
18065W        W34539  14.556   2.630  14.965 -0.4088  0.0009 -0.1612
18066W        W34540   6.851   1.472  14.798  0.0649 -0.0592  0.0565
18067W        W34541  15.068   2.234   1.370 -0.0602  0.2183  0.0344
18068W        W34542  13.960  15.965   5.981 -0.0227  0.1397 -0.1327
18069W        W34543   3.090  10.798   3.423 -0.1629 -0.3571  0.1640
18070W        W34544   7.605   4.966   5.213  0.2487 -0.2039  0.1234
18071W        W34545   8.472   2.774   3.385 -0.0848 -0.1177  0.0469
18072W        W34546  15.327   9.854  10.833 -0.1817 -0.3794 -0.0407
18073W        W34547   8.279   8.492   1.318  0.0745 -0.4099 -0.1832
18074W        W34548   7.798  13.093   2.132  0.2563 -0.1115 -0.0831
18075W        W34549  11.929  14.386  14.064  0.1133  0.1864  0.1998
18076W        W34550   2.725   2.025  12.315 -0.0371 -0.0993  0.1112
18077W        W34551   5.271  14.235  13.346  0.1792  0.1681  0.1529
18078W        W34552  10.239   2.208   0.135  0.0692  0.0916 -0.0760
18079W        W34553   2.163   5.576   1.090 -0.0514 -0.0754  0.0750
18080W        W34554   7.615   8.050  15.003  0.2977 -0.1978 -0.3661
18081W        W34555   0.182  13.783   3.879  0.0211 -0.0271  0.1167
18082W        W34556   2.057   3.693   5.004  0.2129  0.0959 -0.1070
18083W        W34557   5.637  17.997  11.973  0.0327 -0.3432 -0.2670
18084W        W34558  17.979   2.254  11.314  0.0432 -0.0325 -0.0631
18085W        W34559  16.804   3.903  12.869 -0.1255 -0.0176  0.1049
18086W        W34560   5.123   5.516   1.671 -0.0889 -0.0106  0.0216
18087W        W34561   9.068  10.982  12.661  0.2798  0.1819  0.1544
18088W        W34562   0.211   8.015  16.541 -0.3971 -0.2780  0.2148
18089W        W34563  12.805  16.162   5.036  0.1053  0.0474  0.1964
18090W        W34564  10.583  10.775  12.074  0.1634  0.0271 -0.0222
18091W        W34565   9.379   6.388   0.469 -0.2256  0.0691  0.1117
18092W        W34566  13.016  13.466  15.409 -0.3468 -0.0955 -0.2232
18093W        W34567   9.901  10.295   0.632  0.1580 -0.0324 -0.0053
18094W        W34568   4.718  16.659   4.327 -0.3588 -0.1375  0.0311
18095W        W34569   5.261   3.010   0.161  0.1441  0.0618 -0.2103
18096W        W34570  13.767   6.711   5.191  0.1211 -0.3129 -0.1314
18097W        W34571   3.173   5.070  12.733  0.3494  0.1612 -0.0020
18098W        W34572   5.093  11.903  16.041  0.1392 -0.1155 -0.3215
18099W        W34573   7.330   2.496  13.193 -0.2643 -0.1796  0.2268
18100W        W34574   5.715  16.578  16.629 -0.0627  0.1886 -0.2777
18101W        W34575  12.217   3.109  13.460 -0.0247  0.0682 -0.0134
18102W        W34576  16.028   7.034  12.454 -0.0128  0.2488  0.0400
18103W        W34577  17.926   5.220   4.360 -0.0670  0.1574 -0.0147
18104W        W34578   9.258   5.260   1.890 -0.2568  0.0741 -0.0440
18105W        W34579   9.054   1.426   5.144  0.0065 -0.1523 -0.3414
18106W        W34580  15.353   6.374  13.923 -0.1149 -0.2795 -0.1875
18107W        W34581  16.243  17.638  15.266 -0.1253  0.0238 -0.1262
18108W        W34582   1.111  16.707   1.093  0.0966  0.1080 -0.1759
18109W        W34583   5.438   6.838  15.976 -0.0990  0.1048 -0.1231
18110W        W34584   2.415  17.853   4.958 -0.3648 -0.0814 -0.1535
18111W        W34585  11.499  13.780   3.533 -0.2247  0.0726 -0.2433
18112W        W34586   8.534  10.825   2.046  0.2340  0.1522 -0.1933
18113W        W34587  17.983  10.500   2.755  0.0018 -0.1494  0.0969
18114W        W34588  15.064   0.946   4.033 -0.4508 -0.1828 -0.0810
18115W        W34589   2.492   2.215  15.433 -0.1719 -0.2636 -0.3689
18116W        W34590   4.694  14.576  15.778  0.1102  0.1684  0.1046
18117W        W34591   6.955  15.486   4.948 -0.1886 -0.1579  0.1153
18118W        W34592   5.203  10.084   1.626 -0.0188  0.0405  0.0329
18119W        W34593   2.465   3.416   5.094  0.4374  0.1534 -0.1909
18120W        W34594   4.223  10.208   3.290 -0.2321  0.0636  0.1948
18121W        W34595   7.985   1.267   2.853  0.1796  0.0731  0.1054
18122W        W34596  10.369  14.482   3.686  0.1479  0.0508 -0.0089
18123W        W34597   3.110   5.551   1.019  0.2893  0.2805 -0.1175
18124W        W34598   5.505  14.878   4.080 -0.0251  0.0925  0.0822
18125W        W34599  12.505   5.875   3.053 -0.0133  0.1205 -0.0599
18126W        W34600   1.925   1.214  16.111  0.1605  0.0053 -0.0777
18127W        W34601   1.290  17.159   1.274  0.0189  0.0294 -0.0625
18128W        W34602  13.313   5.597  15.821  0.0464  0.1422 -0.3024
18129W        W34603  16.639  15.855  15.110  0.2398  0.2956  0.2599
18130W        W34604   8.062   3.388   5.045 -0.3648 -0.0030 -0.2070
18131W        W34605   7.590   1.273   2.160 -0.2146 -0.1936 -0.1807
18132W        W34606   4.172  14.764   2.992 -0.0695  0.0906 -0.2836
18133W        W34607   0.668   6.214  11.711 -0.0068  0.1997 -0.2229
18134W        W34608   0.794   3.437  14.987  0.2465 -0.3063  0.3130
18135W        W34609   7.300   1.818  12.440  0.2088  0.1362  0.0181
18136W        W34610   1.660  10.308   2.260  0.2164  0.1309  0.3136
18137W        W34611   0.289   0.424  14.013 -0.0928 -0.2115 -0.2159
18138W        W34612   1.168   6.564   1.136  0.0177 -0.0762  0.3300
18139W        W34613  15.451   7.631  13.987 -0.3493  0.1911 -0.0616
18140W        W34614  17.064   1.926   0.203 -0.2715 -0.0405 -0.2272
18141W        W34615   2.639  15.383  11.934  0.0245 -0.0878  0.1852
18142W        W34616   2.715   9.310  15.704  0.3771  0.0141 -0.1809
18143W        W34617   9.377   2.651   0.856  0.0294 -0.0290 -0.0073
18144W        W34618  16.694  13.111  14.130  0.1971 -0.0627  0.2525
18145W        W34619   6.710   6.438   0.514  0.0890 -0.1682  0.1171
18146W        W34620  17.404   1.558  16.227  0.0778 -0.0808 -0.0110
18147W        W34621  12.429   0.116   2.977  0.3622  0.3304 -0.0421
18148W        W34622  10.664   7.332  15.688  0.0186 -0.1831  0.0016
18149W        W34623   3.195   2.502  15.090 -0.2516 -0.0839 -0.1703
18150W        W34624   3.263   7.345   3.535  0.1244 -0.1356  0.0035
18151W        W34625  13.951   4.414   4.359 -0.0646  0.1446  0.4055
18152W        W34626   4.391   2.800  16.590 -0.1541  0.2223 -0.1916
18153W        W34627   2.401   9.561  16.014  0.0923 -0.2051  0.3405
18154W        W34628  10.744   7.660   2.566 -0.1162  0.2398 -0.0213
18155W        W34629  13.325   8.439   4.592 -0.0406  0.0448 -0.3731
18156W        W34630   3.038  12.054  13.296  0.2652 -0.1793  0.0842
18157W        W34631   7.426  12.168  13.023 -0.1144 -0.3456 -0.0385
18158W        W34632   6.711  16.206   4.736  0.3602  0.2142 -0.2652
18159W        W34633  11.881   4.049   0.386 -0.1988  0.2695 -0.1477
18160W        W34634   2.155   6.148  13.381 -0.0260  0.2612  0.1876
18161W        W34635  11.052   4.424   1.886 -0.1476  0.0970  0.1834
18162W        W34636  11.694  10.372  15.190  0.1991  0.2757 -0.2546
18163W        W34637   7.867  17.553   0.458 -0.0978 -0.1326 -0.0423
18164W        W34638   0.265   3.748   4.452  0.0286  0.0080 -0.5283
18165W        W34639   2.421   7.153  13.537 -0.2003  0.0429  0.2490
18166W        W34640   9.931  11.640  15.000  0.1120 -0.0020 -0.0712
18167W        W34641  16.501   8.619  11.322  0.3327 -0.2023 -0.0115
18168W        W34642  12.991   9.421  13.015  0.1330 -0.1370  0.1593
18169W        W34643   1.468   0.608   1.745  0.1675 -0.3196  0.0362
18170W        W34644   3.306   6.307  16.570  0.1067 -0.2183 -0.1183
18171W        W34645   0.202   4.383   3.565 -0.2007  0.0151 -0.1089
18172W        W34646   7.955   7.509  16.619  0.0470  0.0353  0.0040
18173W        W34647   2.561  12.395   0.718 -0.1635 -0.2212  0.0004
18174W        W34648  13.900   9.674   3.126 -0.2109  0.2348  0.1505
18175W        W34649   8.018  12.602   0.899  0.0331 -0.0940 -0.1905
18176W        W34650   3.368   8.131  13.245  0.1186  0.0832  0.3253
18177W        W34651  11.456   8.050  12.343  0.3388 -0.1879 -0.2766
18178W        W34652   7.825   5.377  14.509  0.0531  0.0954  0.4058
18179W        W34653   1.881  10.155  13.161  0.1391  0.1413  0.0605
18180W        W34654  14.044  12.731   2.060  0.1490  0.0494  0.3104
18181W        W34655   7.753  16.699   4.759 -0.1114  0.3612 -0.2733
18182W        W34656  17.738   5.514   5.818  0.1661  0.2580  0.0655
18183W        W34657  15.790  12.560  10.664  0.1723  0.0089 -0.0960
18184W        W34658   6.179   2.564  15.229 -0.0386  0.0341 -0.1347
18185W        W34659   5.762   1.946  15.780 -0.0498 -0.2777 -0.0148
18186W        W34660  11.994   2.219  13.641 -0.5588 -0.1958  0.1539
18187W        W34661  13.058   1.798  12.176  0.1452  0.0352  0.0451
18188W        W34662   9.750  16.569   1.151 -0.1601  0.1121 -0.0518
18189W        W34663   5.549   4.270   5.326 -0.0339  0.3254 -0.1408
18190W        W34664  16.554  17.500  12.085  0.1040 -0.0412 -0.0533
18191W        W34665   2.710   8.835   3.616  0.0263 -0.2860  0.1307
18192W        W34666  16.595  10.925  15.938  0.0567 -0.0571  0.3127
18193W        W34667   0.635  14.982  16.543  0.0208 -0.0347  0.2463
18194W        W34668  12.863   6.066   4.678 -0.0385  0.1287  0.0546
18195W        W34669   9.325   3.305   2.515  0.1820 -0.1276 -0.4093
18196W        W34670   4.733  11.172   1.237  0.1746 -0.0531  0.0302
18197W        W34671  12.424   4.609  15.460  0.0069  0.3852 -0.0086
18198W        W34672  14.854   4.678   1.380 -0.3010 -0.0347 -0.0200
18199W        W34673   3.344  13.199   2.248  0.1151  0.1213 -0.3225
18200W        W34674  10.609   1.330   2.449 -0.1512 -0.0200  0.3368
18201W        W34675   5.834  17.229   0.591  0.0055  0.0070 -0.2304
18202W        W34676  13.990  15.168  12.426 -0.0088 -0.0232  0.1325
18203W        W34677  17.748   2.259   1.894 -0.2658 -0.0269  0.2077
18204W        W34678   7.454   6.950   2.248 -0.2117 -0.2471  0.0183
18205W        W34679   7.108  10.122  15.851 -0.1574 -0.2000  0.2202
18206W        W34680  14.472   9.800   6.317 -0.0172 -0.4205 -0.0280
18207W        W34681   5.724   5.779   2.550  0.0644  0.0694  0.2695
18208W        W34682  11.865   9.576  11.684  0.1022  0.0890 -0.1281
18209W        W34683  16.936  10.641  11.556 -0.0645  0.0793  0.0523
18210W        W34684  16.461  13.961  12.590  0.0066 -0.0424  0.0117
18211W        W34685   0.253   5.453  14.614  0.2501  0.1501  0.1043
18212W        W34686   7.461  17.902  16.678  0.0494  0.0633  0.0322
18213W        W34687  14.963   2.578   4.983 -0.0691 -0.0599 -0.0426
18214W        W34688   2.767   2.007   1.858 -0.2777  0.3459 -0.0990
18215W        W34689   9.270  13.974  16.483 -0.0926 -0.0589  0.3411
18216W        W34690  15.081  10.323   2.527 -0.1498  0.0263  0.3689
18217W        W34691   0.695   0.782  13.938  0.0043  0.2173  0.1789
18218W        W34692  11.021   7.585  14.817  0.2751 -0.1317  0.5111
18219W        W34693   0.073  10.583  14.636 -0.1394  0.2885 -0.0855
18220W        W34694  11.138   9.000   4.041  0.2162 -0.0962 -0.0562
18221W        W34695   0.610   0.849   2.162  0.2166  0.2277  0.3232
18222W        W34696  10.501   9.877  15.641 -0.0457  0.0939 -0.2315
18223W        W34697  10.599  12.375   1.836  0.0085  0.1100  0.0445
18224W        W34698   7.469   9.663  16.533  0.1512 -0.0573 -0.1980
18225W        W34699  17.036   4.191  14.406 -0.0601 -0.1809 -0.0363
18226W        W34700   5.678  10.628   4.877 -0.0897  0.0290 -0.7527
18227W        W34701  11.973   8.250   4.314  0.0218  0.2539 -0.0840
18228W        W34702   4.795  12.194  15.746  0.2436  0.1652 -0.1585
18229W        W34703   5.470  16.827   0.686  0.2301 -0.1396  0.0059
18230W        W34704   3.570   2.496  14.658 -0.1576 -0.1775 -0.1080
18231W        W34705   2.238   9.320  11.834 -0.4172 -0.1907 -0.1284
18232W        W34706   9.209  12.509   2.934 -0.0149 -0.0741 -0.0210
18233W        W34707   8.094   7.040   2.466 -0.1037 -0.0831  0.0369
18234W        W34708   9.604   0.206  14.702 -0.2621 -0.0596 -0.1543
18235W        W34709   3.159  11.911   3.952 -0.2148  0.1618  0.0617
18236W        W34710   7.409  17.569  11.490 -0.0291 -0.1138  0.0747
18237W        W34711   0.467   1.991   2.585  0.2803  0.2632  0.1007
18238W        W34712  10.216   8.923   0.563  0.1272 -0.0094 -0.0438
18239W        W34713  14.496  12.597   0.479 -0.1633 -0.2972  0.0627
18240W        W34714  12.884   0.878   4.192 -0.4898 -0.0104  0.0184
18241W        W34715   9.673  15.994   1.429  0.1023 -0.0560 -0.0153
18242W        W34716   3.796   1.793   0.035 -0.2463 -0.2720 -0.0884
18243W        W34717   3.989   4.987   1.043 -0.1789  0.0863 -0.1568
18244W        W34718   3.831  15.425   0.740  0.0395 -0.2480 -0.2150
18245W        W34719   2.134  16.719   2.430  0.2050 -0.4261  0.1694
18246W        W34720  13.528  10.701  14.329  0.1780  0.3128  0.2360
18247W        W34721  12.063  10.135   1.541 -0.2873  0.0826  0.1323
18248W        W34722  13.580   1.349  16.477  0.0554  0.3497 -0.3424
18249W        W34723  14.923   6.750   1.368 -0.0799  0.0639 -0.1422
18250W        W34724   4.578  14.129   0.429 -0.1857  0.0194 -0.0337
18251W        W34725   5.955   2.834  12.498 -0.1271  0.1346 -0.0775
18252W        W34726  11.582   4.455   0.291  0.3312 -0.0476  0.1113
18253W        W34727   0.640  13.844  11.562 -0.0257 -0.1257 -0.0539
18254W        W34728   7.301   3.897  11.946 -0.0910  0.0290  0.1730
18255W        W34729  15.742  16.705   5.158 -0.1560  0.1129 -0.1118
18256W        W34730   2.573  13.553  11.889 -0.1025  0.3434  0.3164
18257W        W34731   8.896  14.339  14.830  0.0273  0.1238  0.0352
18258W        W34732   9.059  15.234   0.111 -0.1881  0.0102  0.3261
18259W        W34733  12.147  12.203  16.214  0.0177 -0.0748  0.2117
18260W        W34734   8.866  14.830  11.837 -0.0692 -0.2547  0.0245
18261W        W34735  16.874  16.920   3.187 -0.0649 -0.0339  0.1119
18262W        W34736   3.580   5.288   1.146  0.0337  0.2312 -0.0617
18263W        W34737  16.318  10.218   4.252 -0.2964  0.0237 -0.0307
18264W        W34738   2.998   6.601   5.512  0.2603 -0.0516 -0.1121
18265W        W34739   4.513   2.081   3.504 -0.2337  0.0882 -0.1380
18266W        W34740   4.776  17.304   2.128 -0.0220  0.2515  0.2129
18267W        W34741   1.574  14.544  15.146  0.4307  0.0738 -0.0438
18268W        W34742   3.809   3.169   3.779  0.1374 -0.2982  0.1469
18269W        W34743  10.390   6.683  13.254 -0.2853 -0.0661  0.0112
18270W        W34744   4.689  14.576   0.682  0.2615 -0.2144  0.1965
18271W        W34745   8.428   8.285   3.443 -0.0362  0.0428 -0.1136
18272W        W34746   3.536  15.691  12.462 -0.2619  0.0268 -0.0431
18273W        W34747   4.582   6.749   1.660 -0.1086  0.0873  0.0775
18274W        W34748   1.942   6.933   0.617 -0.3413  0.3830  0.1508
18275W        W34749   8.845  12.197   6.151 -0.3185 -0.1162  0.3436
18276W        W34750  15.700  15.111   5.232  0.1918 -0.2688 -0.2136
18277W        W34751   8.607  12.625  14.984 -0.0410  0.0209 -0.4852
18278W        W34752  13.877   1.516   4.273  0.1110 -0.0131 -0.0050
18279W        W34753  13.975   0.589  12.019  0.0903 -0.1231  0.3832
18280W        W34754   0.431  14.373   3.027 -0.1254  0.2209 -0.1562
18281W        W34755   8.897   6.326   2.220  0.1095 -0.0654  0.0401
18282W        W34756   3.456   9.083  12.800 -0.2172  0.1601 -0.0405
18283W        W34757   1.866   6.397  13.747  0.1526  0.0702  0.0170
18284W        W34758   8.552   0.532   3.113  0.4197 -0.0966  0.2552
18285W        W34759  14.561   7.457  14.293 -0.4134 -0.0226 -0.0343
18286W        W34760   1.816  11.342  11.498 -0.0094 -0.0596  0.1040
18287W        W34761   2.916  17.406   5.694  0.1143  0.1328  0.2662
18288W        W34762   7.344  17.701  15.792  0.0252  0.0775 -0.0558
18289W        W34763   5.776   3.672  16.000 -0.2123 -0.2101  0.0128
18290W        W34764   9.548  13.637   3.029  0.0190  0.3240  0.0482
18291W        W34765   1.976   0.387  15.234  0.2731 -0.4691 -0.1361
18292W        W34766  12.713  17.150  16.618  0.2452  0.0057  0.2617
18293W        W34767   0.975   4.111   0.129  0.0586 -0.1143 -0.0584
18294W        W34768   2.497   0.183   2.674 -0.1157 -0.3591  0.2282
18295W        W34769   3.353   8.693  13.202 -0.0294  0.3003  0.0913
18296W        W34770   1.742   6.548  12.138 -0.2637 -0.1443 -0.0381
18297W        W34771  16.076   7.241   2.023 -0.0924  0.1860  0.1377
18298W        W34772   4.130  13.581  15.682 -0.2068  0.3340  0.2159
18299W        W34773  16.186  12.504   4.463  0.0142  0.1831  0.1503
18300W        W34774  13.116   9.815   0.034 -0.1390  0.2391 -0.0708
18301W        W34775  10.128  17.360   3.054  0.1158 -0.1301  0.0768
18302W        W34776   7.834   8.802  12.207 -0.1122 -0.1178 -0.0081
18303W        W34777   4.066   9.737   3.457 -0.2228 -0.0473  0.1393
18304W        W34778   2.528  12.436  11.702 -0.0630  0.1790  0.0325
18305W        W34779   3.932   5.406   4.796  0.2300 -0.1422  0.0463
18306W        W34780  16.199   3.191   2.077 -0.0800 -0.0706 -0.0146
18307W        W34781  17.057   9.536  13.316  0.0630  0.2016  0.2420
18308W        W34782   2.429   1.368   3.343 -0.2779 -0.1232 -0.1107
18309W        W34783  10.857   8.221   2.518 -0.1072 -0.0283 -0.0391
18310W        W34784  17.738  10.022   2.055  0.0477  0.1664  0.3193
18311W        W34785   9.472  17.636  11.935  0.0994 -0.1060  0.0599
18312W        W34786   5.601  17.921  14.671  0.0017  0.1181 -0.4226
18313W        W34787  17.211   2.116  16.024 -0.1355  0.0248  0.0965
18314W        W34788   7.671  10.281  14.573  0.2832 -0.1758  0.0143
18315W        W34789  17.639   1.752   1.674 -0.1836 -0.0982  0.0738
18316W        W34790  11.152  15.679  13.579  0.0432 -0.0234  0.0660
18317W        W34791   7.412   0.158  14.786  0.3401 -0.1288 -0.2198
18318W        W34792  14.004   8.053  14.456  0.2135  0.3058 -0.0431
18319W        W34793   3.496  17.438  12.156  0.2158  0.0155  0.2083
18320W        W34794   1.493  14.664   0.230  0.1165 -0.2052  0.2012
18321W        W34795   6.296   6.525   0.292  0.2302 -0.0349  0.0561
18322W        W34796  17.167  15.444   2.824 -0.0766 -0.0658 -0.1434
18323W        W34797  14.408   1.784  13.756 -0.1022  0.2100  0.2617
18324W        W34798  15.414   4.575   1.626 -0.1051  0.1220 -0.0610
18325W        W34799   0.725   8.101   3.118 -0.1760  0.2091  0.2039
18326W        W34800   6.995   0.699   1.978 -0.2821  0.0339  0.0461
18327W        W34801  16.485   9.411   4.861 -0.1675 -0.0564 -0.0442
18328W        W34802  14.755   5.068   2.298  0.0717  0.0366 -0.1567
18329W        W34803  12.875   2.781  11.874  0.1406 -0.0779  0.1915
18330W        W34804   4.052  16.213  16.067 -0.2278 -0.0165 -0.1450
18331W        W34805   8.783  17.609  14.386  0.0247  0.0807 -0.1534
18332W        W34806   4.579   2.107  12.109  0.1224  0.0799 -0.2811
18333W        W34807   4.341   8.422   4.743 -0.3504  0.3171 -0.0084
18334W        W34808  17.380   9.630  13.783  0.0079  0.1986  0.0625
18335W        W34809   8.676  16.189  16.078  0.2250 -0.1380  0.6793
18336W        W34810  16.952  14.822   0.908  0.2168 -0.2389 -0.1312
18337W        W34811  11.180   0.132  12.531  0.0499 -0.0541 -0.1677
18338W        W34812  14.965  17.643  15.518  0.0854 -0.0824 -0.0401
18339W        W34813  11.119  11.271   2.903  0.1280 -0.1084 -0.0880
18340W        W34814  15.623   1.123   5.465  0.1996 -0.1841 -0.0469
18341W        W34815   0.356   9.723   5.948 -0.0328  0.0674 -0.3427
18342W        W34816   4.653  11.956  16.315  0.1093 -0.0356 -0.0341
18343W        W34817   1.564  14.908   5.267  0.2584 -0.3276  0.0127
18344W        W34818  17.344  17.650   4.578 -0.0211  0.1570 -0.0658
18345W        W34819   3.325   7.342   0.554  0.1221 -0.1872  0.1959
18346W        W34820   1.478   1.632  11.628  0.2550  0.0497  0.0963
18347W        W34821  17.609   1.517  15.575 -0.1235 -0.1894 -0.4808
18348W        W34822   2.886   0.760  15.830  0.0990 -0.0455  0.3528
18349W        W34823  10.952  16.906  11.368  0.3827  0.2043  0.1296
18350W        W34824  11.105   9.853   4.098 -0.0796 -0.0140  0.0513
18351W        W34825  16.771   9.835  11.669 -0.1492 -0.0761 -0.2069
18352W        W34826   8.943  12.784   2.030 -0.2662  0.1057 -0.0263
18353W        W34827   9.959   6.288  16.556  0.1026 -0.0642 -0.1625
18354W        W34828   4.866   7.432  16.059 -0.0465  0.0062  0.1867
18355W        W34829   5.800  13.065   3.681  0.0803  0.1428 -0.1275
18356W        W34830   8.646  12.848   3.582 -0.2443  0.0395  0.1702
18357W        W34831  13.190  16.475  13.038 -0.0513 -0.1318 -0.2716
18358W        W34832   9.279   5.606  12.458  0.2125  0.0356  0.0331
18359W        W34833   2.161  12.254   2.149 -0.1878 -0.0223 -0.1937
18360W        W34834  13.084  15.394  16.698 -0.0565  0.0009  0.0791
18361W        W34835   6.364   0.328  11.709  0.0342 -0.1416 -0.0243
18362W        W34836   6.988   8.276  15.718  0.3867  0.0844  0.1337
18363W        W34837   6.750  15.096  14.715 -0.0208 -0.1392  0.2116
18364W        W34838  12.228  11.855   3.534  0.0136  0.2839 -0.3658
18365W        W34839  14.152  14.303   4.899 -0.2372  0.0575  0.0103
18366W        W34840  12.414  13.080   3.526 -0.1784  0.0264 -0.1530
18367W        W34841  11.989  13.650  13.429 -0.2940  0.2498 -0.2768
18368W        W34842  11.558  10.376  11.318 -0.4701  0.0781 -0.3172
18369W        W34843   3.672   6.712   4.499  0.2021 -0.0426 -0.1140
18370W        W34844  15.598  14.663  16.398  0.0151 -0.0225  0.0440
18371W        W34845  15.567  13.510   4.914 -0.1122 -0.0464  0.1959
18372W        W34846   6.162  10.992   4.171 -0.3413  0.0009  0.2097
18373W        W34847   1.560   2.838   5.061  0.0798  0.2153 -0.1234
18374W        W34848   6.635   2.522   1.184  0.1991 -0.0903 -0.2265
18375W        W34849  17.395   5.962  16.776  0.1024  0.0400  0.0331
18376W        W34850  12.996  13.019  15.171  0.1332 -0.1589  0.1416
18377W        W34851   4.320   3.042   5.352  0.0864 -0.0444  0.1116
18378W        W34852   1.522   4.958   4.687 -0.0547 -0.2003 -0.0165
18379W        W34853  13.940  16.492  12.641 -0.0873 -0.1370  0.0976
18380W        W34854   2.265  10.036  11.047  0.3315  0.0465 -0.2290
18381W        W34855  17.759  14.387   5.442 -0.3436 -0.0653 -0.0373
18382W        W34856  11.704   4.577  11.782  0.1775 -0.2129  0.2459
18383W        W34857   6.833   9.945  15.158  0.0423  0.2288  0.1259
18384W        W34858   3.513   0.229   3.703  0.0177  0.1856 -0.0024
18385W        W34859   4.842  16.011   1.016 -0.0808 -0.0269  0.2012
18386W        W34860   3.176   4.831   4.908  0.0900 -0.0939 -0.0968
18387W        W34861   4.869   3.630   5.980  0.2853  0.2744  0.1028
18388W        W34862  12.604  13.299   0.385  0.0821  0.0886  0.0028
18389W        W34863  14.845  10.686   1.686 -0.0597  0.0311 -0.3555
18390W        W34864   4.393  17.912  14.056  0.0871  0.1819 -0.2274
18391W        W34865   0.060  11.276  11.430  0.1982  0.2406  0.1409
18392W        W34866  11.668   9.827   4.058  0.0271 -0.0056 -0.0534
18393W        W34867  12.881   8.777   4.438 -0.2926  0.0332 -0.1444
18394W        W34868   5.311   2.128  16.758 -0.0095  0.0785  0.2840
18395W        W34869  13.518   4.779   1.609 -0.3623 -0.0977 -0.1332
18396W        W34870   1.525  14.744   4.830  0.1103 -0.0632 -0.1860
18397W        W34871   4.756   5.430  13.305  0.0465  0.0967  0.3787
18398W        W34872   4.353   9.132   0.298  0.1326  0.0141  0.1481
18399W        W34873   6.952   2.384   4.809 -0.1343 -0.1236  0.1490
18400W        W34874  15.235  12.596  14.250 -0.0083  0.0286  0.2672
18401W        W34875  16.657   8.175   0.088  0.3257  0.2102 -0.2297
18402W        W34876   2.492  12.954  15.188  0.1222 -0.1615 -0.1906
18403W        W34877   4.099  13.115  14.598  0.0853  0.0524 -0.2853
18404W        W34878   2.076  17.959   2.817  0.1558  0.2528 -0.0316
18405W        W34879  16.150  10.597   4.510  0.2786 -0.0861 -0.0578
18406W        W34880  16.975  13.553   4.652  0.3515 -0.4297 -0.1955
18407W        W34881  15.469  10.059   0.238 -0.1282 -0.3245 -0.0266
18408W        W34882   0.050   1.507   4.778 -0.1768  0.2124  0.0803
18409W        W34883  17.479  14.371   1.183  0.1255 -0.3001  0.1256
18410W        W34884  16.781   1.169   4.597 -0.1829 -0.3053  0.0768
18411W        W34885   2.396  11.160   3.721 -0.2407  0.2993 -0.0344
18412W        W34886  17.123  16.395   2.042  0.2565 -0.1040 -0.0496
18413W        W34887   6.042  10.474  16.627  0.2344 -0.1272  0.0909
18414W        W34888   9.795  16.772   4.497 -0.2754 -0.2011 -0.1218
18415W        W34889  12.121   3.753  13.669 -0.1128  0.0220  0.2201
18416W        W34890  11.873   7.035  16.023 -0.0011 -0.2793 -0.2085
18417W        W34891   9.652  16.725   2.696  0.1317 -0.0834  0.1641
18418W        W34892  11.183  17.351  11.704 -0.1048 -0.1067 -0.2431
18419W        W34893  14.442   3.481  14.129  0.0089 -0.2383 -0.0298
18420W        W34894   8.590   4.672   2.370  0.2710  0.2677  0.0124
18421W        W34895  13.676   0.217  14.178  0.2348  0.0300  0.0715
18422W        W34896  17.304   5.505   0.952  0.1608 -0.3315  0.1173
18423W        W34897   6.303  12.729   0.043 -0.1795  0.0327 -0.0262
18424W        W34898  16.384   5.757  12.703  0.1020 -0.0363 -0.3569
18425W        W34899   2.838  17.821   4.547 -0.1963 -0.1172  0.2404
18426W        W34900  13.547   1.500   3.514 -0.0994  0.1514  0.0771
18427W        W34901  17.616   1.588   2.542 -0.1548  0.0086 -0.1284
18428W        W34902   3.039   6.131   3.071 -0.0610 -0.0918 -0.1061
18429W        W34903   3.413  14.865  16.419  0.4943 -0.1602 -0.1944
18430W        W34904  10.637  10.701   2.662 -0.0416 -0.0169  0.0083
18431W        W34905   9.664  12.436  12.255  0.1143  0.2326 -0.0605
18432W        W34906  14.937   5.172  14.515  0.3293  0.1348  0.2491
18433W        W34907   8.843  17.496  14.924  0.1404 -0.0673  0.0064
18434W        W34908   2.026   7.734   1.459 -0.3485  0.1689  0.2017
18435W        W34909   8.431   0.047   5.518 -0.1852 -0.2430 -0.2276
18436W        W34910  16.440   8.602   3.010 -0.1677 -0.1266  0.4190
18437W        W34911  11.023   0.549  12.930 -0.3710  0.1784 -0.1073
18438W        W34912   2.212   8.405  14.918 -0.0494 -0.0307 -0.0817
18439W        W34913   8.387   8.342   0.007  0.3059  0.0018  0.3814
18440W        W34914   3.651   4.039  16.224 -0.2308  0.2693 -0.1409
18441W        W34915  17.216  11.183  14.197  0.1207 -0.4746 -0.1282
18442W        W34916  16.247  16.926  16.675  0.1449  0.4605 -0.1990
18443W        W34917   2.371   7.311   2.774  0.0432 -0.0966 -0.1798
18444W        W34918   0.234  11.462   0.456  0.2091 -0.1442 -0.1111
18445W        W34919   4.572   2.822   5.717  0.0912  0.2691 -0.1630
18446W        W34920   3.524  11.635  12.956 -0.2472  0.1312  0.0580
18447W        W34921   2.843  16.065  16.057 -0.2383  0.1568 -0.6350
18448W        W34922   1.779   3.256   3.032  0.1804  0.1765 -0.0582
18449W        W34923  11.953   4.037   2.784  0.1836  0.1626  0.0448
18450W        W34924   6.420   2.961  12.318  0.1304 -0.0865  0.0616
18451W        W34925   3.958  16.595   5.485  0.0156  0.0128  0.1437
18452W        W34926   2.966   8.044  13.663  0.1672 -0.0521 -0.1295
18453W        W34927   1.494   0.628  11.664  0.0869 -0.0731 -0.2063
18454W        W34928   0.854  10.432   1.737 -0.0143 -0.0856  0.1594
18455W        W34929   3.973  10.152  13.150  0.0738 -0.0859  0.0374
18456W        W34930   1.365   4.409  15.808 -0.2071  0.0514  0.2179
18457W        W34931   9.959   5.133   1.078  0.1988 -0.0675 -0.1592
18458W        W34932  11.120   0.909  11.416  0.3166  0.1324  0.1317
18459W        W34933   3.591  12.856  14.473 -0.0579  0.0723 -0.0052
18460W        W34934   6.455   5.697  14.913  0.0801  0.1232  0.2058
18461W        W34935  14.742   7.343   4.548  0.4469  0.0132  0.0018
18462W        W34936  12.996  13.028  14.675 -0.2345 -0.0634  0.0667
18463W        W34937   7.771   1.376   4.234  0.1776  0.1726  0.0775
18464W        W34938   5.996  14.484  12.392 -0.3007  0.0574  0.1842
18465W        W34939   4.700   1.651  16.126 -0.0859 -0.2334 -0.2340
18466W        W34940  14.491   5.783  13.505  0.0712  0.2438  0.0005
18467W        W34941   4.558  14.218   0.940 -0.0240 -0.0538 -0.0002
18468W        W34942  10.524  12.207  13.827 -0.2305 -0.1573 -0.2301
18469W        W34943  15.570   5.584  12.059 -0.0678  0.2009 -0.3912
18470W        W34944   5.028   9.484   0.457 -0.1436 -0.1674 -0.3736
18471W        W34945  12.073  10.520  15.474  0.4012 -0.3238  0.2311
18472W        W34946   3.156   9.204   3.428  0.0930 -0.2694 -0.1070
18473W        W34947   1.393  14.601   4.085  0.0794 -0.2722  0.1972
18474W        W34948   9.083   6.915  12.525 -0.1934 -0.0393  0.1713
18475W        W34949  11.778   1.132   3.784 -0.1211  0.2092 -0.1176
18476W        W34950   1.575   1.719   4.572  0.0310  0.0562 -0.1409
18477W        W34951  17.729   6.030  15.850  0.0391  0.3312 -0.2414
18478W        W34952  17.902   0.838  12.299  0.2865 -0.1716 -0.3858
18479W        W34953   4.040   1.966  12.130 -0.1994 -0.3049 -0.1085
18480W        W34954   2.181   3.226   3.344 -0.0121 -0.1962  0.3670
18481W        W34955   9.876  12.224  15.475  0.1349  0.2140  0.2168
18482W        W34956  15.642   2.426   2.437  0.3036 -0.0140 -0.1482
18483W        W34957   9.141   6.094   3.857  0.0807  0.0453  0.1207
18484W        W34958  15.372  14.699   1.989  0.0215  0.3930  0.1556
18485W        W34959   3.614   0.467  14.459  0.0049  0.1491  0.0491
18486W        W34960  12.461  11.295   2.834 -0.0590 -0.4165  0.1095
18487W        W34961  16.918  13.275  14.543  0.0144  0.0736 -0.0182
18488W        W34962  13.339   4.636  13.387 -0.5080 -0.0540 -0.3334
18489W        W34963  10.833  11.652  15.665 -0.1780 -0.1269 -0.2495
18490W        W34964   9.119  11.963  15.653 -0.0089 -0.1596 -0.0630
18491W        W34965  10.493   3.834  14.446 -0.1769 -0.0963 -0.0862
18492W        W34966  10.832  17.597  14.579 -0.0959  0.0239  0.1331
18493W        W34967   3.512   2.689   0.995 -0.0875  0.0921 -0.2530
18494W        W34968  16.473   1.034  16.366  0.1095 -0.0164 -0.2901
18495W        W34969  14.110  17.575   4.692 -0.1088 -0.0250  0.2186
18496W        W34970  15.596   8.262  16.287  0.0302  0.4737  0.0983
18497W        W34971  12.571   9.234   2.697  0.0831 -0.0788  0.2621
18498W        W34972  17.914  10.876   1.579 -0.0780  0.1344 -0.1354
18499W        W34973   5.789   2.424  14.805 -0.0709 -0.0230 -0.3236
18500W        W34974   3.644   3.486  15.056 -0.1894  0.0103 -0.0089
18501W        W34975   0.398  11.361   5.418 -0.0559 -0.0552 -0.2982
18502W        W34976   0.967   4.816  13.064 -0.3239 -0.0056  0.0277
18503W        W34977   0.999   1.646   2.927 -0.1074  0.0938 -0.1676
18504W        W34978   3.168  14.616  11.709 -0.1159 -0.2236 -0.0125
18505W        W34979   7.752  11.883  14.449 -0.1676 -0.1893  0.0675
18506W        W34980  16.293   2.397   0.128  0.0739 -0.0646  0.4131
18507W        W34981   9.666  12.614  14.258 -0.1351  0.0407  0.1536
18508W        W34982  13.682  16.501  13.375 -0.0155  0.0445  0.1586
18509W        W34983   7.434   8.601  10.767  0.0157  0.1698  0.0607
18510W        W34984  17.023  15.148  13.952  0.2801 -0.0135  0.0130
18511W        W34985   8.607   9.050   3.283  0.1188 -0.0138  0.2562
18512W        W34986   8.899   4.454  16.441 -0.0237  0.2501 -0.3488
18513W        W34987   4.658   0.454   3.203 -0.1038  0.0259 -0.1181
18514W        W34988  12.018   4.461   5.802 -0.3309  0.3016  0.4583
18515W        W34989  13.828  10.067   1.002 -0.4297 -0.0462  0.0653
18516W        W34990   9.294   1.719  16.502  0.0863 -0.1761  0.0557
18517W        W34991   7.528  11.697  16.403  0.0442 -0.1017  0.2142
18518W        W34992   0.576  11.612  13.948  0.1276 -0.0404 -0.0274
18519W        W34993   3.911   5.008  12.345 -0.0235 -0.0693  0.0623
18520W        W34994  15.069   0.083  15.710  0.1768  0.0989  0.0513
18521W        W34995   9.517   5.789   3.674 -0.0708  0.1788 -0.0528
18522W        W34996   4.304   8.668  15.724  0.0266  0.1009  0.0098
18523W        W34997   3.264   1.827   2.158  0.0988  0.1678 -0.0965
18524W        W34998  14.344  15.490  12.363  0.2060  0.1175  0.0973
18525W        W34999   5.471  12.232   2.377 -0.1180 -0.0040  0.1628
18526W        W35000   9.632   3.730  14.882 -0.2351  0.0864 -0.1285
18527W        W35001   0.894  17.475  15.800  0.0332 -0.0079  0.0119
18528W        W35002   8.213   3.232   0.197  0.0520  0.3892  0.1099
18529W        W35003  10.138  11.744  11.272  0.1273 -0.0652 -0.2127
18530W        W35004   3.800   8.353  11.942 -0.1092 -0.2355  0.2122
18531W        W35005   0.034   0.518  15.719  0.0462 -0.0432  0.1737
18532W        W35006  13.059   6.092   5.697  0.1729  0.1413  0.2307
18533W        W35007   2.637  14.536  12.294  0.3660 -0.1992 -0.1741
18534W        W35008  15.019   6.678  12.391  0.0291  0.0877 -0.0058
18535W        W35009   1.851   9.209  11.453  0.0092  0.1863  0.0253
18536W        W35010  12.287  16.828  14.215 -0.0524 -0.3333  0.1777
18537W        W35011   6.347   2.450   4.309 -0.0962  0.1830  0.0559
18538W        W35012   4.656   4.716  13.861  0.0898 -0.1048  0.3088
18539W        W35013  17.827   4.181  16.077  0.2371 -0.0471  0.1025
18540W        W35014  14.713   5.549  13.935  0.3253 -0.1651  0.1595
18541W        W35015   6.742   1.154   3.583  0.1194 -0.0940 -0.0741
18542W        W35016   2.413   3.307  11.419 -0.0418 -0.0775 -0.0078
18543W        W35017   2.249  14.134  12.517 -0.0458 -0.0972 -0.1026
18544W        W35018  16.079   7.416  16.134  0.0339 -0.3414  0.3421
18545W        W35019  14.883  16.911   5.555  0.1062  0.0532 -0.2066
18546W        W35020  14.398  11.585  15.946 -0.0093 -0.0114  0.4089
18547W        W35021   5.453  14.742  16.653  0.0731 -0.1359 -0.2360
18548W        W35022   4.623  11.972   4.275 -0.3735  0.1789 -0.0806
18549W        W35023   0.897  17.017   5.779  0.0722  0.3248  0.0379
18550W        W35024   2.752   3.006  14.364  0.2537  0.2160  0.0637
18551W        W35025  17.392   7.848   5.442 -0.1086  0.0702  0.3481
18552W        W35026   7.253  15.751   3.964 -0.2767 -0.1172  0.0757
18553W        W35027  11.652  12.327   2.153  0.1533  0.1310  0.3032
18554W        W35028  13.683  15.788  12.757  0.0199  0.0503 -0.1535
18555W        W35029   9.700  16.095  12.966 -0.0488 -0.2405  0.3996
18556W        W35030  14.876  12.490  12.363  0.2378 -0.3221 -0.1118
18557W        W35031  12.840  14.033  15.396 -0.0226 -0.0522  0.1741
18558W        W35032  15.898  12.638   2.764 -0.1227  0.1015 -0.0577
18559W        W35033   0.943  11.536   5.494 -0.0157 -0.0360  0.0670
18560W        W35034   2.850   6.602   3.801  0.1502  0.4267  0.1161
18561W        W35035   0.379   9.172   4.744  0.0314 -0.0857 -0.1904
18562W        W35036  15.579   4.269  15.697  0.1067 -0.1209  0.3456
18563W        W35037   2.032  12.259   3.197 -0.1314  0.1880 -0.2092
18564W        W35038   6.401  16.047   0.293  0.4588 -0.1122  0.5115
18565W        W35039  10.233  16.618   1.006 -0.1531 -0.0535 -0.0852
18566W        W35040   0.855   1.354   1.993 -0.1303  0.0910  0.2466
18567W        W35041  10.700   8.481  16.516  0.0621 -0.2173 -0.0543
18568W        W35042  14.224   6.019   4.346 -0.0064 -0.1274 -0.2355
18569W        W35043   3.106  14.041   5.439 -0.1837  0.3294  0.0003
18570W        W35044  10.633  12.513  13.424 -0.2631 -0.0618 -0.0011
18571W        W35045   9.305   5.509   5.241  0.3821  0.0892 -0.0935
18572W        W35046  13.544   1.994   2.644  0.1326  0.1855 -0.0046
18573W        W35047  14.915   0.107  12.328  0.0561 -0.0738 -0.1145
18574W        W35048  11.712  17.347   5.708 -0.1762 -0.0006 -0.0281
18575W        W35049   1.014   9.413   3.953  0.1934  0.1671 -0.0070
18576W        W35050   9.838  17.664   4.885 -0.3250 -0.0045  0.1741
18577W        W35051  10.343   0.199   6.165  0.2236 -0.0968 -0.0504
18578W        W35052  10.459  10.793  16.311 -0.1036 -0.3728 -0.2072
18579W        W35053   1.108  17.304  12.258  0.0934 -0.1483 -0.0606
18580W        W35054   3.834  10.171   4.188 -0.1480 -0.0290 -0.1568
18581W        W35055  13.921  11.393  15.750  0.0447  0.0306  0.1874
18582W        W35056   9.141  16.101   0.582  0.1547 -0.1622  0.2206
18583W        W35057  12.095  15.059  12.249 -0.1459  0.0209 -0.1317
18584W        W35058  10.648   6.126   0.355 -0.0180 -0.3312  0.2376
18585W        W35059  17.051  12.471  16.358  0.1845 -0.2005 -0.2062
18586W        W35060   7.142  16.726   3.265  0.0046  0.0931 -0.1400
18587W        W35061  16.792   7.851  15.179 -0.1455  0.0496  0.0816
18588W        W35062  13.084   5.975   2.994  0.0648  0.1697 -0.0317
18589W        W35063   8.491   4.707  16.634 -0.0015  0.1221 -0.1490
18590W        W35064   8.195  17.438  14.521 -0.1247 -0.0847 -0.2296
18591W        W35065  17.157  16.844   4.768 -0.2102  0.0172  0.4070
18592W        W35066   1.526  10.433   3.527  0.1292  0.2053 -0.0422
18593W        W35067  14.363   8.098  13.717 -0.1134  0.2906 -0.2532
18594W        W35068   4.210  12.786   0.531 -0.0473  0.0747 -0.2228
18595W        W35069   8.620   6.869   6.190 -0.0724  0.0349 -0.2530
18596W        W35070  13.326   0.338  14.955  0.2546 -0.1594 -0.1259
18597W        W35071  13.351   0.492  13.906 -0.0492  0.1973  0.1158
18598W        W35072   0.192   1.825  15.768 -0.0182  0.0799  0.2336
18599W        W35073   6.656  15.015  13.799 -0.2876  0.1412 -0.2324
18600W        W35074   6.060  13.585  12.215  0.1104  0.2078 -0.4878
18601W        W35075  15.896  17.023  15.045  0.1188  0.1732 -0.2244
18602W        W35076  12.189   8.807   5.661  0.2750 -0.1592 -0.1820
18603W        W35077   4.938  10.976  13.646 -0.1642 -0.4821  0.4372
18604W        W35078  15.541   1.014   1.348 -0.3254 -0.1928 -0.2451
18605W        W35079  13.475   4.244   4.123 -0.0680 -0.0625 -0.0306
18606W        W35080   9.014   6.159  12.366  0.1253  0.1071  0.1689
18607W        W35081   5.708   0.636   5.040 -0.0908 -0.1601 -0.1996
18608W        W35082   2.462   2.788  14.706 -0.1109 -0.0845 -0.0653
18609W        W35083  11.409   0.395   2.008  0.1662 -0.2214 -0.0920
18610W        W35084  10.709   7.850  15.730  0.2858  0.2922 -0.1789
18611W        W35085   3.663   3.179  12.483  0.0557  0.1044 -0.0803
18612W        W35086   6.097   1.975  12.443  0.0062 -0.0323 -0.2151
18613W        W35087   1.028  14.897  13.436 -0.1940 -0.0507  0.5026
18614W        W35088   3.867  14.295   4.439  0.3114 -0.1141 -0.2507
18615W        W35089  12.983   3.075   1.763  0.2678 -0.1726 -0.2056
18616W        W35090   2.250  12.603  14.608 -0.1452 -0.1849  0.2346
18617W        W35091  10.012  12.916   6.400  0.1028  0.1253 -0.0275
18618W        W35092   2.910  12.946  13.157  0.2020  0.0684 -0.0510
18619W        W35093  13.529   3.560  14.921 -0.1650 -0.1344  0.2028
18620W        W35094  15.206  14.866  14.501 -0.0947  0.2531 -0.0602
18621W        W35095   4.902   3.463   2.081 -0.2080  0.2580 -0.1512
18622W        W35096   7.074   6.961  16.289 -0.1683 -0.2284 -0.0335
18623W        W35097  14.375   6.286  13.762  0.5480  0.2984  0.1008
18624W        W35098   1.045   7.887  16.091  0.0771 -0.1684  0.0297
18625W        W35099  17.026   5.812   1.704 -0.0289 -0.0276  0.2815
18626W        W35100  13.396   0.340   0.144 -0.0000 -0.2783 -0.0556
18627W        W35101  14.448   5.555  15.351 -0.2389 -0.0190  0.0949
18628W        W35102   8.439  16.974   0.452  0.0869  0.0049 -0.1701
18629W        W35103   5.583  13.174   2.241 -0.0080 -0.0062  0.0032
18630W        W35104  12.048   9.315   5.780 -0.2292 -0.1018 -0.5324
18631W        W35105  15.357   7.324  11.970 -0.1704 -0.0736  0.0840
18632W        W35106   9.219  15.561  15.489 -0.0261  0.3321 -0.2487
18633W        W35107   7.783   0.345  16.435  0.0728 -0.1502 -0.1880
18634W        W35108   8.583  11.531   3.309  0.1563  0.1105 -0.0056
18635W        W35109  12.169  14.600  10.619 -0.3261  0.0724 -0.0579
18636W        W35110   1.197  15.506   4.584 -0.0081 -0.1490  0.0330
18637W        W35111   4.010   9.428   3.793  0.0739  0.0739 -0.0410
18638W        W35112  15.592  10.204   2.309 -0.1618 -0.2397 -0.2333
18639W        W35113  10.220   5.414   3.380  0.2565 -0.0722 -0.3140
18640W        W35114   9.964   9.182  14.277  0.1345  0.2675 -0.1318
18641W        W35115  11.081   1.706  14.996  0.1326 -0.1681  0.2466
18642W        W35116   1.015   7.385   0.693  0.0875  0.0464 -0.2813
18643W        W35117   0.671  13.201   5.080  0.1546 -0.1275 -0.0544
18644W        W35118  17.705  10.009   2.872 -0.0028 -0.0354 -0.3340
18645W        W35119   8.700   7.279   5.774 -0.1034 -0.0071 -0.1961
18646W        W35120  13.421  12.328   4.979 -0.0682  0.0883  0.2526
18647W        W35121   7.130   6.221  15.791  0.1333  0.0347 -0.0260
18648W        W35122  17.948  11.778   1.911  0.3172  0.0521  0.0112
18649W        W35123  10.281   1.416   4.248  0.3252 -0.0798  0.2715
18650W        W35124   8.867  15.960  16.464 -0.1960 -0.0187  0.1308
18651W        W35125  17.249  17.970  14.252 -0.0147  0.4144 -0.1055
18652W        W35126   2.675   1.518   3.763 -0.0424  0.0620 -0.2360
18653W        W35127   7.436   7.777  14.593 -0.0801  0.0334 -0.0154
18654W        W35128   8.233  13.686  14.851 -0.1230 -0.2763  0.1057
18655W        W35129   4.845  15.919  14.998  0.1589  0.2132 -0.1522
18656W        W35130  16.912   8.197  12.742  0.1541 -0.2334  0.2186
18657W        W35131   5.408  13.089  12.369  0.1839  0.0646  0.1809
18658W        W35132  12.489  14.382   5.254 -0.1177 -0.2262 -0.0125
18659W        W35133   2.016  13.592  11.011  0.2242 -0.1845 -0.0149
18660W        W35134   6.109  12.797   1.759  0.1632 -0.0954 -0.1734
18661W        W35135  11.059  13.824   2.882 -0.0413  0.4251  0.2375
18662W        W35136  16.951   7.084   0.623 -0.0099  0.2559 -0.0329
18663W        W35137   0.765   8.009   0.447  0.3479 -0.2360  0.0783
18664W        W35138   1.909  17.910  14.963 -0.0562 -0.1961 -0.2698
18665W        W35139   3.147  14.852  12.241  0.0819  0.3072  0.1456
18666W        W35140   7.583  16.181   2.274  0.3443 -0.0143  0.0222
18667W        W35141  10.252  14.412   1.361  0.1512 -0.0085  0.1690
18668W        W35142   1.498  16.713   4.996 -0.2061  0.0932  0.0977
18669W        W35143  16.046   4.152   4.541  0.0058 -0.3529  0.0430
18670W        W35144  12.783  11.555  16.537  0.0931  0.2295 -0.0798
18671W        W35145  12.955   4.312  15.554  0.0100  0.4772 -0.0255
18672W        W35146  15.472  17.545  14.308 -0.0064 -0.0737 -0.3062
18673W        W35147  13.883  12.333   1.256  0.1735 -0.0392 -0.4204
18674W        W35148   1.549   1.378  12.091 -0.0242  0.0649 -0.3152
18675W        W35149   1.118  14.488   3.625 -0.3973 -0.0915  0.1162
18676W        W35150   9.980   6.908   0.925 -0.1213 -0.0231 -0.0200
18677W        W35151   4.785   8.962  14.084  0.0918 -0.3658  0.1314
18678W        W35152  12.234   0.492   3.293 -0.0038  0.0724  0.0153
18679W        W35153  13.119  14.751  11.287 -0.1302  0.0670 -0.2266
18680W        W35154  15.518  10.190  14.778 -0.1803  0.1746  0.0937
18681W        W35155  10.606  13.750   0.881  0.3345 -0.1700 -0.0938
18682W        W35156   3.189   5.866   0.069  0.0261 -0.2297  0.0391
18683W        W35157   9.772  14.383  12.648  0.1360 -0.0506  0.0140
18684W        W35158   9.517  15.815   0.986  0.0401  0.3784  0.0243
18685W        W35159   2.934  10.415  11.635  0.3523  0.0245  0.0212
18686W        W35160  14.768   0.563   5.317 -0.2759 -0.4228 -0.0126
18687W        W35161  13.131  11.651   0.081  0.1476 -0.2039  0.0007
18688W        W35162   1.338  15.465   4.082  0.2093  0.1388  0.0228
18689W        W35163  16.566  17.370   2.572  0.2465  0.2682  0.0970
18690W        W35164  14.936   8.874  11.870 -0.3690 -0.2734 -0.0174
18691W        W35165   5.159   5.717  11.966  0.1740  0.1778 -0.0216
18692W        W35166   4.987   1.509  15.622 -0.1902 -0.0459 -0.0815
18693W        W35167   8.781   2.381   2.545 -0.1318  0.0872 -0.0244
18694W        W35168   3.135   2.160   5.316  0.0975  0.0768  0.0229
18695W        W35169   2.707   9.461  14.185  0.4449  0.2266  0.1801
18696W        W35170  17.037  14.820  16.541  0.0622 -0.0132  0.0858
18697W        W35171   3.032   5.529   0.384 -0.2221  0.1461  0.3428
18698W        W35172   9.774   1.268  13.671  0.1465  0.1639  0.2511
18699W        W35173   3.707  10.948  15.066  0.1354  0.0723  0.0046
18700W        W35174   0.198  13.265  13.966  0.0012  0.0689 -0.4018
18701W        W35175   5.140   6.569   5.434 -0.3109 -0.0979 -0.1789
18702W        W35176  10.326  14.886  10.933 -0.0113  0.0075 -0.1164
18703W        W35177  11.651   8.733  11.910 -0.1267  0.1074 -0.0568
18704W        W35178  16.327  16.402   1.080  0.0846 -0.1895  0.0190
18705W        W35179   7.969   8.178   3.683 -0.0180 -0.1363  0.2437
18706W        W35180   1.360   0.658   0.945 -0.1472 -0.0246  0.2213
18707W        W35181   2.730   9.372  13.690 -0.0981  0.0846  0.1336
18708W        W35182   7.109   5.972   0.456  0.1431 -0.2733 -0.2046
18709W        W35183   6.259  11.758  10.373 -0.4057  0.0586  0.2828
18710W        W35184  16.669  12.063   0.900 -0.2596 -0.0636  0.1719
18711W        W35185  11.725   1.585  15.917 -0.2239 -0.0654 -0.3837
18712W        W35186  10.895  12.200   3.703 -0.2515 -0.1894 -0.0200
18713W        W35187  13.610  11.025  13.862  0.1999  0.0708  0.0624
18714W        W35188   5.664  15.017   1.450  0.0573  0.0680 -0.0956
18715W        W35189   0.032   0.086  15.424 -0.2933  0.1880 -0.1540
18716W        W35190  14.565  11.810  11.617 -0.0515 -0.2362  0.4194
18717W        W35191   0.002  10.711  13.558 -0.0541 -0.5145  0.0686
18718W        W35192  12.368  10.361   0.266  0.3463  0.1114  0.0693
18719W        W35193  16.684   1.766  13.927 -0.2518  0.2867 -0.1470
18720W        W35194   9.970  12.402  11.403 -0.1077  0.1658 -0.2476
18721W        W35195  10.572   4.217   1.629 -0.0230  0.1760 -0.0093
18722W        W35196   7.277   6.923  14.388 -0.0621  0.1752  0.0219
18723W        W35197   2.592  12.912  10.856  0.0119  0.1591  0.0628
18724W        W35198   5.064   1.616  11.549 -0.2452 -0.0739  0.2851
18725W        W35199   1.592  15.449  14.276 -0.0824  0.1585 -0.0691
18726W        W35200   5.068  10.606   4.854  0.2249 -0.0018 -0.0338
18727W        W35201  16.968   2.673   5.321 -0.2988  0.1320 -0.2193
18728W        W35202   1.331   8.938   3.652 -0.2546  0.0833 -0.0712
18729W        W35203  12.097  11.715   1.294  0.2702 -0.3195  0.1921
18730W        W35204   7.390  13.046  14.204  0.1192 -0.2998 -0.2031
18731W        W35205   1.783   9.378  11.004 -0.1723 -0.2162  0.0907
18732W        W35206   9.862   0.155  12.592  0.0962 -0.0393  0.1023
18733W        W35207  11.746   2.198   2.746 -0.0904 -0.0320 -0.2137
18734W        W35208  16.886   3.362  16.489 -0.2591  0.0946 -0.2052
18735W        W35209   8.731   8.457   3.820 -0.2441  0.0364 -0.0914
18736W        W35210   3.088   2.431   2.820  0.1920  0.0947  0.0097
18737W        W35211  13.727  14.824  16.107  0.1409 -0.0412  0.2115
18738W        W35212   4.512  14.037  14.427 -0.0802 -0.1613 -0.0455
18739W        W35213   1.436   0.647   0.142 -0.1827 -0.1350 -0.4396
18740W        W35214   3.359   6.968   2.773  0.1887  0.0047 -0.0065
18741W        W35215  15.987   4.791   3.165  0.0535 -0.0122 -0.2430
18742W        W35216   1.482   6.325   3.436 -0.1679  0.2791  0.1983
18743W        W35217   3.024  11.375  14.917 -0.5369  0.1410 -0.3280
18744W        W35218   5.749  10.060   1.125  0.2232 -0.0084  0.0349
18745W        W35219  12.598   7.579  15.736  0.2102 -0.2263 -0.1697
18746W        W35220   7.723  12.781   0.487  0.0691 -0.2579 -0.2074
18747W        W35221   4.092  17.297   5.410 -0.2686  0.1505  0.0219
18748W        W35222   6.711  14.312   2.388 -0.2460 -0.1627  0.0064
18749W        W35223  10.210  10.314   4.088 -0.0389  0.0560 -0.1408
18750W        W35224   6.087  11.407  13.942  0.1093 -0.0797  0.1168
18751W        W35225  14.161   6.034   0.891 -0.2342 -0.1209  0.0624
18752W        W35226  14.736  13.289   5.873 -0.1285  0.1345 -0.0866
18753W        W35227  14.653   5.655   3.714 -0.1130 -0.0243  0.2425
18754W        W35228   1.170   4.077   2.711 -0.2431 -0.0778  0.0376
18755W        W35229  15.885  16.620   2.372 -0.0416  0.0299  0.2951
18756W        W35230   0.438  15.787  12.421 -0.3992  0.0662  0.0476
18757W        W35231  16.417   7.190  12.102 -0.1484 -0.0780 -0.2724
18758W        W35232   8.899   3.001   4.912  0.0642 -0.1392  0.1909
18759W        W35233   5.702  14.845   4.526 -0.1165  0.1629 -0.0079
18760W        W35234   6.154   8.168  12.063 -0.2635  0.0279  0.1298
18761W        W35235   8.007   0.766  12.265  0.0302 -0.1663 -0.1803
18762W        W35236  17.277  11.559   2.671 -0.2591  0.2352  0.0442
18763W        W35237  13.457  14.337  12.508  0.0286 -0.1382 -0.0562
18764W        W35238   2.012   9.964   5.554 -0.1990 -0.0940 -0.1752
18765W        W35239   4.905   8.941   4.438  0.0401 -0.1775 -0.1886
18766W        W35240   1.159   3.077   2.361  0.1651  0.1509  0.0633
18767W        W35241  10.360  13.457  13.477  0.2875 -0.1302 -0.0529
18768W        W35242  15.418   6.434  16.684  0.3047  0.1942 -0.0677
18769W        W35243   4.532   9.617   0.477 -0.4656  0.0273 -0.5322
18770W        W35244   3.894   6.990   5.391  0.0242  0.2172 -0.1948
18771W        W35245   5.725   8.718  16.121  0.0159 -0.0388 -0.1791
18772W        W35246  17.755  14.889  13.035  0.1002  0.1110  0.0117
18773W        W35247   8.205   5.852   3.472  0.0889  0.1308 -0.0755
18774W        W35248   6.030  11.935   0.545 -0.0479  0.1026  0.2873
18775W        W35249   8.830  16.707  15.466  0.0135 -0.2325 -0.2571
18776W        W35250   9.720  13.390   1.675 -0.0134 -0.2834  0.4041
18777W        W35251  12.438  16.650   1.981 -0.1011  0.1267  0.1735
18778W        W35252   5.594   1.309   5.833 -0.1448 -0.2989 -0.2147
18779W        W35253   2.603  15.101   2.135  0.1409  0.1083 -0.3947
18780W        W35254  15.976   6.009  16.535 -0.1354 -0.2123  0.0845
18781W        W35255   2.389   1.068  16.142 -0.0548 -0.2025 -0.1028
18782W        W35256   5.203   4.982   1.498  0.0943 -0.0795  0.4217
18783W        W35257   8.532   5.017  15.199  0.2159 -0.3774  0.0462
18784W        W35258  12.514  15.622   0.892 -0.2739  0.3017  0.0095
18785W        W35259  16.214  10.713  11.969 -0.1054 -0.1200 -0.1360
18786W        W35260  16.971  14.193   4.672 -0.1104 -0.2452 -0.1753
18787W        W35261   7.108  17.096   2.873 -0.0231  0.0295 -0.2306
18788W        W35262   8.841   4.373   2.692 -0.1871 -0.4022  0.4251
18789W        W35263  16.069   0.159  16.091 -0.0955 -0.0736 -0.1286
18790W        W35264   1.030  13.653  14.414  0.0586 -0.1471 -0.0941
18791W        W35265   7.131   8.395   2.541 -0.0021  0.1984 -0.1437
18792W        W35266   9.208  11.550   2.011  0.2643 -0.1413 -0.3146
18793W        W35267   4.609   1.550  15.299 -0.2400  0.2577 -0.2067
18794W        W35268   3.478  15.804  15.859 -0.0519  0.0557  0.1791
18795W        W35269   7.326  12.827   1.182  0.2066  0.2595 -0.0961
18796W        W35270   1.893   1.710  15.884  0.0237  0.1698  0.0599
18797W        W35271  10.907  10.614   5.158  0.0599  0.1831 -0.1009
18798W        W35272   1.803   1.277   2.053 -0.3616  0.1884 -0.4373
18799W        W35273  13.437   1.784  16.290 -0.1128 -0.0828 -0.0081
18800W        W35274   8.391   9.742  16.434  0.2654 -0.0259  0.1974
18801W        W35275   7.753  15.600  15.923 -0.1584  0.1453 -0.2564
18802W        W35276   8.422   5.475  12.094  0.1281  0.0210  0.3115
18803W        W35277   2.219  14.564  16.168  0.1771 -0.0850 -0.3807
18804W        W35278   1.259   8.195  15.733  0.2253 -0.0008  0.0155
18805W        W35279   9.172  12.034  14.331 -0.3537 -0.1033  0.0279
18806W        W35280   3.557   8.639  11.471 -0.1319  0.1217  0.0055
18807W        W35281   9.789   9.158   0.721 -0.2289  0.1868  0.0519
18808W        W35282  16.317  11.102  14.969  0.0428  0.1382  0.0719
18809W        W35283   8.918  17.507   4.064  0.2001  0.3507  0.0548
18810W        W35284   4.133  15.313  15.082  0.0282  0.0784 -0.1705
18811W        W35285  12.315  11.834  15.276 -0.0371 -0.1329 -0.1586
18812W        W35286   5.406  10.391  14.232  0.2313  0.0331  0.1543
18813W        W35287  10.067   1.010  14.067  0.0706  0.1784 -0.0372
18814W        W35288  11.232   0.417   3.893  0.1234  0.1310 -0.2329
18815W        W35289  10.074  12.675  12.382 -0.3291  0.3176 -0.0415
18816W        W35290   6.476   4.815  16.274  0.0363 -0.1950 -0.1661
18817W        W35291  16.723  10.964  14.162 -0.1156 -0.0206  0.0468
18818W        W35292   3.663  11.562   3.020  0.2355 -0.2335 -0.0472
18819W        W35293   5.044   4.196   2.055  0.0892  0.0677 -0.4718
18820W        W35294   2.761  15.500  11.297 -0.1697 -0.1422  0.0204
18821W        W35295  10.120   1.115  12.461 -0.3377  0.1389  0.1827
18822W        W35296  12.544   0.121   5.230 -0.3066  0.0425 -0.0844
18823W        W35297   6.838   7.397  15.563  0.1224 -0.0783 -0.2494
18824W        W35298  15.014  13.821   3.459 -0.0456  0.3940  0.2870
18825W        W35299   5.001  13.815   5.161 -0.0943 -0.0324 -0.0947
18826W        W35300  17.083   0.121   4.480  0.0209 -0.0557 -0.1787
18827W        W35301  11.497  17.754  11.875  0.0333 -0.3957  0.0826
18828W        W35302   7.526   0.553  13.010 -0.0762  0.2110 -0.0166
18829W        W35303   8.260   0.568  11.873 -0.1833 -0.2730 -0.3014
18830W        W35304  17.162  16.911  15.313  0.3992  0.1701  0.0774
18831W        W35305   3.385   9.314   4.376  0.2619  0.1341  0.0529
18832W        W35306   7.894   8.903   5.498 -0.1604 -0.3597  0.1091
18833W        W35307   6.722  14.068   3.145  0.0462 -0.1589  0.0825
18834W        W35308  11.492   4.353   2.557  0.1545  0.1576  0.0548
18835W        W35309  11.442  16.443   6.175 -0.1340 -0.0475  0.0834
18836W        W35310   1.851  12.715   3.317 -0.0172  0.2217 -0.3205
18837W        W35311   4.382   7.243  16.016 -0.1339  0.0158  0.2640
18838W        W35312  12.520   2.537  11.659 -0.0433 -0.1243 -0.1218
18839W        W35313  16.605  14.861  12.619  0.0901 -0.3515  0.0301
18840W        W35314   0.250   8.120  14.174  0.0953  0.0573  0.0377
18841W        W35315  14.269  16.798  12.322 -0.1056 -0.0453 -0.0667
18842W        W35316  13.232  13.020  12.414  0.1805  0.0383 -0.2444
18843W        W35317  12.633   2.784  16.529 -0.0216 -0.2987 -0.1510
18844W        W35318   3.304   6.866  13.537 -0.2298 -0.0815 -0.4386
18845W        W35319  13.990   4.836   3.468 -0.0666 -0.1630 -0.1296
18846W        W35320  17.057  12.920   2.680 -0.0618 -0.0579  0.2489
18847W        W35321  11.838   2.302  16.025  0.0922  0.1049 -0.0389
18848W        W35322   5.834  16.967   1.097  0.0560 -0.2872 -0.1996
18849W        W35323   5.398  15.979   4.164 -0.0162  0.2419 -0.1448
18850W        W35324  14.210  12.969  15.601 -0.3481  0.0486  0.1510
18851W        W35325   5.733  13.949   3.489  0.0511  0.0344  0.1746
18852W        W35326   0.061  12.170  11.205  0.0812 -0.2157 -0.0005
18853W        W35327  14.700   6.641   3.818  0.1391  0.0625  0.0428
18854W        W35328   0.459  17.995   0.569 -0.0842 -0.0676 -0.0463
18855W        W35329  17.008   9.855   3.814 -0.0272 -0.3620  0.0694
18856W        W35330  16.064  17.868   5.072  0.1207  0.1480 -0.0610
18857W        W35331  13.627  17.731   5.542 -0.2300 -0.1101  0.0235
18858W        W35332   9.788  15.875   2.383 -0.0565  0.0977 -0.1089
18859W        W35333   9.014  15.647   4.037  0.1842 -0.1970  0.0200
18860W        W35334   7.105  16.565  12.238 -0.2608 -0.0020 -0.2176
18861W        W35335  10.441  15.252   1.569  0.2366  0.1106  0.0789
18862W        W35336  16.653  14.443   3.686 -0.0713 -0.1693 -0.0659
18863W        W35337   4.698  17.526  16.274 -0.2521 -0.1163 -0.1954
18864W        W35338  15.557   0.793  14.116 -0.1922  0.2482 -0.0609
18865W        W35339  16.436  17.255  14.397 -0.1522 -0.1174 -0.1649
18866W        W35340   9.415   0.665  16.574 -0.0489  0.2868  0.0058
18867W        W35341  12.134  11.528   3.152  0.0952 -0.0587  0.0081
18868W        W35342  16.685   6.026   2.446 -0.1313 -0.1086  0.0316
18869W        W35343  11.347  14.620  14.619 -0.0476 -0.0475 -0.2480
18870W        W35344   7.585   1.530  12.216  0.0636 -0.2987  0.1798
18871W        W35345  11.418  11.061   0.433 -0.1600  0.1163  0.1892
18872W        W35346  12.889   1.585   2.093  0.1443  0.0629  0.0326
18873W        W35347   4.152  12.328   1.181  0.3065 -0.2990  0.0127
18874W        W35348   2.685  13.138  15.697  0.0318 -0.1213  0.0562
18875W        W35349   0.464   2.387  13.585 -0.3438  0.0812 -0.3920
18876W        W35350  15.470  14.847  11.523 -0.1154 -0.0439  0.0325
18877W        W35351  14.851   1.244  14.942  0.0429  0.1579  0.0257
18878W        W35352  10.893   8.760   0.399 -0.1068  0.0401 -0.2465
18879W        W35353   8.072   6.693   3.472  0.1320 -0.0822 -0.1028
18880W        W35354   6.236   2.351  11.175 -0.1362  0.2554 -0.0874
18881W        W35355  12.811  13.337  12.395  0.3123 -0.0788 -0.2255
18882W        W35356  11.372  12.001  11.827 -0.1925 -0.2701  0.1143
18883W        W35357  15.728   4.504   1.263 -0.0801 -0.1989 -0.1190
18884W        W35358   3.922  17.725   3.673 -0.2247  0.2679 -0.3348
18885W        W35359  14.205  12.238   2.307  0.1809 -0.1126  0.0310
18886W        W35360  12.885   8.540  16.741 -0.0875 -0.0277  0.0088
18887W        W35361   1.287  12.185   4.450  0.0820  0.3478  0.1649
18888W        W35362   0.679   9.647   3.633  0.0609  0.3875  0.0629
18889W        W35363   7.982  13.540   5.262  0.3863  0.0466 -0.0798
18890W        W35364   1.562  15.821   4.415 -0.0633  0.1732  0.1079
18891W        W35365   9.857  12.022  16.658  0.2721  0.3672  0.1707
18892W        W35366   3.804   8.033   5.432  0.0428  0.0265 -0.1125
18893W        W35367   8.055   3.700   4.374 -0.1978  0.0094  0.1740
18894W        W35368   3.634   2.990  14.809 -0.0037 -0.3005  0.0099
18895W        W35369  14.375  13.428  15.250 -0.0576 -0.0965  0.1247
18896W        W35370   7.028  14.784  16.568 -0.0469 -0.0912 -0.3298
18897W        W35371  15.882  14.603   3.221 -0.1622  0.0139 -0.2616
18898W        W35372  15.163   2.503   5.571 -0.1852  0.0517 -0.0716
18899W        W35373   6.811   7.101   1.149  0.2603 -0.1966 -0.2580
18900W        W35374   1.731   2.601   4.154 -0.2334  0.0649  0.4146
18901W        W35375   5.253  11.908  15.438 -0.0493 -0.1350 -0.0537
18902W        W35376   0.175   4.748   5.056  0.1405  0.3142  0.3393
18903W        W35377   1.000  10.042   2.958  0.2202  0.0377 -0.0459
18904W        W35378  17.590   3.496   1.458 -0.0992  0.1470 -0.0430
18905W        W35379  16.191   2.777  12.302 -0.1764  0.0165  0.1395
18906W        W35380   1.693  17.866  15.975  0.0167 -0.0999 -0.0583
18907W        W35381  17.600  13.106  15.822  0.1070 -0.1370  0.1543
18908W        W35382  13.922  14.500  12.223 -0.4800  0.1876  0.2258
18909W        W35383  15.606  11.720   1.608  0.0647  0.1704 -0.1423
18910W        W35384  11.616   2.072   6.449 -0.3611 -0.1037  0.4953
18911W        W35385  16.646  17.536   6.647  0.0977  0.3555 -0.0391
18912W        W35386  17.308  17.197  14.840  0.0077 -0.0324  0.0009
18913W        W35387  13.413   8.559   4.131  0.0530  0.0960 -0.1816
18914W        W35388   0.338   2.862  16.531 -0.0885 -0.0911  0.0486
18915W        W35389  12.760  10.532  13.678 -0.0030 -0.4324  0.0813
18916W        W35390   4.464   3.294  11.376  0.1615 -0.1463  0.0502
18917W        W35391   5.426   0.548  12.617  0.2604  0.4812  0.3338
18918W        W35392   1.151  16.385   0.725 -0.1296 -0.1033 -0.1729
18919W        W35393   4.383  10.514   4.933  0.2241 -0.3308  0.1806
18920W        W35394  12.918   5.674  12.893 -0.1631  0.0405 -0.0619
18921W        W35395  16.911  13.560   3.428  0.2253  0.0712  0.0008
18922W        W35396   7.457  11.594  14.034  0.0906  0.1466  0.1824
18923W        W35397   5.481   7.988   5.068  0.2222  0.3853 -0.2303
18924W        W35398  14.880   6.584  13.837  0.0761 -0.1048 -0.3052
18925W        W35399  12.493  16.821  13.723 -0.1244  0.2059  0.0609
18926W        W35400   7.615   0.049  12.868  0.0516 -0.2067 -0.0670
18927W        W35401  15.396   0.704   0.976 -0.4436 -0.1837  0.0652
18928W        W35402   5.253  13.319  11.866 -0.2621  0.0202 -0.0061
18929W        W35403  17.399   2.520  13.625 -0.1573 -0.1042  0.2596
18930W        W35404  17.819   4.141   4.385  0.0566  0.1573  0.0337
18931W        W35405   0.338  12.502   3.576  0.0155  0.2722  0.1082
18932W        W35406  15.447  17.953   4.309 -0.1604 -0.0018  0.1003
18933W        W35407   7.694  13.079   0.101  0.2082 -0.1642 -0.2078
18934W        W35408   7.839  15.993  13.085  0.2545 -0.0364 -0.2318
18935W        W35409  14.846  14.656   4.972 -0.0028 -0.0830 -0.1041
18936W        W35410  12.379   5.963  14.965 -0.1857  0.1587  0.0751
18937W        W35411   2.595   9.682  16.531  0.3180  0.2632  0.1446
18938W        W35412  16.742  14.397  13.383  0.2001 -0.1835 -0.0134
18939W        W35413  10.237   2.402  15.712 -0.0998 -0.4080  0.2367
18940W        W35414  17.679   9.141  14.415  0.0236  0.0486 -0.2117
18941W        W35415   9.465  16.568   0.688 -0.3317 -0.0387  0.3492
18942W        W35416  15.609   0.882  16.688 -0.2049 -0.2318 -0.1516
18943W        W35417  17.877   7.442   5.352  0.0877 -0.2007  0.2126
18944W        W35418  13.517  13.404  13.763 -0.3129  0.4488 -0.0941
18945W        W35419   3.148   0.142  12.877  0.2837  0.1701 -0.1751
18946W        W35420   9.274  14.399   4.150 -0.2887  0.0265  0.1244
18947W        W35421  16.012   4.980  12.373  0.1188  0.1278  0.0955
18948W        W35422  14.469  17.505  15.386  0.1337  0.1248 -0.0714
18949W        W35423  17.965   7.890   3.034 -0.0023 -0.0124 -0.0517
18950W        W35424   5.488   2.491  15.736  0.3238  0.0790 -0.1127
18951W        W35425   0.674   3.911   2.786 -0.0880 -0.0848  0.1834
18952W        W35426  17.091   8.341   2.405  0.1723 -0.1923  0.3071
18953W        W35427   6.775  16.025   3.289 -0.0089 -0.0039 -0.1936
18954W        W35428   3.964   8.938   0.550 -0.1593  0.0405 -0.0744
18955W        W35429   8.025  11.538  16.449  0.2300  0.0381 -0.2396
18956W        W35430  11.862   2.950  14.823  0.3005 -0.0325 -0.0063
18957W        W35431  12.347  12.724  15.421 -0.0962  0.0473  0.0075
18958W        W35432  11.579   6.601  14.144  0.2743  0.2804  0.1446
18959W        W35433  13.335  14.145  14.189  0.0012  0.0971 -0.1233
18960W        W35434  12.452   9.213  15.209  0.2118 -0.0535 -0.3426
18961W        W35435  15.832  11.608   3.962 -0.1991 -0.1521  0.0698
18962W        W35436  14.438   3.561   3.191  0.3198 -0.0542  0.1690
18963W        W35437   8.746  16.498   0.430  0.1246 -0.3458 -0.0047
18964W        W35438  11.104   7.588   2.971  0.0649  0.1396 -0.0869
18965W        W35439  17.449  17.804   2.745  0.0305  0.0974  0.4141
18966W        W35440   2.155   6.327  14.996 -0.0043 -0.0554  0.0566
18967W        W35441   4.894  14.791  11.444  0.1083 -0.2267 -0.1252
18968W        W35442   1.466  11.888   2.490  0.1286 -0.1904  0.0099
18969W        W35443   7.404  11.562  15.249  0.1924  0.3745  0.1281
18970W        W35444  10.954   3.889   0.025  0.2360  0.2150  0.1041
18971W        W35445  12.224   8.661  11.852 -0.0360 -0.0912 -0.1872
18972W        W35446  13.589  15.262  15.944  0.0392  0.0293  0.1085
18973W        W35447  15.784  10.408  14.350 -0.0362 -0.0986 -0.0995
18974W        W35448  10.423  15.306   1.060  0.2768 -0.1403  0.0593
18975W        W35449  15.260   2.761   2.132 -0.2567 -0.0544  0.0057
18976W        W35450   5.651   1.607   0.663  0.0903  0.1622 -0.0463
18977W        W35451   2.638   1.953   6.039 -0.0489  0.0913  0.1613
18978W        W35452   1.149   7.560  16.495 -0.0549 -0.3790  0.0013
18979W        W35453   5.833  15.495  11.148 -0.0800  0.1256 -0.2217
18980W        W35454   1.764   2.344   5.679 -0.1061 -0.0949  0.1612
18981W        W35455   0.663  17.763  13.541 -0.0087  0.6611  0.1940
18982W        W35456  13.999   4.387  14.071 -0.0950  0.0902  0.0637
18983W        W35457  12.876  12.003   5.455 -0.0824  0.1822  0.1591
18984W        W35458   4.823   3.223  15.988  0.0241  0.0035  0.1813
18985W        W35459  11.288  12.050   3.398 -0.0234  0.1642  0.0530
18986W        W35460   4.036   4.448   0.709 -0.0256  0.2309 -0.0995
18987W        W35461  15.918  17.896   6.134 -0.1433 -0.1372 -0.2371
18988W        W35462   2.144   7.190  14.047 -0.0304  0.1663  0.1854
18989W        W35463  15.221   0.940  12.223 -0.0785  0.0939  0.0774
18990W        W35464  17.038  17.482  11.868  0.0312 -0.0937  0.0514
18991W        W35465   5.555   4.842   2.813  0.2064  0.1352 -0.1612
18992W        W35466   4.829   4.800   1.233  0.1205 -0.0682  0.0454
18993W        W35467  14.339   8.922   2.101 -0.0677 -0.0383  0.2124
18994W        W35468  17.825  10.388   0.538  0.1598  0.2737  0.0023
18995W        W35469   9.389  11.735   0.001  0.0510  0.1970 -0.0257
18996W        W35470  14.612  12.836   0.911 -0.1332  0.1730 -0.0279
18997W        W35471  14.168   1.184   5.199  0.1797  0.0133  0.2684
18998W        W35472   6.343   7.897   2.282 -0.1686  0.0436 -0.0868
18999W        W35473   9.102   9.057   3.305 -0.1505  0.2524 -0.4858
19000W        W35474  10.585  14.652  13.884 -0.2348 -0.4629  0.2256
19001W        W35475   6.649   0.551  14.144  0.0951 -0.1465  0.2549
19002W        W35476   6.234   3.281   5.360  0.0682 -0.0252  0.0285
19003W        W35477   9.223  11.523  13.510  0.1084 -0.0294  0.3334
19004W        W35478   4.403  14.269   2.400 -0.0706  0.0446  0.0121
19005W        W35479   5.449  14.245   0.203 -0.0378  0.0495 -0.0314
19006W        W35480  10.805   3.492  11.847 -0.0009 -0.2250  0.0778
19007W        W35481  11.633   1.431  12.295  0.1511 -0.1110  0.1811
19008W        W35482   2.330   1.527  16.034  0.0458  0.0902  0.1920
19009W        W35483  10.945   7.141   3.750 -0.0254  0.0386  0.0965
19010W        W35484   7.546  17.330   4.914 -0.2278 -0.1107  0.0291
19011W        W35485  17.798  11.852   4.196  0.2642 -0.0558  0.0990
19012W        W35486   5.526   1.168   4.252 -0.1712  0.3605 -0.3816
19013W        W35487   5.454   6.817  11.683 -0.3365 -0.1430 -0.0894
19014W        W35488   3.403  11.283  11.543  0.0775  0.1683  0.2760
19015W        W35489  16.149   0.184   4.040  0.2452 -0.2031  0.0829
19016W        W35490  16.884   1.474   5.614  0.1637 -0.4172 -0.0456
19017W        W35491  16.421  16.512  13.706  0.0202 -0.0747  0.0250
19018W        W35492  15.736   8.790  14.313  0.0063 -0.1071  0.0031
19019W        W35493  16.492   0.547   1.339 -0.2959 -0.0248 -0.0791
19020W        W35494   4.360   5.159  11.954 -0.0963  0.2370 -0.1175
19021W        W35495  13.880   3.298  16.037  0.0650 -0.3740 -0.2243
19022W        W35496  15.696  13.380  13.774  0.2444 -0.0528  0.0299
19023W        W35497   3.784  17.653  15.949 -0.0960 -0.0258  0.2723
19024W        W35498   5.660   9.091   2.489 -0.1479 -0.0977  0.3395
19025W        W35499  17.637   5.878  16.322  0.2338  0.0861  0.0161
19026W        W35500  14.699   1.120  11.475 -0.1114  0.3029 -0.0110
19027W        W35501  14.742  12.451   4.816 -0.1679  0.1522  0.3146
19028W        W35502   5.970   0.450  13.564  0.1826 -0.0268  0.0748
19029W        W35503  16.417   5.065   3.522 -0.1081  0.0071  0.3311
19030W        W35504  15.330  11.885   3.798  0.0386  0.3045  0.1767
19031W        W35505   0.029   2.662  16.175 -0.0292 -0.2007  0.0631
19032W        W35506  14.876   4.622  13.085  0.2106 -0.2376  0.0503
19033W        W35507   2.040   8.499   1.854 -0.1520  0.2026 -0.0055
19034W        W35508  13.021   1.487   6.380 -0.0344  0.1423  0.1378
19035W        W35509   9.181   3.485   0.214 -0.2599  0.1797 -0.1018
19036W        W35510  15.910   3.125   2.993 -0.0150 -0.0083  0.2547
19037W        W35511   4.639   8.430  14.269 -0.1957 -0.0796 -0.2603
19038W        W35512  17.052   7.804   1.417  0.0110 -0.0544 -0.0262
19039W        W35513   1.284   8.988  16.494  0.0749  0.0864  0.1556
19040W        W35514   4.663   9.688  11.662 -0.2178 -0.0642  0.0423
19041W        W35515   9.064   5.589   3.761  0.0203 -0.1978 -0.2782
19042W        W35516   1.940   9.270   2.968 -0.3030  0.0847  0.1229
19043W        W35517  17.667  11.872   3.334  0.1981 -0.2198  0.2393
19044W        W35518   6.629   1.244  10.265 -0.0463 -0.0943  0.1477
19045W        W35519   0.505   0.673  15.632 -0.1811  0.0628  0.4068
19046W        W35520   3.175   8.405  14.789  0.0504  0.0824 -0.1244
19047W        W35521   0.306  15.750  12.914  0.1125  0.3007  0.0150
19048W        W35522   1.164   3.811  12.751  0.0786  0.1982 -0.1137
19049W        W35523   1.737  12.103  16.184  0.1708 -0.2577  0.3406
19050W        W35524  11.343   6.293  12.562 -0.0258 -0.0371 -0.0746
19051W        W35525   1.057  14.619   4.620 -0.0070  0.0447 -0.1590
19052W        W35526  15.545   4.027   1.476  0.0323  0.0082 -0.0700
19053W        W35527  15.495   2.350   0.533  0.1156 -0.2193  0.0888
19054W        W35528   8.911  13.329  15.461  0.0554  0.3563 -0.0854
19055W        W35529  15.522   4.150   4.052 -0.3582  0.0782  0.1471
19056W        W35530   8.085   6.754   5.179  0.1516 -0.2181 -0.1440
19057W        W35531   2.043   5.236  14.245 -0.2095 -0.0984  0.0517
19058W        W35532   0.847   9.330  13.759 -0.1521 -0.1431 -0.0564
19059W        W35533  10.993   2.566  12.122  0.2908 -0.0728 -0.0213
19060W        W35534  12.680   8.474  14.323  0.1301 -0.4185  0.1609
19061W        W35535  15.894  16.583  12.419 -0.1283  0.0814  0.0696
19062W        W35536  11.184   2.190  16.246 -0.2359 -0.0782 -0.1240
19063W        W35537   4.423   2.302   2.684  0.0956  0.0859 -0.1253
19064W        W35538   4.392   9.794  15.124  0.0032  0.3524  0.2023
19065W        W35539  16.312   7.598  16.577 -0.0153  0.1621 -0.0732
19066W        W35540  13.322  10.875  16.476 -0.0059 -0.1346 -0.0809
19067W        W35541  10.618   4.313   0.635 -0.4136  0.3583 -0.2653
19068W        W35542   4.801   4.689   4.037 -0.1894  0.0099 -0.3641
19069W        W35543   0.924   1.989  14.430 -0.0676 -0.0964  0.1448
19070W        W35544   2.347  12.320   0.264  0.0237 -0.0293  0.2626
19071W        W35545   9.361  12.908   1.689 -0.1924 -0.0063 -0.2244
19072W        W35546  15.736   4.516  12.163  0.0139 -0.1828 -0.0485
19073W        W35547   8.179   6.008   2.965 -0.1635  0.0747  0.2995
19074W        W35548  14.663  16.236  15.770  0.2747 -0.0241  0.1165
19075W        W35549  13.067   7.784  12.902  0.1223  0.2018  0.1129
19076W        W35550   6.940   6.990   2.051  0.0683  0.1306 -0.1655
19077W        W35551  13.902  10.721   3.574 -0.2825 -0.0044  0.0692
19078W        W35552   8.423  11.172  14.032 -0.3223 -0.0422 -0.2618
19079W        W35553   0.333  14.568   3.521  0.1548  0.0089 -0.1615
19080W        W35554   6.180   5.166  16.442 -0.1408  0.0728  0.0923
19081W        W35555  17.476   0.233   2.170 -0.2127  0.0228 -0.0545
19082W        W35556   1.529  17.193   5.145 -0.1413  0.2173  0.1914
19083W        W35557  13.437  10.346   0.427 -0.0008  0.0086 -0.4555
19084W        W35558  16.143  15.241   5.106 -0.1358  0.1404 -0.2463
19085W        W35559  15.980   4.954  12.852  0.1017 -0.1798  0.1891
19086W        W35560   9.139  10.183   2.546  0.1015  0.2567  0.0522
19087W        W35561   8.559   4.577   1.885 -0.0959  0.1168  0.1938
19088W        W35562   7.966   0.008   4.490 -0.0194  0.0243 -0.1104
19089W        W35563   1.592  11.001  15.799 -0.2821 -0.4604  0.0270
19090W        W35564  15.615  14.969  14.874 -0.0594  0.0685  0.2924
19091W        W35565  11.364   0.938  13.002  0.0671  0.0122 -0.0966
19092W        W35566   8.518  17.209  15.759 -0.0763  0.0959  0.0431
19093W        W35567   2.423  16.539   3.498 -0.0018  0.0647  0.3013
19094W        W35568   5.447   0.757   1.227  0.3874 -0.4102  0.0416
19095W        W35569   0.721   3.489  11.219  0.2812 -0.0923 -0.2877
19096W        W35570  13.412   9.238   2.201 -0.1279  0.3715  0.1408
19097W        W35571  16.289   0.704   5.703 -0.0888  0.0684 -0.3991
19098W        W35572  10.439   8.187  14.268  0.0469 -0.3932 -0.0891
19099W        W35573  13.720  13.226  15.917  0.1517 -0.0488  0.0506
19100W        W35574  11.319   3.182  16.061  0.1006 -0.2870 -0.0204
19101W        W35575  14.629   8.309  11.905  0.0831  0.0854 -0.1431
19102W        W35576  15.496   5.249   6.071 -0.2408  0.1342  0.0652
19103W        W35577   4.956   8.696   2.080 -0.1786 -0.1722 -0.2509
19104W        W35578  13.831  16.266  13.934  0.1006  0.0306  0.2525
19105W        W35579   7.186  14.089  11.295 -0.1180  0.0303 -0.2654
19106W        W35580  16.679  12.497  15.937 -0.1467  0.1279  0.4255
19107W        W35581   2.113   9.153   0.874 -0.1931 -0.0099 -0.2025
19108W        W35582   4.743  11.046  12.756  0.0018  0.0233 -0.0435
19109W        W35583   7.641   1.019  13.509  0.2623 -0.0143 -0.0009
19110W        W35584  10.903   6.128  16.454  0.2544  0.3481 -0.0838
19111W        W35585  10.273  16.843  15.251  0.1825  0.2345 -0.1214
19112W        W35586   5.875   0.655  15.861  0.2017 -0.1204  0.2367
19113W        W35587   8.058  14.820  15.982 -0.2122  0.0105 -0.2410
19114W        W35588  12.933  14.226   0.388 -0.1952  0.4291  0.0233
19115W        W35589  11.056   7.780  12.131  0.1125  0.3442 -0.1701
19116W        W35590   4.489  13.224  16.036 -0.1695 -0.0712 -0.3390
19117W        W35591  17.323   8.828   1.510  0.0304  0.1397  0.1649
19118W        W35592  10.069  14.275  11.722  0.3763  0.0407  0.0573
19119W        W35593   5.352  15.134   4.613 -0.1529  0.2645 -0.4034
19120W        W35594   6.721   4.308  15.887 -0.0898 -0.1502  0.0103
19121W        W35595   7.038  15.014   1.136  0.1940 -0.0181 -0.0256
19122W        W35596  10.908   9.497  14.353  0.4071 -0.0011  0.1800
19123W        W35597  15.570   6.915  16.721 -0.1188 -0.1022 -0.2124
19124W        W35598  15.809   8.689  12.086 -0.0862 -0.0802  0.2706
19125W        W35599   5.263   9.423   0.911  0.0215  0.2204  0.1074
19126W        W35600   2.243  10.517  13.275 -0.0220 -0.1061  0.0177
19127W        W35601   3.001  14.126  11.557  0.0369  0.3528  0.0643
19128W        W35602   0.292  17.656  12.858 -0.1130  0.1112  0.1126
19129W        W35603  12.273  14.666  14.942  0.2819 -0.0122 -0.1966
19130W        W35604   6.469   8.976   1.973  0.0582  0.0591 -0.0470
19131W        W35605   0.573  11.893  13.372  0.1037  0.1270  0.1993
19132W        W35606   6.628   8.630  11.630 -0.0804  0.0967 -0.0976
19133W        W35607   6.194   9.258   0.058 -0.2520  0.4164 -0.0015
19134W        W35608  11.706   4.034  11.724 -0.4014 -0.0731 -0.0751
19135W        W35609   2.102  17.856   5.318 -0.0760  0.0829  0.1271
19136W        W35610   9.753   5.935   1.169  0.3810 -0.1850 -0.0481
19137W        W35611   9.323  16.046   2.805 -0.1397  0.2509 -0.0405
19138W        W35612   3.849   9.572  11.278 -0.2328 -0.0147  0.0963
19139W        W35613  14.391  14.186   1.175 -0.2609  0.0269  0.0301
19140W        W35614  12.522   2.191   3.578  0.1652  0.0190  0.2487
19141W        W35615   3.491   7.781  10.998  0.0998  0.1107 -0.2710
19142W        W35616   0.765   2.614   5.371  0.1368  0.0133 -0.0631
19143W        W35617   3.305   7.727  11.540  0.1584 -0.0579 -0.1891
19144W        W35618  17.829   6.819  16.283  0.3069 -0.0924  0.1880
19145W        W35619  10.931  13.590   2.129 -0.0240  0.1072  0.1535
19146W        W35620   8.991   8.698   5.911 -0.2020 -0.0661 -0.2473
19147W        W35621  15.363   3.536   1.697 -0.1102 -0.2072 -0.0999
19148W        W35622  10.259  10.318  16.198  0.4174  0.0645 -0.0678
19149W        W35623   0.926   3.140   4.404 -0.0378  0.4347  0.0999
19150W        W35624  16.900  12.561   5.519  0.4894  0.0986 -0.0464
19151W        W35625   5.761   3.268  12.653 -0.0384  0.0642 -0.2017
19152W        W35626   1.755   2.968   1.600  0.3103 -0.2660  0.1030
19153W        W35627   0.260  16.669   4.950 -0.0265 -0.0918  0.0363
19154W        W35628   9.526   6.602   1.714 -0.0050  0.2012 -0.3625
19155W        W35629   6.325   2.204  15.473 -0.0022  0.1691  0.3804
19156W        W35630  15.377  16.892  13.697 -0.2169 -0.3267 -0.2228
19157W        W35631   3.099  14.776   0.369 -0.0898 -0.0128  0.0755
19158W        W35632   1.913  12.273  14.734 -0.0749  0.1456  0.0897
19159W        W35633   4.247  17.007   1.296 -0.3252  0.1481  0.3539
19160W        W35634  16.351  17.813   4.539 -0.4825  0.1542 -0.1171
19161W        W35635   8.964  11.836   4.947 -0.2442 -0.1160 -0.3065
19162W        W35636   9.214  10.719   2.268  0.2312 -0.3918 -0.2016
19163W        W35637  15.399   6.520   3.163 -0.5533  0.1737 -0.1754
19164W        W35638   1.667   8.633   1.041 -0.1993 -0.1255 -0.0042
19165W        W35639   8.559  10.916  12.749 -0.1432  0.1544 -0.0636
19166W        W35640  16.305   1.055   0.131  0.3611  0.0282  0.1989
19167W        W35641   7.760  11.911   1.299  0.2763 -0.2336  0.0158
19168W        W35642  15.015  15.228   2.496 -0.2156 -0.2567 -0.0164
19169W        W35643  10.850  17.888   1.516 -0.1893  0.0960 -0.0935
19170W        W35644  10.116   5.837   4.678  0.2138  0.2409 -0.2054
19171W        W35645   9.024  11.448   0.537  0.2247  0.0920 -0.1389
19172W        W35646   3.201  13.147   3.653  0.0210 -0.0086 -0.1743
19173W        W35647  16.724   7.527  11.923 -0.3063 -0.0305 -0.0706
19174W        W35648   5.232  10.048  12.823  0.0160  0.1316  0.1371
19175W        W35649  16.977   3.380   3.749 -0.0978 -0.0906  0.0019
19176W        W35650   9.356   2.820  14.175 -0.0095  0.0317  0.0561
19177W        W35651   3.019  17.318   5.188  0.0029  0.1665 -0.0140
19178W        W35652  10.741   4.265   6.056 -0.0031 -0.0850 -0.0334
19179W        W35653   8.810   4.772   4.551 -0.0164 -0.1734  0.0428
19180W        W35654   0.765  17.932   3.289  0.0044  0.0201 -0.0112
19181W        W35655   3.012  11.047  11.719 -0.1522 -0.2233 -0.0460
19182W        W35656   1.376  14.612   2.127  0.1620 -0.3731  0.3260
19183W        W35657   9.636   9.837  16.614 -0.1627 -0.0114 -0.0589
19184W        W35658   4.024  15.004  11.840 -0.2091  0.1579 -0.1881
19185W        W35659  14.130  16.454   2.983  0.2465  0.0421  0.0029
19186W        W35660  17.007   7.074   1.101  0.2397  0.0501 -0.3269
19187W        W35661   0.262  16.165   4.963  0.1299  0.0174  0.0602
19188W        W35662  12.612   6.548   1.266 -0.1457 -0.0416 -0.2203
19189W        W35663   3.861   5.605  13.014  0.0188  0.2788 -0.0968
19190W        W35664   3.957   6.667   1.057  0.0959  0.0602 -0.0516
19191W        W35665   2.129   5.412  15.270  0.1069 -0.1115  0.0783
19192W        W35666   0.940   8.399   2.262  0.2680  0.4441  0.1619
19193W        W35667  17.096  13.971   5.097  0.2127  0.1834 -0.0718
19194W        W35668  11.636   7.390   5.165  0.5016 -0.1149 -0.1134
19195W        W35669   3.325   3.077  16.672 -0.1281  0.0428  0.1053
19196W        W35670  10.187  14.388   2.993 -0.1393  0.0357 -0.1721
19197W        W35671  13.982  15.090  15.641  0.3276  0.1127 -0.1594
19198W        W35672   8.901  12.672  16.129  0.4698  0.1088  0.0221
19199W        W35673  10.213   4.425   0.446  0.0396  0.0090  0.0611
19200W        W35674  14.145  13.776   4.669  0.2038  0.0019  0.2269
19201W        W35675  15.588   3.877  16.115  0.1674  0.3132 -0.1174
19202W        W35676   5.186  10.597   1.696  0.1629 -0.0336 -0.1732
19203W        W35677   4.386   4.151   0.945  0.1545  0.1048  0.0016
19204W        W35678  13.212   6.668  14.077 -0.2545 -0.1169  0.0870
19205W        W35679  16.911  15.718  14.573 -0.2896 -0.2061 -0.0520
19206W        W35680   9.300  13.064  12.569  0.2241  0.2308  0.0758
19207W        W35681   5.209   5.936   1.283  0.1095  0.0394 -0.1243
19208W        W35682   0.983  15.365  13.687  0.0740 -0.0901  0.2921
19209W        W35683  17.001   6.187   3.927 -0.1753  0.0414  0.1540
19210W        W35684  17.364  16.694   5.192  0.1007 -0.2351  0.1151
19211W        W35685  16.531   3.155   1.186  0.0056 -0.0524  0.1400
19212W        W35686   2.525  13.494  14.345  0.0505 -0.1889 -0.1371
19213W        W35687   8.102  10.040   2.345 -0.0854  0.2286  0.0743
19214W        W35688   0.824  17.814   1.461  0.1562 -0.4136 -0.1371
19215W        W35689   5.851   3.315  15.236 -0.0615  0.2458  0.1997
19216W        W35690   8.615   3.766   0.576  0.3028  0.0670  0.0353
19217W        W35691   0.693   3.086  14.623 -0.0628  0.2731  0.1857
19218W        W35692   5.144  17.801   1.737 -0.1296  0.1792  0.0840
19219W        W35693  10.603  17.873   0.025  0.2237  0.1868 -0.0463
19220W        W35694  16.725  17.521  16.170  0.0546 -0.3049 -0.0626
19221W        W35695   6.068   3.206   1.140  0.0207  0.0117  0.4035
19222W        W35696  10.125  15.702   4.161  0.0988 -0.0726  0.0092
19223W        W35697   0.116  13.711  14.552  0.0016  0.1046  0.0596
19224W        W35698  11.901  17.921   6.154 -0.3123 -0.0311  0.0910
19225W        W35699   7.332   0.369  11.767 -0.0401  0.0207 -0.3822
19226W        W35700  15.489  15.530   2.826  0.1613  0.2770 -0.2422
19227W        W35701   4.715  16.023   3.696  0.1312 -0.0635  0.1046
19228W        W35702   0.392   2.015  11.710 -0.1848 -0.2461  0.0368
19229W        W35703   4.364   8.294   5.213  0.2095 -0.0408  0.1317
19230W        W35704   0.794  17.738  12.645  0.0852 -0.1805 -0.1099
19231W        W35705  12.039  13.906  13.879  0.0638 -0.4003 -0.0965
19232W        W35706   3.390   8.903  14.087 -0.1961 -0.0557 -0.2558
19233W        W35707  16.127   9.628  14.719  0.0418  0.1033 -0.1809
19234W        W35708  15.912   4.158  11.863  0.1639  0.0044 -0.1031
19235W        W35709   8.870   2.116   4.388  0.0587 -0.1232 -0.0235
19236W        W35710  15.776  16.475   4.637 -0.1302 -0.1626 -0.1264
19237W        W35711   3.371  10.251  11.874  0.2846  0.0544 -0.3347
19238W        W35712  10.561   9.979   4.514  0.0228  0.4651 -0.0653
19239W        W35713   2.931  16.650  15.336 -0.1483 -0.3481 -0.3496
19240W        W35714   7.882  10.098  12.025  0.2629 -0.0178 -0.2315
19241W        W35715  15.028   9.789  14.345  0.0491  0.1564 -0.0171
19242W        W35716   6.381   5.935   5.398 -0.0597  0.2456  0.0525
19243W        W35717   2.832  15.386  16.521 -0.0411 -0.0196  0.1921
19244W        W35718  13.949  15.078  14.103 -0.3340 -0.1638  0.2346
19245W        W35719  11.140   4.333   1.047  0.0152  0.4218 -0.1701
19246W        W35720   4.823  16.199   1.487 -0.0876  0.0505 -0.1013
19247W        W35721  15.735  16.210   0.635 -0.3547 -0.0070  0.0590
19248W        W35722  12.023   4.287  12.519  0.1690 -0.2212 -0.0217
19249W        W35723  15.835  15.532   5.439  0.2308  0.2297 -0.1615
19250W        W35724  11.293   2.133   2.062 -0.1474  0.1608  0.2668
19251W        W35725  14.548   8.742   3.586 -0.1449 -0.1202  0.1071
19252W        W35726  14.209  11.025   4.299  0.0901 -0.0903  0.0483
19253W        W35727   1.089  17.098  14.086 -0.3899 -0.1329  0.1186
19254W        W35728  10.491  14.656   2.711 -0.1180  0.4162  0.1197
19255W        W35729   4.242  10.000   0.708 -0.2301  0.2668 -0.2759
19256W        W35730  16.735  15.562  15.606 -0.1553  0.0175  0.0391
19257W        W35731   9.525  12.547  15.210  0.3495 -0.1778 -0.0077
19258W        W35732  10.111  17.115   5.292  0.2199  0.0748  0.2862
19259W        W35733   1.879   2.955   4.668  0.0067  0.1716  0.1200
19260W        W35734  13.085  15.046   5.705 -0.0566 -0.0427 -0.1586
19261W        W35735  16.778  11.345  11.984  0.1123 -0.0425  0.3414
19262W        W35736  17.725   4.147   1.569 -0.3087  0.1817  0.0015
19263W        W35737  12.416  17.678   3.978 -0.0235 -0.0568 -0.1730
19264W        W35738  13.727   2.139  14.487  0.0757  0.0103 -0.5236
19265W        W35739   7.864  13.054  12.904  0.2735 -0.1606 -0.2096
19266W        W35740   6.869  12.804   2.454 -0.2360 -0.2726 -0.0115
19267W        W35741   8.489   8.031  14.812  0.0928 -0.0479 -0.1052
19268W        W35742  10.603   3.611   5.529 -0.1434  0.3159 -0.5958
19269W        W35743  12.738   4.781   1.799 -0.0409  0.3167  0.3133
19270W        W35744   2.876   3.618  12.403  0.3429 -0.2968 -0.3127
19271W        W35745  12.259   9.517   2.996 -0.0253 -0.4863  0.0110
19272W        W35746  14.383  16.474  13.130  0.1791 -0.1160  0.0055
19273W        W35747   0.070   7.923  12.925 -0.1078 -0.0733  0.2251
19274W        W35748  11.296   6.833  15.961 -0.0528 -0.0607  0.3536
19275W        W35749  16.753  13.533   2.076 -0.0809  0.0205 -0.0490
19276W        W35750   0.863  11.109   1.030  0.2347  0.0650 -0.4053
19277W        W35751   5.195   9.903  14.198  0.0273  0.0775 -0.0749
19278W        W35752  11.659   5.139   2.031 -0.0803 -0.5084  0.1723
19279W        W35753  14.495  12.014  15.705  0.1009  0.0317  0.1169
19280W        W35754  13.487  12.434   5.539 -0.1728 -0.1777 -0.1302
19281W        W35755  12.246   1.801  13.803  0.1900 -0.0502  0.0161
19282W        W35756  17.978   6.242   6.269 -0.0614  0.0201  0.1117
19283W        W35757   8.788   2.100  12.277  0.1693 -0.1475 -0.2349
19284W        W35758  13.117   1.620  16.679 -0.0037  0.1942 -0.2375
19285W        W35759   5.173  11.822  16.539  0.0772  0.1391 -0.1400
19286W        W35760   4.845   4.042  15.025 -0.0976  0.0619  0.1283
19287W        W35761  15.834   9.291   0.035  0.1115  0.2948  0.1727
19288W        W35762   3.196  17.996  16.422 -0.1666  0.0701 -0.0185
19289W        W35763   0.218   4.972  12.963 -0.1656  0.0492  0.0859
19290W        W35764   6.544   4.030  15.431 -0.1102  0.2801  0.2516
19291W        W35765  10.222   9.596  13.096  0.0893 -0.4531 -0.3085
19292W        W35766   5.573   0.257  13.368  0.1996  0.2732 -0.0054
19293W        W35767  10.016   4.049  14.145  0.1997  0.2638 -0.3884
19294W        W35768  17.014  17.450   0.373 -0.1761  0.0089  0.0628
19295W        W35769  12.290  14.109  15.591 -0.1144 -0.2860  0.0783
19296W        W35770  11.661  12.477  11.759  0.0375 -0.1166 -0.1208
19297W        W35771   8.268  15.406  14.728  0.1077 -0.1001 -0.1098
19298W        W35772  17.679   1.615   5.069 -0.0099 -0.1569 -0.0638
19299W        W35773   3.717   8.510  14.870 -0.4228  0.3422  0.1075
19300W        W35774   1.762  14.641  11.630 -0.0939  0.1264 -0.1158
19301W        W35775   3.234  15.282  11.285  0.0157 -0.1813  0.0603
19302W        W35776   2.804  11.496   1.898  0.1912  0.1406 -0.2175
19303W        W35777   4.824  15.487  16.583  0.1144  0.0830  0.2134
19304W        W35778   4.829   0.261   1.049 -0.0851  0.0342  0.0012
19305W        W35779   2.970  15.084   3.579  0.3211  0.1651  0.1811
19306W        W35780  16.852   7.167   4.569 -0.1971  0.2933 -0.1231
19307W        W35781   8.524   1.821   3.149 -0.2041 -0.0990  0.1221
19308W        W35782  13.109  11.087  16.019  0.2673 -0.2691 -0.1027
19309W        W35783   5.969  15.425   1.315  0.0482 -0.1982 -0.0481
19310W        W35784   2.665   5.559   1.223 -0.2118  0.2407 -0.3366
19311W        W35785   6.221  12.253  16.507  0.1008  0.0620 -0.1483
19312W        W35786   9.978   7.144  12.223  0.0455  0.1398  0.1064
19313W        W35787  16.220  17.616   2.327  0.0715 -0.1566 -0.4817
19314W        W35788   6.411  17.135   4.522  0.1447 -0.3001 -0.0551
19315W        W35789  11.065   1.944  12.856 -0.2538  0.0000 -0.0213
19316W        W35790  14.725  16.257   3.957  0.0754  0.1929  0.1383
19317W        W35791   1.801  15.223  13.826  0.0748 -0.2035  0.0121
19318W        W35792  15.562  16.642  11.710  0.2637 -0.0348  0.0671
19319W        W35793  15.233   6.018  15.772  0.2835 -0.0382  0.2188
19320W        W35794   5.605   6.110   3.468 -0.2400  0.2072  0.2128
19321W        W35795   8.561   7.820   6.049  0.4448  0.5553  0.1105
19322W        W35796   4.487   0.128   4.243 -0.1939  0.0997  0.0669
19323W        W35797   1.870   4.832  15.191 -0.1708  0.1627 -0.2127
19324W        W35798   1.783   8.493  13.351 -0.0952  0.0388  0.0453
19325W        W35799   2.155  10.808   3.343  0.0929 -0.0849  0.1196
19326W        W35800  11.065   4.430   5.584  0.3688 -0.2951  0.2687
19327W        W35801   2.815  10.614  11.067  0.0818 -0.0262  0.0074
19328W        W35802   5.389   1.141   2.744  0.0066  0.1076  0.2618
19329W        W35803  10.126  11.971  14.560  0.2705 -0.2443 -0.2981
19330W        W35804   4.565   2.625   2.388  0.1148 -0.3417 -0.0173
19331W        W35805  12.633  12.048   4.565 -0.2187  0.4866 -0.0776
19332W        W35806  17.710   8.331   4.725 -0.2200 -0.2160 -0.3091
19333W        W35807  14.122   1.738   1.794 -0.2293 -0.1717 -0.4668
19334W        W35808   2.528   7.535   0.582 -0.1536 -0.2199 -0.1181
19335W        W35809  11.986  12.215   5.014  0.2372  0.0334  0.4847
19336W        W35810   5.787  16.452   0.824  0.0741 -0.4872 -0.1154
19337W        W35811   1.385   2.453   2.868  0.2115  0.1705 -0.0710
19338W        W35812   2.082   7.988   4.113  0.0472  0.1388 -0.3713
19339W        W35813  17.176   4.047   2.955  0.2086  0.0609 -0.1203
19340W        W35814  13.550  10.034  13.485 -0.0721  0.1174 -0.0892
19341W        W35815   2.700   0.254   5.037  0.0886 -0.1482 -0.1407
19342W        W35816  14.323   0.847  15.556 -0.1625 -0.0666 -0.1825
19343W        W35817   7.942   9.811   3.131 -0.0837 -0.1006  0.0371
19344W        W35818   4.285   0.203  16.739  0.1918  0.0802 -0.1823
19345W        W35819  12.490   0.785   1.201 -0.1855 -0.4725 -0.2856
19346W        W35820   8.418  17.961  11.310  0.0505  0.0334 -0.0835
19347W        W35821  11.972   7.308   4.648  0.1649 -0.0569 -0.1037
19348W        W35822   4.411   7.314   1.057  0.0840 -0.1177  0.3428
19349W        W35823  10.291   2.129  11.710 -0.0004 -0.1528  0.1372
19350W        W35824  16.384   3.388   2.920  0.0336  0.1413  0.2344
19351W        W35825  11.640   4.007   3.645  0.1178 -0.2271  0.2431
19352W        W35826   9.067  14.943   3.677  0.1060 -0.2854 -0.1738
19353W        W35827   3.506  13.459  16.025 -0.2779  0.0675  0.0561
19354W        W35828  17.603   9.620  16.033  0.1195  0.5179  0.1799
19355W        W35829  12.167  10.465   3.194 -0.0230  0.1070  0.0191
19356W        W35830  16.877  11.197  11.494  0.2366 -0.0590 -0.0937
19357W        W35831   0.585  15.170   2.533  0.1405  0.1254  0.0374
19358W        W35832  10.636   7.857   4.607 -0.2761 -0.1012  0.1844
19359W        W35833  16.979   0.774   4.077 -0.2093  0.0971  0.0802
19360W        W35834  12.872   6.085   1.097 -0.0208 -0.0781 -0.0780
19361W        W35835   8.088  12.342   3.510  0.0376  0.1842  0.0236
19362W        W35836  16.616   7.508   4.183 -0.1301  0.1877  0.1236
19363W        W35837  10.625   4.315  14.379  0.1087 -0.1171 -0.0637
19364W        W35838  13.231  11.419  13.816  0.0977 -0.0438  0.0913
19365W        W35839   9.554   2.053  16.197  0.1448  0.2181  0.2763
19366W        W35840   2.233  13.073  11.140 -0.0999  0.0362 -0.0247
19367W        W35841   4.053  11.158  13.818 -0.0652  0.2678 -0.0527
19368W        W35842   3.173   4.408  13.435  0.1615 -0.0203  0.1281
19369W        W35843   6.148   5.362  11.869 -0.0350 -0.0148 -0.1210
19370W        W35844   1.645   2.854  12.253  0.2722 -0.0079  0.0089
19371W        W35845   3.618  11.162  10.560  0.0944  0.4574 -0.2435
19372W        W35846   9.716   4.533   1.213 -0.2384 -0.1119  0.3526
19373W        W35847   6.801  11.918  11.723 -0.1085  0.1437 -0.2457
19374W        W35848   5.125   7.737  11.533  0.2878 -0.0696 -0.3923
19375W        W35849  17.327   7.145   2.027  0.1730 -0.0083 -0.0986
19376W        W35850  14.650  11.183  12.470 -0.0436  0.0577 -0.1749
19377W        W35851  16.291  12.372   2.543  0.0294  0.0525  0.0120
19378W        W35852   6.813   1.662   3.644  0.1010  0.2392  0.4715
19379W        W35853  12.383   5.355  12.748 -0.0463 -0.0215 -0.0403
19380W        W35854   2.155   6.722   0.068 -0.0667 -0.0006 -0.1233
19381W        W35855   2.879  13.034   1.376 -0.2065  0.3106 -0.0357
19382W        W35856   1.071   7.555   2.745 -0.3339 -0.0213 -0.1747
19383W        W35857   3.696   2.669   5.960 -0.0432  0.1111 -0.2378
19384W        W35858  16.859  10.480   3.892  0.0158 -0.3927 -0.1094
19385W        W35859  15.460  16.400   1.616 -0.0842  0.0882 -0.1346
19386W        W35860   3.954   7.294  13.587  0.2972 -0.0348 -0.0929
19387W        W35861   0.912   6.197  16.387 -0.1668  0.1371  0.1458
19388W        W35862   9.927  15.962  11.160  0.2418  0.5218 -0.0154
19389W        W35863  15.141  14.158  16.547  0.2004 -0.0213  0.1226
19390W        W35864   9.772   1.965  15.217 -0.3266 -0.1419  0.0032
19391W        W35865   4.943   3.856   2.872 -0.3207  0.1630  0.1210
19392W        W35866   6.523   2.650  15.615  0.0593 -0.0659 -0.3381
19393W        W35867  14.394  13.802   5.191  0.1218 -0.1887 -0.4590
19394W        W35868   0.025   7.248  12.416 -0.1914  0.0032  0.2842
19395W        W35869   9.130   9.814   1.259  0.0189  0.2864 -0.1231
19396W        W35870   1.914  14.908   1.108 -0.0469 -0.0825 -0.1471
19397W        W35871  17.691   8.116  12.254 -0.2101  0.0377 -0.0918
19398W        W35872  13.689  12.706  11.629 -0.1398  0.4045 -0.0953
19399W        W35873   8.892   7.128   4.827 -0.0141 -0.0117 -0.1779
19400W        W35874   3.981   2.440  11.716 -0.1783 -0.0935  0.0139
19401W        W35875   4.356  11.970   2.926 -0.3268 -0.1903 -0.1043
19402W        W35876   9.370   2.184   6.241  0.0205 -0.4119  0.1133
19403W        W35877   1.901  17.567  12.073  0.1553  0.2059  0.2749
19404W        W35878   4.878  16.837   3.299 -0.1366 -0.2100  0.3607
19405W        W35879  16.261   1.200   4.383  0.1609 -0.2466 -0.0650
19406W        W35880   9.216   5.673   2.832 -0.1648  0.0789  0.1256
19407W        W35881  12.050  11.905  13.102 -0.1257  0.0752 -0.1159
19408W        W35882  10.811  17.412  16.596 -0.0143 -0.0079 -0.1490
19409W        W35883  12.476   0.811  13.106 -0.1620  0.1975  0.0782
19410W        W35884  14.829  14.617  12.181  0.2104 -0.0659 -0.2355
19411W        W35885  10.449   6.955   5.432  0.0294 -0.2327  0.0921
19412W        W35886  11.294  10.032   5.006  0.1200  0.0828  0.0655
19413W        W35887   1.067   4.412   4.033  0.0332  0.3228  0.5802
19414W        W35888   4.965   6.412   2.681  0.1322  0.0880  0.0054
19415W        W35889   1.261  10.729   5.006  0.0504 -0.0233 -0.0645
19416W        W35890   4.801   9.157   3.365 -0.1804  0.2109  0.3214
19417W        W35891   7.937   4.852   4.268 -0.2894  0.2141  0.3554
19418W        W35892  13.253   6.423  15.015 -0.1655  0.0905 -0.0327
19419W        W35893   4.426   4.641   3.693 -0.0973 -0.0945  0.3274
19420W        W35894  16.118   9.284   0.438  0.1144 -0.1546 -0.0238
19421W        W35895   6.850   1.711  14.213 -0.2986 -0.3174 -0.0516
19422W        W35896   4.888  17.856  14.052  0.2345 -0.1573 -0.2193
19423W        W35897  11.088   9.470   3.810  0.1747 -0.1999 -0.1411
19424W        W35898  17.748   2.474  15.270  0.1260  0.1234  0.2311
19425W        W35899  13.010  10.012  12.228 -0.0804  0.0432  0.3629
19426W        W35900   0.524  17.318  11.448  0.0213 -0.0616 -0.2606
19427W        W35901   5.169  17.904   0.834  0.0584 -0.2234 -0.0508
19428W        W35902   1.572   5.838  12.370 -0.0950 -0.1360 -0.2088
19429W        W35903   4.300  17.643  13.567  0.0923 -0.3341  0.0446
19430W        W35904   8.756   4.846   1.440 -0.1309  0.1305  0.0540
19431W        W35905   3.828   8.882  11.786 -0.0391 -0.0868  0.0190
19432W        W35906   9.995   3.196   4.875  0.0006  0.0854 -0.1040
19433W        W35907  17.829   5.798   3.612 -0.2128  0.2292  0.2921
19434W        W35908   2.494  15.655  16.165  0.1913  0.3366 -0.0122
19435W        W35909   0.221  17.556  16.391  0.0915  0.0686 -0.0253
19436W        W35910   5.038   0.462  12.298  0.0707 -0.2751  0.2787
19437W        W35911  16.234   3.986   5.399 -0.3756 -0.1009 -0.3484
19438W        W35912   2.653   9.543  14.702  0.1268 -0.1190 -0.1674
19439W        W35913   4.344   9.013  12.357 -0.0210 -0.1971 -0.4043
19440W        W35914  14.748  17.122   1.806 -0.1174  0.1147  0.0330
19441W        W35915   2.769  16.864   1.008 -0.2506 -0.1146 -0.0092
19442W        W35916  17.720   8.022  15.824 -0.1295  0.1228 -0.2126
19443W        W35917  12.228  15.532  14.479  0.4244 -0.2916  0.1640
19444W        W35918   3.134   6.850  15.857  0.2385 -0.0573 -0.1388
19445W        W35919  10.535  11.923   4.010 -0.0441 -0.2254 -0.2249
19446W        W35920  14.650   8.635  15.492  0.0856 -0.3589 -0.1435
19447W        W35921  11.077  16.794  13.689 -0.0562  0.1821  0.2055
19448W        W35922   1.630  12.635  13.143  0.3949  0.0778 -0.0496
19449W        W35923   7.517  14.934  16.593 -0.2579 -0.1287  0.0552
19450W        W35924  14.616   5.295  15.803  0.2271 -0.1303 -0.3750
19451W        W35925   2.470  10.351   3.885  0.0173 -0.0323  0.4906
19452W        W35926   5.681  17.154  14.207  0.1174 -0.3115  0.2565
19453W        W35927  17.879   9.769   6.075  0.0347 -0.0268 -0.0194
19454W        W35928  13.489  15.884   4.774  0.0219 -0.3808 -0.2931
19455W        W35929  10.129  14.304  16.382  0.3114 -0.0454 -0.1845
19456W        W35930   6.363   6.224  10.881  0.0987 -0.0828  0.0705
19457W        W35931  11.017  17.106  16.089  0.1359 -0.0928 -0.0866
19458W        W35932  12.063   4.246   3.435 -0.0495 -0.3043 -0.1219
19459W        W35933  14.602   4.400  12.312 -0.0740 -0.2655  0.1852
19460W        W35934  13.997  10.748   1.272  0.2914 -0.2948  0.1903
19461W        W35935   0.458   8.113  15.234 -0.0888  0.1739  0.3432
19462W        W35936  17.482  12.575  16.575 -0.0059  0.2653  0.1460
19463W        W35937   3.170  10.976   1.336  0.2374  0.1364  0.0381
19464W        W35938   8.265   8.502   5.483 -0.0861 -0.1090  0.3214
19465W        W35939   0.469  14.879   2.885  0.1551 -0.2478  0.0201
19466W        W35940   5.023   8.541   1.589  0.0286  0.0735 -0.1887
19467W        W35941   2.913   7.257  13.564 -0.3566 -0.0954  0.1215
19468W        W35942   4.204   1.732  15.954 -0.0440  0.1656  0.0149
19469W        W35943   5.157  14.570  12.928  0.1972 -0.1430 -0.1560
19470W        W35944  12.394  14.197  14.163  0.0557  0.0207  0.0523
19471W        W35945  14.687   0.927  16.104  0.0729  0.0459 -0.0157
19472W        W35946  16.890  10.003   1.849  0.0197 -0.0066 -0.2760
19473W        W35947   6.695  12.129   1.572 -0.0846 -0.1363 -0.1142
19474W        W35948  17.523  14.301   4.123 -0.0946 -0.2490  0.0002
19475W        W35949  10.686  16.013  13.458  0.2049  0.1050  0.2120
19476W        W35950   3.134   0.685   2.997  0.1430  0.0747 -0.0662
19477W        W35951  14.465  12.234   0.158  0.1578  0.2442 -0.2498
19478W        W35952  16.989  12.568   4.974  0.3348 -0.0091  0.0400
19479W        W35953   9.347   3.546   4.358  0.2629 -0.1046 -0.0842
19480W        W35954   5.054  17.802   0.285  0.1018  0.2873  0.0310
19481W        W35955   8.951   6.754   0.913  0.0876 -0.0335 -0.2998
19482W        W35956  16.099   7.451  14.359 -0.3292 -0.2831 -0.1741
19483W        W35957   8.515  14.054  15.536  0.0416 -0.1274  0.0193
19484W        W35958  11.544   7.376  12.862 -0.0425 -0.1856 -0.1414
19485W        W35959   4.334   1.207   2.826  0.0690 -0.3752 -0.0247
19486W        W35960   3.291  11.262  16.685  0.0457 -0.2119  0.1479
19487W        W35961   3.875  13.542  15.208 -0.1854  0.0218  0.4140
19488W        W35962   0.660  10.116  15.792  0.0929  0.0687  0.2149
19489W        W35963   3.094   4.623   3.832 -0.0221  0.3408 -0.0089
19490W        W35964   2.095   5.960   0.779  0.0542 -0.1144  0.1665
19491W        W35965  10.659   9.249   2.458  0.2418 -0.3140  0.0659
19492W        W35966  15.249  15.078   3.473 -0.0474  0.0658  0.2092
19493W        W35967   0.859  11.816  16.538  0.0252 -0.2194  0.0952
19494W        W35968  17.305  16.109   0.956  0.0513 -0.0547 -0.1702
19495W        W35969   2.316   3.630  12.356  0.0178  0.1822 -0.0064
19496W        W35970  14.411   8.572  12.965 -0.0374 -0.0288  0.0064
19497W        W35971   2.586   9.249  12.263 -0.0249  0.2975  0.0178
19498W        W35972   0.858  11.291  14.307 -0.0932 -0.2594  0.0161
19499W        W35973   4.625  10.715   3.672 -0.1075  0.0898 -0.1922
19500W        W35974   5.498   3.411  16.742 -0.0988  0.1147 -0.0851
19501W        W35975   1.886   4.964   1.996  0.0127  0.1780 -0.0870
19502W        W35976  11.431   5.627   0.421  0.1958 -0.1403 -0.0768
19503W        W35977  11.841   0.661   5.186  0.0469 -0.2025  0.0290
19504W        W35978  16.345   4.618   3.678  0.3075  0.0119 -0.3793
19505W        W35979  11.425   7.668   4.773 -0.0821 -0.3107 -0.0228
19506W        W35980  11.210   8.961   4.519  0.0860  0.3308 -0.0757
19507W        W35981   3.009  17.140  12.921  0.0387 -0.2845  0.0100
19508W        W35982  10.100  15.943  11.954 -0.0854  0.1359  0.0295
19509W        W35983  13.518  12.186  15.959 -0.4117 -0.0770  0.0174
19510W        W35984   1.363  10.963  14.359 -0.0432  0.0440 -0.4133
19511W        W35985  16.951  10.831  15.496  0.0736 -0.1344 -0.2526
19512W        W35986   3.049   0.289  16.022  0.0830  0.3343  0.0456
19513W        W35987  10.990   8.651  12.951 -0.0279 -0.1642 -0.3509
19514W        W35988  16.300  16.700   2.166  0.2950  0.0436 -0.3259
19515W        W35989  14.409   2.286  11.644  0.1185  0.1111 -0.4851
19516W        W35990   7.217  14.535   1.153  0.0785  0.3689 -0.0580
19517W        W35991  13.243  11.413  14.302 -0.0159 -0.2892 -0.0849
19518W        W35992  12.391   8.245   6.257  0.0314 -0.2340 -0.1280
19519W        W35993   0.501   9.252  12.214 -0.1191  0.0207  0.0223
19520W        W35994  10.812  11.814   0.352  0.0980  0.2617 -0.0131
19521W        W35995   9.293  17.598  11.412  0.0639 -0.1031  0.4047
19522W        W35996   1.513  15.096   1.423  0.2077  0.2776  0.2156
19523W        W35997   8.496  11.955  12.900  0.1388  0.0691  0.0143
19524W        W35998   1.597  14.243   2.422  0.1925  0.3006  0.0748
19525W        W35999   3.455  16.340   0.621  0.0681 -0.1352 -0.4468
19526W        W36000   6.061   4.020  14.184  0.3312 -0.0838  0.0351
19527W        W36001  15.633  12.251  11.168 -0.2311 -0.0400  0.0563
19528W        W36002   0.453   7.901  13.764  0.3647 -0.1255 -0.0987
19529W        W36003   5.679  15.198   0.262  0.0615  0.0313 -0.0224
19530W        W36004   5.965   8.386  14.156 -0.1809 -0.3282 -0.1491
19531W        W36005  16.659   8.437   1.376  0.1976  0.2727  0.2778
19532W        W36006  12.054   8.129  12.388  0.3850 -0.0945  0.0206
19533W        W36007  10.585   7.097   4.446 -0.0232  0.0212 -0.2000
19534W        W36008  12.038  15.890   4.642  0.3190 -0.3782  0.2742
19535W        W36009  14.917   7.078   1.740  0.0834  0.1806 -0.1592
19536W        W36010  12.557   5.325  16.421 -0.0361 -0.4181 -0.2452
19537W        W36011  17.138  10.626   0.029 -0.3168 -0.5310  0.1560
19538W        W36012   4.442  17.968   4.768 -0.0666 -0.0286 -0.0612
19539W        W36013   4.672  14.853   1.729  0.3600  0.0773 -0.0428
19540W        W36014  16.129   0.640  15.986 -0.3109 -0.0651 -0.1644
19541W        W36015   3.588   4.701  12.761 -0.1750  0.0554 -0.0649
19542W        W36016   0.760   0.581  12.199  0.1319  0.0509 -0.0393
19543W        W36017   0.721  10.750  13.466 -0.0200  0.0080  0.0385
19544W        W36018  14.412   8.017   1.753  0.1141  0.1217  0.1431
19545W        W36019  10.181   9.158   0.106  0.0242 -0.0554  0.1085
19546W        W36020   8.320  15.158  11.724 -0.0959 -0.4248 -0.0924
19547W        W36021  17.703  17.640  14.236 -0.0778 -0.1077 -0.2603
19548W        W36022   1.443   3.217   1.093 -0.0672  0.3650  0.1720
19549W        W36023   3.107   9.801   4.559 -0.1014  0.2627  0.0107
19550W        W36024  17.762   8.093   5.279  0.1238  0.3926 -0.0275
19551W        W36025  15.303  17.081  14.201 -0.1689  0.3111 -0.2205
19552W        W36026  14.671   2.743   4.236 -0.2793  0.3091  0.1014
19553W        W36027  16.457   4.895   4.554 -0.1592  0.2212  0.0733
19554W        W36028   4.771  13.951   1.302  0.1517  0.3796  0.0279
19555W        W36029  14.876   6.433  12.957  0.0511  0.1198 -0.2437
19556W        W36030  10.070  12.231  15.929  0.2272 -0.1313 -0.0342
19557W        W36031  12.538   6.514   4.420  0.2782 -0.1444 -0.1253
19558W        W36032   8.920   5.197  13.021  0.0489  0.1511  0.2332
19559W        W36033  10.561  16.950   5.135  0.0589 -0.0504 -0.2180
19560W        W36034   9.544  12.894   2.255 -0.1520  0.3513 -0.1747
19561W        W36035   2.541   1.913  13.009  0.4378 -0.4313 -0.4453
19562W        W36036   4.464  17.394  15.488  0.2729 -0.2089  0.1634
19563W        W36037  12.802  14.796  14.909 -0.2172  0.4008  0.0170
19564W        W36038  15.578  11.759   1.106  0.1339  0.0471 -0.0051
19565W        W36039  12.320  15.330  16.019  0.1318  0.1347  0.0288
19566W        W36040   2.520  10.795  11.870 -0.0478  0.0715 -0.1824
19567W        W36041   2.253  15.979   5.639 -0.1358 -0.2689  0.1605
19568W        W36042  12.778   6.942  14.248  0.3289  0.0801 -0.0530
19569W        W36043   2.243  14.687  11.490  0.0919  0.2868 -0.2849
19570W        W36044   7.217   7.150   5.606  0.2144 -0.0415  0.0213
19571W        W36045  10.411  14.397  15.919 -0.1303 -0.0951 -0.0012
19572W        W36046  17.820   6.243   1.615  0.2391  0.1809 -0.0322
19573W        W36047   4.878   0.065  16.577  0.2692 -0.3544  0.0373
19574W        W36048   5.218   2.563   3.267 -0.0760 -0.1604 -0.1961
19575W        W36049  12.442  17.145   1.907 -0.0181  0.3525 -0.0922
19576W        W36050   4.585   8.616  12.664  0.1829  0.0917  0.1368
19577W        W36051   2.389  12.338  10.869 -0.0727  0.2287  0.1798
19578W        W36052  15.419   7.178  14.931 -0.1570  0.0882 -0.0979
19579W        W36053   7.329  11.918  13.586 -0.1310  0.3581 -0.1551
19580W        W36054  14.537  13.230  12.657  0.2285 -0.0082  0.0167
19581W        W36055   2.176  12.081   0.699  0.2218 -0.0099  0.2785
19582W        W36056   6.505  11.365   5.604 -0.1763  0.1477 -0.1308
19583W        W36057  15.949  15.035   4.019 -0.3172  0.0097 -0.1860
19584W        W36058  14.410   4.334   5.166  0.1154  0.2002 -0.1046
19585W        W36059   0.564   0.897  16.611 -0.2206  0.1226  0.0361
19586W        W36060   7.734  13.673   1.938  0.0920 -0.2527 -0.1709
19587W        W36061  17.725  10.473   3.357  0.0512  0.2994  0.0352
19588W        W36062   1.962  12.666   2.349 -0.1884  0.2115 -0.2493
19589W        W36063  10.404   9.279  14.021 -0.0349  0.1165  0.2164
19590W        W36064  14.100   3.764   5.253 -0.3621 -0.1924 -0.2891
19591W        W36065   8.874  14.484   0.914 -0.0514 -0.2171  0.0860
19592W        W36066  17.927  10.489  16.736 -0.0507 -0.2143  0.0323
19593W        W36067  10.753   2.744  13.467 -0.1836 -0.0279  0.3822
19594W        W36068   5.354   2.342  16.233 -0.1707  0.0786  0.0976
19595W        W36069  10.909   2.338   5.487 -0.1031  0.3267  0.2819
19596W        W36070  12.610   1.880  15.896  0.1046 -0.1362  0.0970
19597W        W36071  15.157   4.001  11.292  0.2215  0.1394  0.0537
19598W        W36072  10.503   7.839  13.836 -0.1898 -0.0200 -0.5129
19599W        W36073  12.521  14.033  16.192 -0.2268  0.1827  0.1484
19600W        W36074   2.047   0.528   4.513 -0.1643  0.1217 -0.1011
19601W        W36075   2.896   0.275   4.614 -0.1023 -0.3381  0.0885
19602W        W36076  14.655   4.017  11.522  0.0499 -0.4695 -0.1231
19603W        W36077   0.615   6.471  11.238 -0.1646  0.1564 -0.1798
19604W        W36078   8.730   6.009   4.126 -0.2987 -0.1010  0.1190
19605W        W36079  15.876   9.253   3.055  0.1196  0.1178  0.1017
19606W        W36080   5.912  13.428  14.429 -0.0342 -0.3831 -0.0736
19607W        W36081   9.130  11.902  14.808 -0.0468  0.1584  0.1722
19608W        W36082   4.924  13.691  14.183 -0.0749 -0.0737  0.0269
19609W        W36083   4.178   5.519   0.340  0.0630  0.2453 -0.0193
19610W        W36084   1.638  15.136   0.099 -0.1614  0.2173  0.1971
19611W        W36085  17.583  10.841  16.096 -0.0771 -0.0136  0.0278
19612W        W36086   4.106   4.463  14.658  0.0705 -0.1126 -0.1568
19613W        W36087  11.433   4.876   4.252  0.1506  0.3357  0.3337
19614W        W36088   5.883  17.549  13.120  0.0788 -0.0608 -0.0309
19615W        W36089  10.917   0.321   4.458  0.1219 -0.0072 -0.2168
19616W        W36090   0.233   6.808  12.341  0.1822  0.1332  0.0841
19617W        W36091  17.237  11.125   5.304  0.0112 -0.2139  0.0032
19618W        W36092   6.235  15.542   4.526 -0.2240 -0.1990 -0.1047
19619W        W36093   5.401  16.487  14.137  0.0702  0.1123  0.0242
19620W        W36094   5.793   8.879   2.001 -0.0529 -0.1956 -0.3050
19621W        W36095  10.506  17.603   1.293  0.0963  0.1099 -0.0001
19622W        W36096   3.942  13.007   3.412  0.1386  0.1404  0.2172
19623W        W36097  11.192  15.114   5.050  0.2232 -0.0462 -0.0135
19624W        W36098   8.142   8.612   4.629  0.0910 -0.0555 -0.2367
19625W        W36099   0.918   6.004  12.945  0.4357 -0.4617  0.0602
19626W        W36100  15.351  13.108  14.499 -0.0408 -0.1242 -0.1292
19627W        W36101  16.399  16.003  16.468  0.1466 -0.2315  0.2103
19628W        W36102   5.872   2.170  13.815 -0.2142 -0.1544  0.0076
19629W        W36103   2.399   2.609  13.274  0.5232 -0.0627 -0.2184
19630W        W36104  15.060   6.281   4.120  0.0051  0.0293  0.1155
19631W        W36105  12.833   7.870  16.109 -0.1676  0.0766  0.0275
19632W        W36106  17.246  17.608   1.236  0.0931  0.0863 -0.0103
19633W        W36107  12.683   8.537   2.894 -0.2405  0.2164 -0.1782
19634W        W36108   2.767  13.153  14.039  0.0336  0.1122  0.0101
19635W        W36109   0.656   8.714  11.599  0.1970  0.3164 -0.1241
19636W        W36110  10.076   0.921  13.116 -0.0544 -0.1578  0.2850
19637W        W36111   7.496  11.254   2.043  0.3961  0.2743 -0.3965
19638W        W36112   3.184   3.320  15.635 -0.1594  0.1446  0.0871
19639W        W36113  11.707   8.834   2.888  0.3771  0.0573  0.0058
19640W        W36114   3.777   4.940   6.261  0.1268 -0.2140  0.2764
19641W        W36115   0.210   9.726  12.180 -0.2569 -0.0275  0.1274
19642W        W36116   4.969  12.323   5.009 -0.0160 -0.0854  0.1334
19643W        W36117   9.251   8.350   1.134  0.0975  0.1137  0.1545
19644W        W36118  16.394  17.676  13.806  0.3523 -0.2694  0.0140
19645W        W36119  14.480   0.826   3.950 -0.0375 -0.2118 -0.1028
19646W        W36120   3.222   3.736  16.443  0.1681  0.4253 -0.0274
19647W        W36121  15.948   6.437  11.793 -0.1584 -0.1560  0.0836
19648W        W36122   5.327   1.594   2.553  0.0756  0.0916  0.1472
19649W        W36123   5.482  14.792   0.951  0.1667  0.0143  0.0544
19650W        W36124   9.360   4.939   3.362 -0.0352  0.1504  0.2167
19651W        W36125   9.825   5.950   1.716 -0.0325 -0.0767 -0.1357
19652W        W36126   8.858  10.026  15.301 -0.1106  0.0778  0.4056
19653W        W36127   2.738   0.849   5.202 -0.2451  0.0154  0.1012
19654W        W36128  14.072   2.731   3.866  0.2653  0.2099 -0.2022
19655W        W36129   1.413   5.824   2.099  0.3155  0.0473 -0.4268
19656W        W36130  12.124   5.318  13.837 -0.0080 -0.0901  0.1719
19657W        W36131   2.340  14.242   4.170  0.1933  0.0289 -0.0391
19658W        W36132   8.054   5.836  12.153  0.0280 -0.1141  0.2896
19659W        W36133  17.312  12.777   4.339 -0.1491  0.0838 -0.2403
19660W        W36134  17.465   6.194   2.310 -0.1316  0.1188 -0.4129
19661W        W36135  15.573  16.137   2.381  0.1248  0.1723 -0.0396
19662W        W36136  16.816  11.585   0.808 -0.0335 -0.1633 -0.0227
19663W        W36137   3.251   1.795  13.768 -0.1145 -0.0482  0.0720
19664W        W36138  10.376  14.991   3.792  0.0445  0.1762 -0.0144
19665W        W36139  11.142   1.927  16.730  0.1918 -0.0872 -0.1152
19666W        W36140  12.365  11.441   0.871 -0.0579  0.1625 -0.1230
19667W        W36141  13.718   7.026   1.070  0.0840  0.2525  0.2355
19668W        W36142   8.168   6.448   2.696  0.0996 -0.1302 -0.0488
19669W        W36143  12.724   0.097   1.743  0.0544  0.1221 -0.1183
19670W        W36144   7.934  15.389  15.454 -0.1630 -0.5915  0.1865
19671W        W36145   2.060  10.775  12.219  0.3298 -0.2410  0.1704
19672W        W36146   1.311   9.007   4.512 -0.1272  0.3786 -0.0053
19673W        W36147  11.258   7.545   4.145  0.2926 -0.1803 -0.1609
19674W        W36148  17.750   6.900  14.047 -0.0410  0.1294 -0.0445
19675W        W36149   6.111  16.936  11.412  0.1857 -0.0468  0.3758
19676W        W36150  15.623  14.164  12.333  0.1369  0.0454  0.1696
19677W        W36151  11.666   8.699  13.677 -0.2706  0.2644  0.1212
19678W        W36152   2.152  12.939   3.668 -0.2945 -0.1237 -0.2030
19679W        W36153  17.646   2.121   3.089 -0.1817  0.1944 -0.1282
19680W        W36154  13.313   3.203   3.873  0.1138  0.0757 -0.3328
19681W        W36155  14.235  16.715   3.426 -0.2900  0.0349  0.2781
19682W        W36156   0.759  10.724  14.987  0.0035  0.0464  0.0741
19683W        W36157   7.659  17.844   5.871 -0.3015  0.0478 -0.2591
19684W        W36158   9.942   9.682   0.761 -0.0347  0.0490  0.1451
19685W        W36159  17.103  11.206   3.391  0.0138  0.2075  0.0523
19686W        W36160   9.741   9.707   1.244  0.2081  0.3687 -0.0381
19687W        W36161  16.472  14.549  11.474  0.2941 -0.2430  0.0756
19688W        W36162  10.291   5.743   4.214 -0.0712  0.0733  0.3039
19689W        W36163   7.210   0.974  15.171  0.0731  0.0724 -0.1625
19690W        W36164  13.812   5.325   0.184 -0.0832 -0.1049 -0.2042
19691W        W36165  12.533  12.411   0.090 -0.0552 -0.0225 -0.1444
19692W        W36166   4.388   7.313   3.544 -0.1601  0.2020  0.1541
19693W        W36167   0.194   3.439  12.086 -0.0088  0.0902  0.1006
19694W        W36168   9.443  16.598  12.631 -0.3147  0.0931  0.1682
19695W        W36169  16.524  15.799   0.786  0.0287 -0.1728 -0.3499
19696W        W36170   9.159  15.466   1.858 -0.0533  0.2346  0.0338
19697W        W36171  16.438   1.970   4.150 -0.0411 -0.1553 -0.3097
19698W        W36172   2.410  11.207  15.195 -0.0781  0.5102 -0.0370
19699W        W36173  14.321  13.346   2.767 -0.0437  0.0169 -0.0523
19700W        W36174  13.460   6.319  12.875  0.0742 -0.1953 -0.1320
19701W        W36175  10.994   4.810   0.279 -0.0357 -0.0103 -0.3283
19702W        W36176   7.459  16.826  12.543 -0.3360 -0.2357 -0.2410
19703W        W36177  15.822  12.807   3.605  0.0534  0.1051  0.3639
19704W        W36178  11.700   9.322  16.375  0.2162  0.1084  0.2958
19705W        W36179   9.240   4.614   2.961 -0.0668  0.0050 -0.1822
19706W        W36180   6.152  15.483  14.261  0.1483 -0.0444 -0.1207
19707W        W36181  12.119  17.907   4.860 -0.0743 -0.0116  0.0791
19708W        W36182   0.101   9.743  15.097  0.1961  0.0862  0.1395
19709W        W36183  13.168   2.611   4.838 -0.2505 -0.3550  0.0805
19710W        W36184   6.191   0.424   5.840  0.2324  0.0275  0.1026
19711W        W36185   7.335   1.752   1.296  0.0396  0.1682  0.0447
19712W        W36186   4.275  16.488   3.648 -0.0898 -0.0465  0.0214
19713W        W36187   6.258  12.770  12.642  0.1961  0.0621  0.1392
19714W        W36188   4.048   2.723  11.310  0.2432  0.1351 -0.0550
19715W        W36189   1.520   0.671   3.278  0.2976 -0.0260 -0.0129
19716W        W36190   8.059   5.682   5.902  0.1225 -0.1418  0.2345
19717W        W36191  13.149   2.299   2.569  0.0340 -0.3863  0.1000
19718W        W36192   2.893  17.520  15.234 -0.2940 -0.1848 -0.1339
19719W        W36193  10.298   7.320   0.548  0.1223 -0.0048  0.0255
19720W        W36194   6.557  11.897  16.440  0.1404  0.0991 -0.0210
19721W        W36195  13.080   9.533   4.038 -0.1224 -0.0362 -0.1160
19722W        W36196   2.567  11.336  10.896 -0.2193  0.4090 -0.0741
19723W        W36197   7.967  14.892   2.385 -0.0603  0.0570 -0.1314
19724W        W36198   9.750  11.466  12.275  0.1382 -0.0385  0.1636
19725W        W36199   5.360  11.941   1.105 -0.1799  0.0371 -0.0122
19726W        W36200  12.381  12.944  13.826  0.0944  0.2713 -0.0769
19727W        W36201  11.678   1.381   5.830 -0.1116 -0.2313 -0.0015
19728W        W36202   2.550  10.461  14.766 -0.0118 -0.0529  0.0120
19729W        W36203   5.480  10.163  16.344  0.0956  0.2281 -0.0139
19730W        W36204  13.448  14.795  11.672  0.2763  0.2769  0.0153
19731W        W36205   2.322  11.722  14.953 -0.3253  0.1790  0.0131
19732W        W36206   0.974   8.588   3.556  0.0560 -0.2151  0.0997
19733W        W36207   0.117   9.173   4.291 -0.0803 -0.0245 -0.0360
19734W        W36208   1.995   0.131   4.951  0.1297 -0.4153  0.1998
19735W        W36209   5.109  11.759   0.692 -0.3756  0.0408 -0.1593
19736W        W36210  10.490   0.784   3.543  0.0256  0.1446  0.1838
19737W        W36211  17.395  11.770  12.142 -0.3924 -0.0543 -0.0620
19738W        W36212   3.215   5.857  15.765 -0.1039  0.1921 -0.2177
19739W        W36213   8.987  16.136  14.275 -0.0822  0.2254 -0.2289
19740W        W36214  11.684   1.937  11.615 -0.0671 -0.0044  0.1051
19741W        W36215   7.169  10.986   1.755 -0.1276  0.2924  0.1253
19742W        W36216   0.807  12.150  12.470 -0.1168  0.1017  0.0107
19743W        W36217  14.723  14.147  14.198  0.2497  0.0532 -0.0976
19744W        W36218   3.277   3.055  11.510  0.0378 -0.5246 -0.0909
19745W        W36219   0.313   7.713  11.672 -0.0989 -0.4478 -0.0626
19746W        W36220  16.550  15.634   4.931 -0.0783  0.0695 -0.1292
19747W        W36221   5.626  16.949   2.980  0.2725 -0.1181 -0.4326
19748W        W36222  12.038  11.019   2.876  0.2204  0.2206  0.2035
19749W        W36223   8.750   0.180   4.889 -0.1637 -0.2453  0.3313
19750W        W36224  11.979  15.018   3.292 -0.0556 -0.2625 -0.0680
19751W        W36225  11.994  16.924  11.754  0.0291 -0.1066  0.1012
19752W        W36226   6.894   9.924   0.500 -0.4497  0.1054 -0.2395
19753W        W36227  10.401  17.610  15.772 -0.0123  0.2353 -0.1714
19754W        W36228  15.370  13.634  12.648 -0.4732 -0.3029 -0.0425
19755W        W36229  11.701   6.976  12.051  0.3791 -0.1957 -0.0284
19756W        W36230   2.207   5.512   4.719 -0.3412 -0.1519 -0.3483
19757W        W36231  12.219   3.087   3.091  0.4226  0.0186 -0.1864
19758W        W36232   5.703   1.639  13.747  0.0136  0.3088  0.1467
19759W        W36233   1.714   2.314   5.172  0.1193 -0.1765  0.0175
19760W        W36234   8.183   7.293   3.419 -0.1902  0.1594 -0.0529
19761W        W36235  13.254  11.480  11.608 -0.2533 -0.1722 -0.0170
19762W        W36236  14.483   6.095  15.459  0.1296 -0.0377 -0.0272
19763W        W36237   9.410   1.881  12.311  0.0473 -0.3141 -0.1218
19764W        W36238   5.460   5.914  15.969  0.0457  0.0544 -0.0542
19765W        W36239  16.172   8.739  13.526  0.2917 -0.4316 -0.0695
19766W        W36240  17.495   2.411  12.474 -0.1200 -0.0888 -0.0141
19767W        W36241  15.403   1.743   1.440  0.0966  0.0351  0.0503
19768W        W36242   9.914   7.024   2.479  0.1328 -0.1138 -0.0566
19769W        W36243   0.821   3.219   1.266  0.1568 -0.0561 -0.0992
19770W        W36244   7.880  17.593   1.755  0.1687 -0.1018  0.0934
19771W        W36245   4.748   5.105  14.868 -0.3802  0.1821 -0.2652
19772W        W36246  13.398  15.113   0.218 -0.0845  0.0280 -0.2617
19773W        W36247   9.111   7.853  14.942 -0.3429 -0.1504 -0.3413
19774W        W36248   7.082   8.294  16.566  0.1875 -0.3115  0.0479
19775W        W36249   8.815   1.810   5.317 -0.0245  0.0259 -0.0309
19776W        W36250   7.549   6.904   3.731 -0.0838  0.0627  0.2627
19777W        W36251  17.499   7.912  14.837  0.0061  0.2562 -0.1063
19778W        W36252   4.721   6.144   4.397  0.4977 -0.0084  0.3146
19779W        W36253   6.403  13.958  16.459  0.0363 -0.0721  0.0792
19780W        W36254  10.935   4.450  15.956  0.1297  0.5072  0.1675
19781W        W36255   4.566  15.774   4.199  0.2626  0.0470 -0.0586
19782W        W36256  13.967   6.197  16.780 -0.0191  0.0162 -0.2785
19783W        W36257  17.240   7.383  11.797  0.4270 -0.1966 -0.1056
19784W        W36258  13.532  16.777   5.791  0.0361 -0.1087  0.3002
19785W        W36259  12.642  11.093  14.978 -0.2283 -0.2881  0.1846
19786W        W36260   0.485   1.073   2.594  0.2406  0.0178  0.1313
19787W        W36261  14.984  15.132   3.944 -0.2138 -0.0676 -0.1822
19788W        W36262  16.854   9.644   4.418 -0.0323  0.3172 -0.1114
19789W        W36263  14.026  16.804  13.163 -0.2458  0.0073 -0.1425
19790W        W36264  16.712  10.783  12.060 -0.3585 -0.1986  0.0776
19791W        W36265   1.344   4.538  13.808  0.2709 -0.2248  0.0117
19792W        W36266  12.867   9.253   4.387 -0.1327 -0.0267  0.0229
19793W        W36267  16.689  12.274   4.581 -0.1628  0.1659  0.2643
19794W        W36268  17.181  14.376  16.698 -0.0180 -0.1260 -0.1969
19795W        W36269   5.862   2.290  12.098  0.0024 -0.0142  0.0300
19796W        W36270   3.451  11.281   3.447  0.3525 -0.0274 -0.1824
19797W        W36271  14.821   6.367  15.246  0.0503  0.2128 -0.1803
19798W        W36272  16.386  13.860   2.124  0.0690 -0.0238  0.2100
19799W        W36273  11.996  15.989  10.801 -0.0488 -0.2422 -0.3354
19800W        W36274   8.891  10.326   3.806 -0.0448 -0.3392  0.1306
19801W        W36275   1.885   0.014   4.387 -0.0653 -0.2152  0.0159
19802W        W36276   6.336   2.854   5.130  0.1170  0.1181  0.0717
19803W        W36277   1.421  16.619  14.918 -0.1668 -0.1443 -0.2842
19804W        W36278   6.879   4.476  16.349  0.1182  0.0573  0.0489
19805W        W36279   9.552   9.468  14.108 -0.0503  0.1886  0.0375
19806W        W36280   6.149   0.176  16.654 -0.1629 -0.0261  0.0840
19807W        W36281   2.314   0.174  14.828 -0.1250  0.2976  0.3612
19808W        W36282   2.598   7.002   1.176  0.1567  0.2062 -0.0633
19809W        W36283   1.861   1.206   5.230 -0.1722  0.1095 -0.1729
19810W        W36284   3.751  15.970   2.228  0.3353  0.1401  0.0205
19811W        W36285  15.656  12.656  14.548  0.0534  0.0896  0.3628
19812W        W36286  15.816  15.861   3.149 -0.0846  0.0263 -0.3871
19813W        W36287   7.269   9.125   3.746 -0.3684 -0.3476 -0.0263
19814W        W36288   3.565  16.597  13.740 -0.0321  0.1154  0.0957
19815W        W36289   4.864  10.866   2.478  0.1041 -0.4413  0.1927
19816W        W36290  16.434   1.649   2.125 -0.1959 -0.0497  0.0683
19817W        W36291   2.918   3.916   1.197 -0.0943 -0.0526 -0.3831
19818W        W36292   9.261   5.857   1.163  0.1948  0.0002  0.0792
19819W        W36293   1.104   0.342   6.180 -0.0203  0.0164  0.0339
19820W        W36294  12.881   0.946  14.480  0.2244  0.1375  0.1288
19821W        W36295   5.947  14.194   4.992 -0.1297 -0.4763 -0.0065
19822W        W36296  16.481   3.189  12.297  0.1166  0.0932  0.0442
19823W        W36297   2.326   6.839  15.424  0.0942  0.1979  0.0588
19824W        W36298  14.430   4.395   4.656 -0.2419 -0.0524  0.1151
19825W        W36299  13.318   6.697   2.569 -0.0222  0.1745 -0.2009
19826W        W36300   4.484   1.559  14.092  0.2694 -0.0562 -0.2210
19827W        W36301   8.658   9.215   0.076 -0.0340 -0.0625 -0.1865
19828W        W36302  10.013   5.844  14.363 -0.0905  0.2750  0.1055
19829W        W36303   5.389   0.011  11.464  0.0530 -0.5799 -0.0589
19830W        W36304  11.072  12.879  12.250 -0.3536  0.0113  0.1297
19831W        W36305   3.041  10.636  12.050  0.1097 -0.1074 -0.1125
19832W        W36306  10.225  12.230   3.450  0.1247 -0.1476 -0.0714
19833W        W36307   5.593  10.090  11.843  0.0976  0.0238 -0.0784
19834W        W36308   3.630   2.103   2.197  0.0862  0.0346  0.2463
19835W        W36309   4.773  13.770   2.916  0.1933  0.0602  0.3574
19836W        W36310   4.392  12.793   0.069  0.0845 -0.1742  0.2372
19837W        W36311  12.932  14.826  16.544 -0.2186 -0.3284  0.1415
19838W        W36312  11.058   6.713   3.517  0.1211 -0.2462 -0.4211
19839W        W36313  11.666   5.872  15.202 -0.3335  0.0394  0.1929
19840W        W36314  14.170  12.362  14.235  0.1161  0.3671  0.0441
19841W        W36315   6.462  16.050   1.778  0.3512 -0.2560  0.0995
19842W        W36316  16.947   8.623  12.087  0.2545 -0.2496 -0.0906
19843W        W36317  17.972  15.440  14.077 -0.1054  0.3549  0.2311
19844W        W36318  14.182   8.621   0.588 -0.1565  0.0622 -0.0432
19845W        W36319   1.709  16.950  15.354  0.1794  0.1593 -0.0291
19846W        W36320   2.204  17.276  15.623 -0.4806 -0.1038  0.1360
19847W        W36321   7.643   0.053   0.531 -0.0880  0.1214 -0.3178
19848W        W36322  10.116   5.227   2.417 -0.0497  0.0016  0.0829
19849W        W36323   2.710   5.979   1.849  0.3454 -0.0057  0.0771
19850W        W36324  16.430   2.117   1.262  0.1361  0.0652  0.1849
19851W        W36325  16.579   6.828   5.409  0.2292  0.1542 -0.3474
19852W        W36326   6.427   5.332  13.523  0.0025 -0.1646  0.3491
19853W        W36327  13.208  15.663  14.085  0.1597 -0.3114  0.1778
19854W        W36328   2.614   2.557  14.165  0.0471  0.0063  0.0903
19855W        W36329  13.103  17.446   3.962  0.0776  0.1972 -0.0260
19856W        W36330   7.898  15.353  14.359  0.0377  0.1986 -0.1556
19857W        W36331  14.625   9.580   4.067 -0.4165  0.0289  0.2140
19858W        W36332  16.164  17.737  12.420  0.0193 -0.1448 -0.2643
19859W        W36333   9.666   3.953  16.508 -0.2495 -0.2515 -0.0760
19860W        W36334   7.968   2.576  13.749 -0.0865 -0.2941 -0.1381
19861W        W36335   5.836   7.983   2.078 -0.4524 -0.1553 -0.4310
19862W        W36336   6.145  12.040  12.348 -0.3623  0.3553 -0.1452
19863W        W36337   7.232  16.431   1.565 -0.1775  0.0958 -0.2321
19864W        W36338   9.407   9.574   5.652 -0.1401 -0.2580 -0.0564
19865W        W36339   8.083  15.719  13.422  0.1904  0.5325  0.2181
19866W        W36340  16.198   9.149  15.526  0.0204  0.1837 -0.1742
19867W        W36341  16.236  14.266   3.585  0.0799  0.2161 -0.3379
19868W        W36342  11.322  13.023  13.079  0.2205 -0.1563  0.1454
19869W        W36343  10.536   0.152  11.387  0.5246 -0.2260 -0.0683
19870W        W36344  16.948   7.918   5.163  0.2013  0.0759 -0.0101
19871W        W36345  15.787   1.824   1.766  0.2022  0.2215 -0.1613
19872W        W36346  11.036   1.852   4.513  0.2089 -0.2089  0.0689
19873W        W36347  17.692   0.087   5.279  0.2324 -0.0703  0.2237
19874W        W36348   5.870  10.070   0.616  0.0815 -0.1218  0.1449
19875W        W36349   2.792   3.560  14.693 -0.1495  0.1421  0.0114
19876W        W36350  11.980  13.824   4.113  0.0356 -0.2576  0.0136
19877W        W36351   9.383   0.826   5.691 -0.2557 -0.1450  0.0688
19878W        W36352  10.189   9.501   5.182  0.1530 -0.0184 -0.0619
19879W        W36353   6.131  16.489   0.368  0.0723  0.2025 -0.0329
19880W        W36354  15.178   5.971   5.455 -0.0815 -0.0305  0.0500
19881W        W36355   2.267   6.450  12.353 -0.0614 -0.0021 -0.0628
19882W        W36356  15.165  17.401   6.283  0.0630 -0.1220 -0.2273
19883W        W36357   9.778  11.725  12.816  0.1764 -0.3847  0.0859
19884W        W36358   6.029   4.522   2.977  0.0278  0.0587 -0.0271
19885W        W36359  13.415   5.799  13.729 -0.2809 -0.0173 -0.1499
19886W        W36360  15.613  14.328   1.744  0.2523 -0.1207  0.0042
19887W        W36361  14.803   8.236   5.670 -0.2412 -0.1761 -0.0270
19888W        W36362  12.574  14.050   2.937  0.1615 -0.2211 -0.1171
19889W        W36363  13.469   7.057  13.886 -0.4612  0.0123  0.0145
19890W        W36364   8.065  10.579  11.986  0.0949  0.1027 -0.1713
19891W        W36365  14.980  13.779  15.658  0.0984 -0.1736 -0.0795
19892W        W36366   5.956  10.970   3.336  0.0249  0.1022 -0.1153
19893W        W36367  17.308  14.123   0.719  0.0690  0.1715 -0.0765
19894W        W36368  16.632  13.708  15.310  0.0631 -0.1611 -0.0712
19895W        W36369   2.677  11.671  16.363  0.0096 -0.1894  0.0049
19896W        W36370  15.540   4.165   2.553 -0.0826  0.0360 -0.0529
19897W        W36371  16.692   9.672  15.006  0.3404  0.2091 -0.2131
19898W        W36372  10.354   1.371   1.578  0.0603 -0.1364 -0.4226
19899W        W36373   5.006   8.029   5.315  0.0518  0.0339 -0.1855
19900W        W36374   9.287  13.780   0.266  0.0205 -0.0509  0.2911
19901W        W36375  13.007  10.848  11.940 -0.1614 -0.0073 -0.2729
19902W        W36376   4.777   5.434   4.011  0.1531  0.0980  0.1695
19903W        W36377  10.503   2.638   4.258 -0.1048 -0.2606  0.2279
19904W        W36378   9.200   2.067  15.355  0.0408  0.3375  0.0524
19905W        W36379   2.842   0.665   1.378  0.1014  0.0204 -0.3080
19906W        W36380  10.937   6.265   5.435  0.1761  0.0678 -0.2168
19907W        W36381   9.244  10.356  13.163  0.1946 -0.1491  0.3541
19908W        W36382   4.695  12.685  15.829  0.0798  0.0973 -0.2487
19909W        W36383  17.061  16.056  14.195  0.1296  0.5074  0.0853
19910W        W36384  14.808  12.470   2.083 -0.2241 -0.0344 -0.1784
19911W        W36385  17.823   0.030  12.208  0.0812  0.2598  0.1385
19912W        W36386   9.993   1.766   4.479 -0.1364 -0.1578 -0.0086
19913W        W36387   8.737   7.284   0.867  0.0124 -0.3486  0.0509
19914W        W36388  15.386   7.891   2.998 -0.0269  0.1654 -0.3251
19915W        W36389   2.660  14.220   5.277 -0.0171  0.0751  0.0437
19916W        W36390   6.895  13.813  15.082 -0.0785  0.1095 -0.2883
19917W        W36391  17.354  10.788  12.768 -0.1272 -0.1620 -0.0523
19918W        W36392  17.139  11.211   1.021  0.3103 -0.0370 -0.0085
19919W        W36393  17.905  11.978   0.543 -0.0866 -0.1204 -0.1548
19920W        W36394  13.615  10.161   2.934 -0.0547  0.0383  0.0974
19921W        W36395  12.682  17.304   5.841 -0.0205 -0.0742 -0.2556
19922W        W36396   2.156   5.716  14.285 -0.4936 -0.3368 -0.1945
19923W        W36397   7.640  14.488   4.043  0.1858  0.0513  0.2245
19924W        W36398   7.667   0.779   4.503 -0.2385  0.0867 -0.3814
19925W        W36399   5.268  15.738   2.477  0.0135  0.0165  0.0874
19926W        W36400   3.975  16.576   1.410 -0.1300 -0.1205  0.1041
19927W        W36401  10.905  12.587  11.806  0.0621 -0.1060 -0.2141
19928W        W36402   6.805  12.871   0.036 -0.3728  0.4086  0.1167
19929W        W36403   2.807   9.782   1.640 -0.1129 -0.0600 -0.2875
19930W        W36404  11.361  12.497   3.592 -0.0840 -0.1159 -0.0472
19931W        W36405  11.505  14.162   0.443  0.1360  0.1141 -0.1327
19932W        W36406  11.959   2.522   1.437  0.0428  0.1116  0.1743
19933W        W36407   2.507  16.111   1.525  0.1980 -0.0468  0.0042
19934W        W36408  10.824  15.725   3.190  0.1926  0.0979 -0.0921
19935W        W36409   2.479   4.120  14.972 -0.1089 -0.3507  0.2173
19936W        W36410  16.643   6.989   4.109  0.0017 -0.1829 -0.2191
19937W        W36411   8.437   7.783   3.479  0.2027 -0.1498  0.1445
19938W        W36412   8.029   1.728   3.253 -0.2428  0.1356 -0.2620
19939W        W36413   4.906   0.759   0.255 -0.2325 -0.1111  0.3375
19940W        W36414  16.973  11.282  14.645 -0.2257  0.1504 -0.3671
19941W        W36415  16.379   9.872  12.088 -0.0902 -0.2111  0.0997
19942W        W36416  12.148  16.441  13.706 -0.0070  0.1352 -0.1206
19943W        W36417  14.055   4.227  13.614 -0.0259  0.1856  0.0164
19944W        W36418  14.130  10.418   2.540  0.0725  0.0547  0.1154
19945W        W36419   2.132  16.159  12.884  0.0825 -0.3853  0.0963
19946W        W36420   2.827  11.323  15.987  0.0709 -0.2125  0.0006
19947W        W36421  13.393   3.369  15.836 -0.1049  0.1671  0.1226
19948W        W36422  14.432   6.508   4.186 -0.1756  0.0848 -0.0884
19949W        W36423   0.437   6.857   5.311  0.1579  0.3271  0.1158
19950W        W36424   6.825   3.237  13.370 -0.1627 -0.0931  0.0471
19951W        W36425  17.860  12.207  16.454 -0.0038  0.1764  0.0206
19952W        W36426   6.530  14.967  12.301  0.3562 -0.2331 -0.3466
19953W        W36427  10.949   8.230  13.826  0.3583  0.1812  0.0796
19954W        W36428   9.741  12.338  16.318  0.1432 -0.1142  0.0905
19955W        W36429  12.115  14.080   5.098 -0.2468 -0.1801  0.1758
19956W        W36430  12.761   9.598   1.410 -0.1111 -0.0594  0.1820
19957W        W36431   2.475   5.356  13.329  0.0551 -0.3115 -0.0858
19958W        W36432  17.965  14.930   1.795 -0.1772  0.0049 -0.1229
19959W        W36433  15.704  15.044   0.078 -0.0825 -0.2269  0.1033
19960W        W36434   4.150   1.224   1.943 -0.1244 -0.0988  0.0864
19961W        W36435  13.809   5.696   4.317  0.1241  0.0087  0.0225
19962W        W36436   7.440  10.537  11.276 -0.0390  0.0216 -0.0012
19963W        W36437   3.928  16.216   1.749  0.1304  0.1666  0.1889
19964W        W36438   9.508   3.339   3.947 -0.2607  0.1576  0.0341
19965W        W36439   1.191  11.551  13.541 -0.1548 -0.0837  0.3681
19966W        W36440   0.578  13.117   1.382 -0.0068 -0.0048  0.0906
19967W        W36441   5.883   9.706  12.694 -0.3597  0.2019  0.2441
19968W        W36442   8.609   9.756  12.576 -0.0245  0.3823  0.1410
19969W        W36443  15.094   4.506  16.073  0.2091  0.1149  0.2714
19970W        W36444  17.824  15.959   1.665  0.0055  0.1034  0.2210
19971W        W36445  11.673   8.332   1.325  0.1888 -0.0520 -0.1025
19972W        W36446   8.754  16.047  11.597  0.1221  0.1805  0.0820
19973W        W36447   4.984   0.639   1.409  0.0671 -0.2675 -0.1163
19974W        W36448  13.493  16.937  13.327 -0.3790  0.1418  0.1726
19975W        W36449   1.646  12.367   4.141 -0.2506  0.1072 -0.2895
19976W        W36450   0.461  10.873   3.859 -0.3670 -0.0908 -0.1321
19977W        W36451  13.352   6.859  15.868  0.0138 -0.1546 -0.1725
19978W        W36452   3.426  17.215   6.172  0.0575  0.2276  0.0732
19979W        W36453  13.576   7.465  15.862  0.0753  0.2325 -0.5240
19980W        W36454  12.124  17.592  13.007 -0.2407 -0.1296  0.1682
19981W        W36455  16.471  11.041   3.651  0.1638  0.0534  0.1600
19982W        W36456  17.596   4.528  11.589  0.2789  0.0406 -0.1180
19983W        W36457   0.051  17.135  15.678 -0.0178 -0.0154  0.1616
19984W        W36458   6.368   0.439  15.752 -0.0756 -0.3339 -0.0032
19985W        W36459  17.380  14.763   5.381  0.1802  0.2399 -0.0635
19986W        W36460   1.776  13.131  13.252  0.1265 -0.0925  0.0373
19987W        W36461   2.835   2.540   1.542  0.0512  0.1300 -0.0076
19988W        W36462  11.298  13.613   2.497  0.2501  0.2229 -0.2313
19989W        W36463  16.956   6.222  13.355 -0.0262  0.0881 -0.0763
19990W        W36464  11.812   8.791  15.288  0.0269  0.1344  0.0788
19991W        W36465   5.223  14.775   1.391 -0.4477  0.3014 -0.0457
19992W        W36466   3.493  16.749   3.640  0.0919  0.1921  0.1530
19993W        W36467   1.047   6.319  14.007 -0.0181 -0.1659  0.2685
19994W        W36468   4.093   4.419   1.226 -0.3406  0.1944  0.0719
19995W        W36469  16.288  13.186   0.280 -0.2651 -0.1188 -0.0766
19996W        W36470   6.832   8.703   5.076  0.1040 -0.0294  0.1894
19997W        W36471  13.428   9.890  16.443  0.2355  0.1757 -0.1043
19998W        W36472   9.327   7.916   0.285  0.5388  0.1060 -0.2623
19999W        W36473  16.008  13.745  11.541 -0.1620  0.0801 -0.2451
20000W        W36474  14.194  15.666  14.833  0.0265  0.1070 -0.0373
20001W        W36475  10.643  16.980  13.437  0.3561  0.0132  0.0928
20002W        W36476   2.661  17.141  13.788 -0.1453 -0.3244 -0.2985
20003W        W36477  10.832  15.221   0.256 -0.2746 -0.0654  0.0436
20004W        W36478   8.543   7.417  12.767 -0.2426  0.2231  0.0550
20005W        W36479  16.591   2.657  12.022  0.4545 -0.2093  0.1633
20006W        W36480  16.241   7.720  11.794  0.2199 -0.0384  0.0996
20007W        W36481   4.668   0.629  14.918 -0.1510  0.1264  0.0118
20008W        W36482   3.775   6.656   5.000 -0.1138  0.1716 -0.0322
20009W        W36483  15.242   0.034  15.263  0.3705 -0.0582  0.3009
20010W        W36484  14.723  11.626   1.694 -0.1269 -0.1196 -0.1638
20011W        W36485  11.157   8.987  15.086 -0.3020  0.0895  0.0408
20012W        W36486   8.500  13.523   4.811  0.0836  0.2096 -0.0884
20013W        W36487   3.348  10.628  13.644 -0.1717  0.0818  0.0533
20014W        W36488   0.271  17.332   5.252 -0.2808  0.0724 -0.0064
20015W        W36489  14.379  14.646   2.039 -0.2937 -0.0778  0.0170
20016W        W36490  11.339   2.222  13.314  0.1103 -0.3877 -0.1745
20017W        W36491   6.472  17.429   1.473 -0.2336  0.0058 -0.0185
20018W        W36492   2.111   6.530  16.351  0.3211 -0.0219 -0.0649
20019W        W36493   7.250  14.984   0.238  0.0442  0.0991 -0.0388
20020W        W36494  16.272   8.969  16.763  0.1102  0.2866  0.0676
20021W        W36495  13.841  10.635   2.888 -0.2451  0.2752 -0.0019
20022W        W36496  15.561   7.156   3.648  0.1077 -0.1386 -0.1463
20023W        W36497  12.828  16.097  15.683  0.2499  0.1924  0.0271
20024W        W36498  17.984  13.079  13.588  0.0854  0.0318  0.2001
20025W        W36499   5.819   2.487   1.728  0.0611 -0.1620 -0.2595
20026W        W36500   4.297  14.465  14.780 -0.2544  0.0957 -0.2681
20027W        W36501  10.380  11.307   0.976 -0.2355 -0.0536 -0.0706
20028W        W36502  16.890   1.132  13.541 -0.0433  0.1538  0.3616
20029W        W36503   9.201   9.827  14.384 -0.0947  0.3481 -0.1780
20030W        W36504  15.628   2.437  15.673  0.0544  0.0801  0.1358
20031W        W36505   7.413   0.921   0.005  0.1824 -0.1081 -0.2280
20032W        W36506  17.146   2.491  14.139  0.0485  0.1153  0.1798
20033W        W36507   2.542  10.648   3.103  0.1316  0.0017  0.2081
20034W        W36508  13.061  13.938  15.852 -0.0548 -0.0505 -0.0723
20035W        W36509  13.806   3.166   3.803 -0.1460  0.1836  0.3296
20036W        W36510   7.728  17.648  13.725  0.1481 -0.4863  0.3390
20037W        W36511  10.554   9.696  12.300 -0.0504 -0.0368 -0.0376
20038W        W36512   2.344   8.723  13.187  0.0815  0.1257  0.0834
20039W        W36513  13.737  11.173   5.060  0.2848  0.1745  0.2458
20040W        W36514  11.245   1.487  15.818 -0.2369 -0.1009  0.3457
20041W        W36515  15.202   4.211  12.290 -0.2270  0.0566  0.1730
20042W        W36516   2.039  13.079   5.160 -0.0465 -0.0131  0.1159
20043W        W36517  11.200  11.962  13.337  0.1184 -0.0019 -0.0819
20044W        W36518   7.841   5.225  13.201  0.0742  0.3154  0.1663
20045W        W36519  10.694   5.160   0.032  0.0606  0.2031  0.1155
20046W        W36520   2.701  12.854  13.626  0.1445 -0.1462 -0.0135
20047W        W36521  13.378  13.338  15.063 -0.1987  0.1197 -0.0313
20048W        W36522   8.614  11.885  14.593  0.0930 -0.0866 -0.0725
20049W        W36523  12.521  15.150   0.728  0.0018  0.0236 -0.1362
20050W        W36524   7.993  17.140   0.221  0.1068  0.1428 -0.2003
20051W        W36525   7.036  15.190  12.280 -0.1546  0.1216 -0.0134
20052W        W36526   0.605   5.428  12.106 -0.1556  0.1249  0.2537
20053W        W36527   8.170   2.450  10.911  0.1221  0.3220  0.2820
20054W        W36528   3.391  11.567   4.988 -0.0907  0.0295 -0.1771
20055W        W36529  11.394   3.961   0.333  0.2309 -0.1129  0.1008
20056W        W36530  16.744  12.550   0.606  0.2120 -0.1794 -0.1296
20057W        W36531  17.727   8.268  12.724  0.0450  0.1523 -0.0606
20058W        W36532  15.200   8.253   1.334  0.0596 -0.2665  0.2971
20059W        W36533   5.733   3.696   2.674 -0.0396  0.2178  0.2730
20060W        W36534  12.819  12.803  14.280 -0.1428  0.0734  0.0539
20061W        W36535  14.048  12.718   0.189 -0.2256  0.0862  0.1352
20062W        W36536  11.911  14.501   1.320 -0.1503 -0.0233  0.0828
20063W        W36537  14.144   2.786   4.356  0.0830 -0.0252  0.1835
20064W        W36538   6.938   4.854   1.717  0.0943  0.0237 -0.0997
20065W        W36539   2.936  13.816  11.058 -0.4630  0.3360  0.0031
20066W        W36540   0.489  12.591   1.777  0.0781  0.0949  0.1872
20067W        W36541   4.200  15.133   2.078  0.1276 -0.0211 -0.0996
20068W        W36542   4.759   2.961   3.907 -0.2763 -0.0708  0.2933
20069W        W36543   8.719  16.754   1.805 -0.3002  0.0330 -0.0043
20070W        W36544  13.584   3.505   0.258  0.2758  0.0756 -0.2443
20071W        W36545   9.415  13.505   4.943 -0.1511 -0.2863  0.0823
20072W        W36546   7.498   9.594   3.830  0.0600  0.2073  0.0487
20073W        W36547   8.251  12.422  11.943 -0.3298  0.1233  0.1191
20074W        W36548  11.902   4.869  14.323 -0.0151 -0.0663 -0.1617
20075W        W36549   3.392  11.612   1.245 -0.0274  0.2922 -0.0796
20076W        W36550   3.826  13.518   1.318 -0.0699 -0.0635  0.0287
20077W        W36551   9.874   1.834   0.850  0.3157 -0.2144  0.0541
20078W        W36552   4.166  16.669  16.029 -0.2829 -0.3099  0.2199
20079W        W36553  17.747   5.201   5.266 -0.1414 -0.1661  0.0464
20080W        W36554  15.672   5.765  13.707  0.0579 -0.3385  0.1806
20081W        W36555  16.502  10.533   4.883 -0.0116 -0.2032 -0.2406
20082W        W36556   7.089   3.677  16.678 -0.0766  0.4264  0.0110
20083W        W36557  17.354  11.296   6.220  0.0854 -0.0896 -0.2398
20084W        W36558   5.885   1.706   2.533 -0.4164 -0.1914 -0.1926
20085W        W36559  14.376   0.719   1.428  0.0518  0.1549  0.2959
20086W        W36560   1.988   7.215   3.091  0.0179  0.2153  0.0901
20087W        W36561   1.432  15.992   4.013  0.0079  0.2364  0.0251
20088W        W36562  17.311   9.817  14.814  0.2061  0.1113  0.0779
20089W        W36563  13.542  16.045  12.275 -0.0660 -0.0596  0.1747
20090W        W36564   3.080  16.650   1.834  0.2845 -0.1453  0.2229
20091W        W36565   3.142   4.888   1.653  0.2460 -0.3962 -0.1855
20092W        W36566   6.866  12.348   4.434  0.2870  0.1212  0.0362
20093W        W36567   8.567  15.884   1.259 -0.0919 -0.1534  0.1731
20094W        W36568   3.165  16.647   1.269 -0.1388 -0.1801 -0.0194
20095W        W36569  10.668  15.912  12.038  0.0658 -0.2233 -0.2921
20096W        W36570   7.137  15.158  15.166  0.1097 -0.0164  0.6161
20097W        W36571   2.337  13.618  16.492 -0.3005  0.0566 -0.0758
20098W        W36572   9.670   7.095   6.577 -0.1004 -0.1162  0.2102
20099W        W36573  13.324   9.881   4.440  0.0889 -0.0871  0.2260
20100W        W36574   8.299   3.295   4.531 -0.0319 -0.1468 -0.1199
20101W        W36575  12.458  11.953   5.036  0.2550 -0.1817 -0.0068
20102W        W36576   8.475   7.813  16.697 -0.1988  0.0450  0.2249
20103W        W36577   3.924  15.870  11.893 -0.1921  0.0312 -0.0064
20104W        W36578  16.946  11.811  13.486 -0.1849 -0.0884  0.3848
20105W        W36579  12.107   3.660  15.749 -0.1795 -0.2219 -0.2438
20106W        W36580   5.763  12.624  11.742  0.0519  0.0536  0.3426
20107W        W36581  14.230   0.066   5.108 -0.4116 -0.1944 -0.1544
20108W        W36582   6.011  15.971   3.434 -0.1294  0.0665  0.2585
20109W        W36583   2.580   5.331   4.354  0.0706 -0.0505 -0.1447
20110W        W36584   0.315   8.613   4.015 -0.4508  0.0446 -0.1173
20111W        W36585   0.398  12.854  14.244  0.3935 -0.0130 -0.2602
20112W        W36586  12.790  13.207   3.204 -0.2537 -0.1838  0.0519
20113W        W36587   3.570  14.899  11.239 -0.1405 -0.0358  0.2103
20114W        W36588   7.223  13.878   2.471  0.0861  0.2649  0.1267
20115W        W36589  13.596   1.176   4.487  0.2851 -0.0073  0.2013
20116W        W36590   4.086   3.644   2.666  0.0875 -0.4223  0.0531
20117W        W36591   6.962  10.780  14.863  0.4796  0.1670  0.2188
20118W        W36592  11.280   5.812  16.503 -0.3450  0.1526  0.1522
20119W        W36593  16.328   2.959   5.257 -0.2079  0.2528 -0.1551
20120W        W36594  12.732   1.032  14.039 -0.1235 -0.1188 -0.2918
20121W        W36595  17.630   4.172   0.568  0.1442 -0.3115 -0.0118
20122W        W36596  10.785   2.124   4.914  0.2379  0.3791  0.0794
20123W        W36597   0.679   1.472  12.487  0.1205 -0.0368 -0.2744
20124W        W36598  11.734   3.070  12.642 -0.0050  0.0203 -0.3859
20125W        W36599  15.214  12.639  15.272  0.2621 -0.2147 -0.0196
20126W        W36600  15.416   5.920   2.289  0.0824 -0.0573 -0.0578
20127W        W36601  10.723   6.219   1.436 -0.1746  0.1308  0.2111
20128W        W36602  17.466  11.537   4.468 -0.2625 -0.1419  0.1788
20129W        W36603  17.735   0.972  13.395 -0.2168  0.0204  0.1625
20130W        W36604   6.097  16.836   0.710 -0.0420 -0.0782  0.1697
20131W        W36605  13.395   1.187   3.141 -0.2643 -0.0842  0.2378
20132W        W36606  15.690   5.031   4.978  0.1729 -0.0479  0.0977
20133W        W36607  17.274   8.433   5.546 -0.0276 -0.1679 -0.0728
20134W        W36608  16.359   3.034   6.430 -0.0166 -0.0648  0.1035
20135W        W36609  12.596   1.844  16.408  0.0369  0.0683  0.3912
20136W        W36610   3.646  10.831  13.974 -0.4625 -0.1100 -0.1648
20137W        W36611   9.506   5.249   4.117 -0.0404  0.2401 -0.0332
20138W        W36612   8.689  10.913   3.042  0.0118  0.0068  0.3156
20139W        W36613  14.795   3.987   2.024  0.2684 -0.1485  0.0102
20140W        W36614   5.109   3.319   3.817 -0.0004  0.0242 -0.2806
20141W        W36615  13.168  14.531  14.603 -0.3814  0.4762  0.1372
20142W        W36616   3.593  14.957  14.281 -0.0169 -0.0605 -0.0903
20143W        W36617  10.656  14.486  11.076  0.2894 -0.0221 -0.1561
20144W        W36618  12.572  12.092   6.358  0.1345  0.0292 -0.1439
20145W        W36619  12.712  12.721   3.315 -0.0209  0.3322 -0.2696
20146W        W36620  11.280  12.839   4.802 -0.5412  0.0619  0.1342
20147W        W36621  15.021   4.551  12.635 -0.2544  0.0547 -0.2419
20148W        W36622   6.731   3.808   0.816  0.2444  0.1660  0.0819
20149W        W36623  16.454   0.796  13.701 -0.0031  0.1804 -0.1117
20150W        W36624   2.459  11.503   2.451 -0.0538  0.1361  0.4255
20151W        W36625  16.959   8.573  14.507 -0.0157  0.1045  0.0361
20152W        W36626  15.262   7.161  14.400 -0.1443  0.1694 -0.3513
20153W        W36627  12.334   7.167   2.925  0.2718  0.1293 -0.1173
20154W        W36628   7.055   5.271  15.884 -0.1234  0.2540 -0.0789
20155W        W36629  16.408   1.718   4.663 -0.2461 -0.0819  0.1617
20156W        W36630   2.100  10.381  14.544 -0.2230 -0.0114  0.1852
20157W        W36631  17.653   1.437   4.527  0.0577  0.0494 -0.4141
20158W        W36632  13.795  12.609  13.059 -0.0025 -0.1656  0.0052
20159W        W36633  11.348   7.890  14.517 -0.1940  0.2424 -0.2570
20160W        W36634   3.058   4.504   2.664  0.1541 -0.0423  0.1433
20161W        W36635   5.415   3.070   1.584  0.0811 -0.0510  0.1487
20162W        W36636  17.129   5.319  14.253  0.1249 -0.2875 -0.0284
20163W        W36637  13.428  13.742   3.648  0.0013  0.2145 -0.1691
20164W        W36638   1.187  11.164   5.882 -0.1043 -0.0655  0.2359
20165W        W36639   8.133   3.193   3.515  0.2566 -0.1165  0.2070
20166W        W36640   3.944  14.885   1.363 -0.1826 -0.2478 -0.2510
20167W        W36641   4.774   1.544   2.566 -0.1261  0.4262  0.1460
20168W        W36642   7.873  11.479  13.009 -0.0023  0.0477  0.1947
20169W        W36643  10.335   7.413   1.059 -0.1668 -0.1650 -0.1906
20170W        W36644  11.320   0.029  13.224  0.1779 -0.0089  0.0347
20171W        W36645  10.242   0.471   4.914  0.2742  0.0759  0.0890
20172W        W36646   3.945  11.156   3.321 -0.4097  0.0621 -0.2087
20173W        W36647   4.379   4.756   2.545 -0.2778 -0.1076 -0.1903
20174W        W36648   2.443   3.993  14.471 -0.0916 -0.2534  0.1391
20175W        W36649   5.298  12.821  16.311 -0.3180 -0.1288 -0.3780
20176W        W36650  17.078  10.804  15.966  0.0822 -0.2319 -0.0183
20177W        W36651  14.636   8.721   4.935 -0.2672 -0.2381 -0.0335
20178W        W36652  10.077   1.031   1.278 -0.2116 -0.0240 -0.2278
20179W        W36653  13.151   2.391  12.726 -0.1967  0.0553  0.1951
20180W        W36654  13.848   7.093   4.773 -0.1594  0.1275 -0.0924
20181W        W36655   7.619   9.737  11.827  0.1433 -0.1944 -0.0268
20182W        W36656   0.584   1.976   3.583  0.0491  0.1783 -0.1872
20183W        W36657   1.508   3.120  11.354 -0.0183  0.1613  0.1997
20184W        W36658  13.025  14.644   1.915 -0.0537 -0.2040 -0.2529
20185W        W36659   5.278  13.483   2.528 -0.1155  0.1807 -0.3319
20186W        W36660   3.831   9.988   1.865  0.1162 -0.4898 -0.0758
20187W        W36661  13.755  16.165  14.420  0.0502 -0.1664 -0.1209
20188W        W36662   6.410  12.260   3.601 -0.1706 -0.2929 -0.0958
20189W        W36663   5.387  14.153  12.871 -0.2137 -0.1801 -0.1851
20190W        W36664  13.071   4.730  11.848 -0.0200  0.2145  0.2335
20191W        W36665  13.360   1.926  12.558 -0.2169 -0.2031 -0.2148
20192W        W36666   8.095   3.306   5.596 -0.3958 -0.0227 -0.0389
20193W        W36667  11.697   8.427   2.140 -0.1718 -0.0326 -0.1534
20194W        W36668  14.131  10.060  15.557 -0.2757 -0.2865 -0.0707
20195W        W36669  10.841   5.733   0.072  0.1412  0.0399 -0.1723
20196W        W36670   8.213  12.764  14.664 -0.2582  0.2495 -0.0396
20197W        W36671  10.526   6.176  11.803  0.1130 -0.1231  0.1403
20198W        W36672  13.202   7.831  12.149  0.1301 -0.1895 -0.0288
20199W        W36673  12.984  16.371   0.271  0.1718 -0.1716 -0.4543
20200W        W36674   3.494  16.769  14.225 -0.2324  0.0058 -0.1043
20201W        W36675   0.046   4.164   3.154 -0.0411  0.0570  0.1856
20202W        W36676   0.752  12.886  11.417 -0.0165  0.2550  0.2871
20203W        W36677   1.247   3.598   3.526 -0.0402 -0.1606 -0.3450
20204W        W36678  14.569   5.013   1.818  0.0352  0.1235 -0.1570
20205W        W36679  16.777  11.983   2.695  0.0413 -0.2551  0.0904
20206W        W36680  14.608   2.602  12.665 -0.0979 -0.2089  0.2294
20207W        W36681   4.700   4.780  15.295 -0.3043  0.1467  0.2329
20208W        W36682   1.024   2.969  15.055 -0.0127  0.0381 -0.3159
20209W        W36683   2.270   8.309   5.040 -0.0361  0.0629  0.0976
20210W        W36684  11.182   1.323  11.035  0.0064  0.0669  0.2106
20211W        W36685  12.377  16.028  13.139 -0.0525 -0.0104  0.1319
20212W        W36686  17.218  10.983  16.464  0.0911  0.1064  0.0908
20213W        W36687   3.044   2.824  15.471 -0.0257 -0.0954  0.2942
20214W        W36688  11.917  11.800   0.829  0.0781 -0.1464  0.1230
20215W        W36689   1.921   5.924  12.965 -0.2334 -0.0110  0.2243
20216W        W36690   1.856   4.732  14.307  0.0125 -0.0256 -0.0830
20217W        W36691  17.951  13.999  12.238 -0.2648 -0.2104  0.0696
20218W        W36692  14.244   6.770   0.639  0.0719 -0.2684  0.1092
20219W        W36693  16.662   3.622  13.576 -0.0012 -0.1593 -0.2298
20220W        W36694   9.794   0.906   0.449 -0.0299  0.0287  0.1702
20221W        W36695   6.226   2.419  14.547  0.0560 -0.0670 -0.0420
20222W        W36696  12.870  14.789  15.562 -0.2349 -0.0678  0.0428
20223W        W36697  10.654   2.733  15.779 -0.0542  0.2330  0.0315
20224W        W36698   1.397   0.089   4.440 -0.0428 -0.0206  0.0055
20225W        W36699  17.485   7.685  13.434 -0.1022 -0.2208 -0.1661
20226W        W36700   7.768  16.091  15.316  0.3418 -0.0308  0.3146
20227W        W36701  14.721  15.812  13.641  0.0790 -0.0673  0.0561
20228W        W36702   9.978   1.697  16.072 -0.0310  0.3840  0.2494
20229W        W36703  17.515   8.619  15.438  0.0026 -0.0232  0.2620
20230W        W36704  11.340  16.587   3.138  0.3648  0.1359  0.2950
20231W        W36705   6.757   8.253   0.814 -0.0847 -0.2750 -0.2519
20232W        W36706  17.729   4.842  12.179 -0.2059 -0.0338  0.3092
20233W        W36707   8.781   0.422  15.349 -0.3089  0.0410 -0.0719
20234W        W36708  12.984  16.978   4.654  0.0298  0.0163 -0.2158
20235W        W36709  13.410   7.979  13.695  0.3095 -0.2257 -0.2625
20236W        W36710   3.505   3.047   4.157 -0.4881 -0.2266  0.0252
20237W        W36711   5.510   2.521  11.773  0.0675  0.4375  0.2645
20238W        W36712  13.387  16.723   5.206 -0.1099 -0.0112 -0.1140
20239W        W36713   4.453  12.028   2.038  0.2934 -0.3200  0.1098
20240W        W36714   3.417   7.613  16.440 -0.0413 -0.3379  0.0271
20241W        W36715   8.960   3.393   0.699 -0.3524 -0.0313  0.0025
20242W        W36716   0.769  14.465  12.855  0.2664 -0.0357 -0.0262
20243W        W36717   5.544   5.024   3.246  0.1767  0.0649 -0.0003
20244W        W36718   4.523  14.830   1.187  0.1084 -0.1460 -0.2473
20245W        W36719   6.210  17.601  13.570 -0.0672  0.2280  0.1546
20246W        W36720   1.283   1.154  16.210  0.0587  0.0531 -0.1040
20247W        W36721  15.957  13.435  11.906  0.0911  0.0510  0.1104
20248W        W36722   2.135   8.141   2.691 -0.0193  0.0851 -0.0853
20249W        W36723  11.924   0.045  13.222 -0.0343 -0.2812  0.1324
20250W        W36724   6.401   4.544  12.145  0.0628 -0.2269  0.0498
20251W        W36725   8.650   4.227  12.273  0.0604  0.0717 -0.3561
20252W        W36726  12.982  16.488  13.945 -0.1404  0.2108  0.0217
20253W        W36727   8.552   2.708   2.217 -0.0268 -0.1321  0.0114
20254W        W36728   5.493   2.601  12.264 -0.1365 -0.0455  0.1454
20255W        W36729  16.148  12.904   1.310 -0.2358  0.0156 -0.2023
20256W        W36730  15.576  15.537  13.032  0.0863  0.3272 -0.0621
20257W        W36731  17.815   6.878   3.556  0.1000 -0.0923 -0.1236
20258W        W36732   0.519   2.893   4.583  0.1099  0.0562  0.1196
20259W        W36733  17.047   5.309   3.310 -0.0024 -0.1418  0.0766
20260W        W36734   1.437   1.968  12.141  0.0827  0.1537 -0.2363
20261W        W36735  10.316  16.451  16.420 -0.2626 -0.1231 -0.0612
20262W        W36736  15.612  13.286   2.911 -0.3031 -0.0059  0.1376
20263W        W36737   9.569  14.296   2.270 -0.0936  0.0259 -0.1111
20264W        W36738  14.560  12.444   3.044  0.4155 -0.1615  0.0584
20265W        W36739   2.422  17.353  16.501 -0.3646  0.0755 -0.0472
20266W        W36740  12.752   9.953   4.005 -0.2778 -0.1497 -0.3071
20267W        W36741   6.959   7.674  13.780  0.1830 -0.3458 -0.0004
20268W        W36742  14.041   2.696  13.716  0.3235  0.1207  0.0997
20269W        W36743   5.863   1.152   2.484  0.1984 -0.3312 -0.2221
20270W        W36744   8.914  14.041  12.613  0.2321  0.0880 -0.0124
20271W        W36745   4.935   7.785   1.429  0.1485  0.2011  0.3719
20272W        W36746   1.713   7.231   3.568 -0.0221 -0.0644 -0.2578
20273W        W36747   0.305  17.870   4.382 -0.1650 -0.1112  0.0410
20274W        W36748  11.112  10.524  13.538 -0.2446  0.5493 -0.2871
20275W        W36749   3.563   8.367  12.855  0.1565 -0.2868  0.1517
20276W        W36750  13.506  12.864   4.375 -0.1877 -0.0739 -0.1167
20277W        W36751   8.366   5.363   0.748  0.0247  0.0567 -0.1746
20278W        W36752  13.584   6.373   2.301  0.2505 -0.0692 -0.2486
20279W        W36753  13.864   0.136   4.711 -0.0643  0.1032  0.0853
20280W        W36754  11.478  14.912  15.314  0.3761 -0.1964 -0.0331
20281W        W36755   4.558   6.227   0.330  0.0932 -0.2036  0.0074
20282W        W36756  10.446   6.548   0.590 -0.1020 -0.0878 -0.1077
20283W        W36757  10.634  10.687   3.956 -0.0035  0.2395  0.1419
20284W        W36758   4.525   5.142  10.629 -0.1317 -0.0430 -0.1117
20285W        W36759  13.945   8.091  13.412  0.2135 -0.0597  0.0891
20286W        W36760   5.704   7.383   5.598  0.0042  0.2911 -0.2722
20287W        W36761   7.582  16.717  11.927  0.1222 -0.5656 -0.1601
20288W        W36762   3.558   3.812   1.241  0.0389 -0.0530  0.0668
20289W        W36763   9.095   2.763   5.401  0.0263  0.0059 -0.0620
20290W        W36764   2.684   2.612  15.111  0.1214  0.0669 -0.2880
20291W        W36765  10.656  16.780  16.270  0.0094  0.1635  0.3597
20292W        W36766  16.114   8.755   0.482 -0.0314 -0.2528  0.0010
20293W        W36767  13.694  15.354   2.374 -0.1468 -0.2879  0.0282
20294W        W36768   4.577   6.915  12.619 -0.0708 -0.3822 -0.2025
20295W        W36769   5.956   5.868  14.073  0.0172 -0.0100  0.1897
20296W        W36770   2.335   8.047   4.538  0.3041  0.1401 -0.1832
20297W        W36771  17.221   1.813   1.355 -0.0243 -0.0979  0.3141
20298W        W36772  12.607  10.043   5.532  0.2118  0.0561  0.2913
20299W        W36773   6.934   3.541  11.741 -0.0145  0.4439 -0.2534
20300W        W36774   7.066  17.328   4.668 -0.0495  0.2041 -0.2024
20301W        W36775  12.606  10.202   3.001  0.1169 -0.0966  0.2355
20302W        W36776   2.659   2.600   4.588  0.0817  0.0577 -0.0688
20303W        W36777   7.826  11.118   2.934  0.0427  0.2681 -0.2113
20304W        W36778   5.988  11.861  13.008  0.0356 -0.0425 -0.1293
20305W        W36779   2.207  13.105  15.921 -0.0557 -0.0256  0.1017
20306W        W36780   8.552  13.893  13.947 -0.1908  0.1818 -0.0392
20307W        W36781  17.113  10.076  14.347 -0.1773  0.0029  0.0294
20308W        W36782  17.539   7.257   2.485 -0.0649 -0.2562 -0.1688
20309W        W36783  10.909  10.711   3.402 -0.0096  0.1140  0.2128
20310W        W36784  16.963  16.648   4.297  0.0658 -0.2727  0.2398
20311W        W36785  14.799   3.580   2.362  0.1178  0.1253  0.2021
20312W        W36786  13.493   9.375   1.691 -0.1175  0.1765  0.0450
20313W        W36787   9.927  10.674  15.986  0.0117 -0.2103  0.1255
20314W        W36788  12.095   6.089  11.357  0.1095 -0.1532  0.0276
20315W        W36789   9.506   1.655   4.829 -0.0833  0.1318 -0.1417
20316W        W36790   3.704  13.376   1.876  0.1958 -0.3140 -0.3236
20317W        W36791  16.337  10.124   2.773  0.0210 -0.1323  0.0401
20318W        W36792  10.205   1.237   6.070 -0.1350 -0.2202 -0.1362
20319W        W36793   5.877   6.091   0.458 -0.0489  0.2441 -0.1082
20320W        W36794   4.221  16.627  13.895  0.1270  0.0336 -0.1482
20321W        W36795  16.847  16.537  12.044  0.1387 -0.0464 -0.0975
20322W        W36796   9.903   2.147   6.105  0.0375 -0.1949  0.3480
20323W        W36797   4.355   2.696   4.069 -0.3314 -0.3305  0.1391
20324W        W36798   0.808   7.490  14.491  0.0491 -0.0840 -0.1616
20325W        W36799   2.520  15.732  14.853  0.0204  0.0298 -0.2348
20326W        W36800   1.533  11.678   1.512 -0.0846 -0.1086 -0.1681
20327W        W36801   1.375   1.960   2.850 -0.0164  0.1320 -0.2619
20328W        W36802   7.156   7.582   0.278  0.0710  0.1240 -0.1509
20329W        W36803   4.097   8.414  14.451  0.0930  0.0394 -0.0884
20330W        W36804   6.792   7.788  15.927  0.2296  0.1667 -0.1487
20331W        W36805   4.129   6.933   6.297  0.0799 -0.1192 -0.0005
20332W        W36806   9.419   0.949   0.758 -0.0486 -0.0535  0.1580
20333W        W36807  14.423   8.407   2.014  0.1162 -0.0460 -0.1161
20334W        W36808  17.711  10.139  13.501  0.1183  0.2567  0.1186
20335W        W36809   2.743   1.035   3.589  0.1703  0.1158 -0.0834
20336W        W36810  13.022   9.837  14.142  0.4451  0.4253 -0.2577
20337W        W36811  15.437   8.899  11.857  0.0252  0.1909  0.0539
20338W        W36812   6.927  17.877  15.979 -0.1651 -0.1118  0.0078
20339W        W36813   6.636   8.972  12.929  0.0428  0.1952  0.1418
20340W        W36814  10.806  10.413  16.308  0.1755 -0.3386  0.3446
20341W        W36815  15.971   4.818   1.563 -0.0038 -0.1679  0.0808
20342W        W36816  13.975  16.395   0.541  0.3336  0.0502 -0.2885
20343W        W36817  10.252   0.220   0.381 -0.0186  0.1409  0.0143
20344W        W36818   3.380   5.526  16.203  0.2362  0.2872  0.1222
20345W        W36819  16.768   7.966   2.226  0.1646  0.0944  0.3553
20346W        W36820  14.192   0.817  16.038  0.3650 -0.1176 -0.0141
20347W        W36821  15.281   3.585  13.833 -0.0843  0.2501 -0.0309
20348W        W36822  11.074  17.075   2.676 -0.3160  0.0197 -0.1960
20349W        W36823   2.808   2.322   4.088 -0.0454 -0.2733 -0.1977
20350W        W36824   3.331   9.472   1.444  0.0278 -0.0460 -0.0741
20351W        W36825  11.757  11.757   3.373 -0.2800 -0.0104  0.1997
20352W        W36826  16.403   0.515  16.374  0.0137  0.0678 -0.0498
20353W        W36827   0.618   6.289   1.035  0.1633 -0.0866 -0.2369
20354W        W36828  10.591  15.916  15.096 -0.0849  0.1905 -0.0199
20355W        W36829   9.283   4.672   6.534  0.0716  0.0106 -0.1650
20356W        W36830   5.441   5.158   6.311  0.0314  0.0106 -0.0299
20357W        W36831   7.367  15.935  14.727 -0.3553 -0.1093 -0.2758
20358W        W36832  10.454   7.912   0.705 -0.0483  0.0840  0.0985
20359W        W36833  12.237   0.354  12.916  0.0340 -0.0906 -0.0730
20360W        W36834   1.401   2.996   0.658 -0.0260 -0.2542 -0.1326
20361W        W36835  16.264  12.863   2.231 -0.3140  0.1618  0.1674
20362W        W36836   8.040   0.836   4.983 -0.4905 -0.0274  0.1866
20363W        W36837   2.969  10.838   2.797  0.0963  0.1274 -0.1118
20364W        W36838   9.061  14.803  12.672  0.0501 -0.3103  0.0332
20365W        W36839  14.118  10.780   2.163 -0.1141 -0.0694 -0.0220
20366W        W36840   5.726  15.972  16.710  0.1016 -0.1129 -0.0916
20367W        W36841   1.114   0.355  13.045  0.0968  0.2443  0.1479
20368W        W36842   2.329   1.340   4.125  0.3550  0.0039 -0.3889
20369W        W36843  10.049   5.031  14.578 -0.0295  0.1082 -0.2093
20370W        W36844   0.840  10.189  11.592 -0.1210 -0.3311 -0.2057
20371W        W36845  17.971  16.908   4.205  0.0191  0.0549  0.0467
20372W        W36846   8.344   1.342   3.272 -0.1297  0.2864  0.0804
20373W        W36847   2.649   6.738   0.231 -0.1117  0.0415  0.2964
20374W        W36848   9.737  14.122   4.002  0.2366  0.0942 -0.0556
20375W        W36849   8.183   3.146   4.060  0.2684 -0.0594  0.0134
20376W        W36850   6.540  16.464  16.105  0.3332 -0.1694 -0.0775
20377W        W36851  13.733   2.486   4.177  0.1110  0.2124  0.0907
20378W        W36852   2.217   6.754   4.629  0.0579 -0.0235 -0.0569
20379W        W36853   6.144   5.936  13.027 -0.1205  0.2628 -0.2667
20380W        W36854  13.325  16.507  11.335  0.1418 -0.1011 -0.3597
20381W        W36855   4.215  10.682   3.383 -0.2079  0.0993  0.0802
20382W        W36856  14.274  14.154  13.962 -0.4001  0.0508  0.0220
20383W        W36857   5.090  16.798   4.773  0.1203  0.0106  0.1529
20384W        W36858   6.545  12.037   2.291  0.3493 -0.0668 -0.2150
20385W        W36859   1.553   0.121  13.147  0.0901  0.0000  0.2742
20386W        W36860   4.175  14.568  15.887 -0.0492 -0.0651  0.3649
20387W        W36861  11.660   3.267  16.423  0.2591 -0.0786 -0.0080
20388W        W36862   6.099  10.583  11.394  0.0825  0.2797 -0.0227
20389W        W36863  17.666  13.891  14.402  0.0575 -0.0956 -0.5337
20390W        W36864  16.604   0.519   3.902 -0.1633  0.1010 -0.0649
20391W        W36865  13.758  17.436  12.492  0.0698 -0.0503  0.1966
20392W        W36866  12.502   2.374   4.063  0.0404  0.1895 -0.1400
20393W        W36867   8.036   2.912  14.935 -0.0616  0.3412 -0.1182
20394W        W36868  13.502   4.689   5.524 -0.3555 -0.4176 -0.0616
20395W        W36869   9.580   6.809   0.704 -0.1139  0.2006 -0.0327
20396W        W36870   1.398   9.738  15.280  0.0977 -0.2812  0.0475
20397W        W36871   8.221   9.528   0.939 -0.1776  0.2562  0.0317
20398W        W36872   2.982  17.695   2.879 -0.0159  0.0633  0.1645
20399W        W36873   7.606  16.463   5.238  0.0243 -0.0738 -0.1442
20400W        W36874   3.694   3.704   0.003 -0.3645 -0.2971 -0.0441
20401W        W36875   9.188   2.599  11.545  0.2234 -0.0608  0.0683
20402W        W36876  11.889  14.992  16.136  0.2052 -0.0668 -0.1135
20403W        W36877   1.053   1.965   3.723 -0.0389  0.1025 -0.1556
20404W        W36878   0.547  17.132   2.722  0.0111 -0.0930 -0.0415
20405W        W36879   3.011   3.860  15.702  0.3916  0.1342 -0.0079
20406W        W36880   4.709  10.419   0.510 -0.1126 -0.1913  0.0939
20407W        W36881  12.941  15.865   0.860 -0.1260 -0.1598  0.1463
20408W        W36882  15.221   5.172   3.358 -0.2111 -0.1286  0.1275
20409W        W36883   1.697  11.319   0.573 -0.2321 -0.2043 -0.1979
20410W        W36884   6.573   6.036  12.165 -0.1027  0.0391  0.0440
20411W        W36885  17.591   4.028  12.474 -0.0448  0.1008  0.1766
20412W        W36886   7.680  15.893   0.747  0.0919 -0.3009  0.1032
20413W        W36887   4.751  15.585  11.855  0.1269 -0.1461  0.0045
20414W        W36888  12.872   8.252  12.068  0.0483  0.0301 -0.2372
20415W        W36889   4.473   1.950  16.533  0.1707  0.0231 -0.0934
20416W        W36890  15.155   8.154  11.904  0.1946 -0.0681 -0.1113
20417W        W36891  12.312   2.726   2.735 -0.0207  0.1305  0.1282
20418W        W36892   0.234  17.116  16.668 -0.1047  0.0757  0.1146
20419W        W36893  15.204   1.525   3.745  0.1352  0.3267 -0.0423
20420W        W36894   5.190   8.631   4.175 -0.3185  0.1283  0.0422
20421W        W36895  17.669  12.189  11.823  0.0564  0.1776  0.1699
20422W        W36896   5.786   0.330  12.911 -0.0193 -0.1677 -0.0524
20423W        W36897   7.192   9.064  13.936 -0.2496  0.0434  0.2470
20424W        W36898   2.620   9.364   4.412  0.1735  0.0151  0.1725
20425W        W36899   9.607  10.901   3.030  0.2307 -0.2351  0.0191
20426W        W36900   3.568   6.615   6.271  0.0617  0.0430 -0.1160
20427W        W36901   2.142   3.564  16.150  0.0553 -0.0306 -0.1087
20428W        W36902  17.535   6.599   3.903 -0.2287 -0.0732 -0.4357
20429W        W36903  16.559   4.430  13.527 -0.0153  0.0774 -0.2763
20430W        W36904   4.632   2.434  13.118  0.2674  0.0433  0.4283
20431W        W36905   5.038  15.582   2.062  0.0121  0.0923 -0.0233
20432W        W36906  16.652   7.240  14.491 -0.1087 -0.0850 -0.0781
20433W        W36907   5.955  17.423   0.164 -0.0948 -0.1100  0.1104
20434W        W36908   4.182   4.151   5.393 -0.0342  0.0015 -0.0017
20435W        W36909   5.477   5.950   0.820  0.0417 -0.0563 -0.0741
20436W        W36910  10.433  13.210   4.471 -0.2715 -0.0964  0.1486
20437W        W36911  10.004  15.645  12.838 -0.0404  0.3289  0.0691
20438W        W36912   1.726  14.221   0.355  0.0553 -0.1304 -0.0095
20439W        W36913   0.718   1.671  13.568 -0.1763 -0.1318  0.1680
20440W        W36914  15.272   9.364  15.232 -0.5651 -0.1966  0.1842
20441W        W36915  12.418  14.639  13.377 -0.0750  0.0696  0.5387
20442W        W36916   5.093  15.508   2.988 -0.2656  0.0540 -0.4026
20443W        W36917  10.182  14.637  16.746 -0.1041 -0.0587 -0.0672
20444W        W36918   7.683   9.025   1.966 -0.0962 -0.0376 -0.0004
20445W        W36919   8.675   4.517   5.279 -0.0856  0.2402 -0.0148
20446W        W36920  14.693  16.492  11.876  0.2771 -0.0492 -0.0809
20447W        W36921   3.457   7.320  13.543 -0.1227 -0.0219 -0.0325
20448W        W36922   1.229   0.137   1.535  0.0967 -0.1507 -0.1253
20449W        W36923  17.425   7.229  16.435 -0.2256 -0.0158  0.2230
20450W        W36924  14.679   5.689   4.467  0.0838 -0.1904  0.1461
20451W        W36925   1.694  15.487  15.508  0.4796 -0.0661 -0.1076
20452W        W36926   9.531  16.932  14.750 -0.0623  0.1850  0.0418
20453W        W36927  15.031   6.668   4.461  0.1594  0.2088 -0.0511
20454W        W36928   9.247  11.731  13.933  0.0033  0.3071 -0.0191
20455W        W36929   1.875   1.013  12.930  0.1263 -0.0523  0.1846
20456W        W36930  11.605  14.719   2.980 -0.1097  0.3325  0.1172
20457W        W36931  12.107  16.287  14.408  0.2601  0.0998  0.0356
20458W        W36932   5.912  13.696   5.743  0.0930 -0.0527 -0.1247
20459W        W36933   8.916  13.663  13.563  0.2211 -0.2566 -0.0712
20460W        W36934  11.335  11.012  14.836 -0.0174  0.0531  0.0694
20461W        W36935   2.573   2.231   0.285  0.0358  0.0132 -0.1599
20462W        W36936   7.815  10.821  11.604  0.1527 -0.1144  0.0560
20463W        W36937  10.375   0.370  16.194  0.2003 -0.1619 -0.0865
20464W        W36938   8.640   4.965  12.046  0.2447  0.2155  0.2837
20465W        W36939  11.891   5.973   0.550  0.1343  0.0402  0.3592
20466W        W36940   8.505  12.082   2.429  0.0281 -0.1221 -0.1004
20467W        W36941   0.112  15.928   0.638  0.1566  0.2983  0.2742
20468W        W36942   2.731   0.866  13.244 -0.0067  0.3718  0.0852
20469W        W36943  16.186  13.387  16.479  0.2997  0.0650 -0.0327
20470W        W36944   3.950  17.897  12.621  0.1736  0.3163  0.1665
20471W        W36945  13.159   3.679  16.756  0.0574  0.3051 -0.3305
20472W        W36946  12.570  16.663   1.068  0.1661 -0.0196  0.0398
20473W        W36947   0.950  15.035   1.407  0.1815  0.3712  0.0621
20474W        W36948   5.955   7.240   4.285 -0.0626 -0.2247  0.0825
20475W        W36949  14.576  13.022  13.211 -0.2526  0.1147 -0.4087
20476W        W36950   3.019   5.131   3.921  0.0812 -0.0023  0.1036
20477W        W36951  14.166   8.333   2.978  0.2815 -0.1632  0.0805
20478W        W36952  16.842  16.816  13.659  0.2291  0.2984 -0.0042
20479W        W36953   4.247  11.216  11.792 -0.2291  0.1320 -0.1092
20480W        W36954  15.458  15.972  14.871 -0.0093  0.4364  0.1509
20481W        W36955  15.296   5.462  16.580  0.2005  0.0509 -0.3513
20482W        W36956   3.870   9.279   5.151 -0.0747  0.0956 -0.1949
20483W        W36957   4.742  13.683  13.586 -0.1989 -0.0625  0.2520
20484W        W36958   0.832  11.227  13.697  0.0323 -0.1496 -0.1242
20485W        W36959  13.200   8.094   3.353 -0.0997 -0.0593  0.1530
20486W        W36960   5.247  15.855   3.682  0.0436  0.0470  0.1064
20487W        W36961   9.769  17.470  11.593 -0.1145  0.1048  0.2584
20488W        W36962   0.131   0.061   5.051  0.0157  0.1705  0.1952
20489W        W36963  13.791   5.580   1.868  0.0615 -0.1086  0.0309
20490W        W36964   3.878  11.376  12.652  0.2158  0.0181 -0.0194
20491W        W36965   3.398  16.913  16.288 -0.1864  0.1019 -0.0152
20492W        W36966   4.080   3.776   1.790 -0.0392  0.1142 -0.0111
20493W        W36967  14.749   3.110  12.571  0.0095 -0.0835 -0.1627
20494W        W36968   2.957  14.541  14.205  0.0762 -0.0122  0.0991
20495W        W36969  14.719   5.143   5.389  0.3921 -0.4565  0.1896
20496W        W36970  13.797  16.336  11.656 -0.0303  0.2471  0.0809
20497W        W36971  13.077  10.531   3.621  0.0317  0.3322  0.0512
20498W        W36972   5.743   7.909   0.023 -0.0572  0.3100  0.1795
20499W        W36973   6.606  14.829   3.838  0.2144  0.0871  0.0218
20500W        W36974   6.047   7.859  15.563 -0.0686  0.0410  0.0948
20501W        W36975  15.863   7.781   0.639 -0.1702 -0.3109 -0.0398
20502W        W36976   5.291   1.519   3.954 -0.1062  0.1725  0.1348
20503W        W36977   6.802  16.818   1.486  0.2425  0.1520 -0.0301
20504W        W36978   5.729  17.081  14.967 -0.2657  0.2257 -0.1802
20505W        W36979   2.772   6.177  15.758  0.0653 -0.1187 -0.0049
20506W        W36980  12.781  12.303  16.412  0.3072 -0.0210  0.0686
20507W        W36981   5.797  15.275   4.847  0.2951  0.2538  0.1083
20508W        W36982  10.848   3.374   3.905  0.0286 -0.0440  0.1942
20509W        W36983   4.740   7.096  12.143 -0.0469 -0.2738 -0.0277
20510W        W36984   4.285  10.236  15.985 -0.0604 -0.4243 -0.0888
20511W        W36985  16.711   4.956   1.537  0.1996 -0.0116  0.0205
20512W        W36986   6.911  17.752   3.749 -0.1603  0.2580  0.1989
20513W        W36987   9.086   6.347   5.305 -0.1651 -0.0649 -0.3215
20514W        W36988   5.814   0.750  16.588 -0.1340  0.1956 -0.0553
20515W        W36989  11.816  17.533  14.173 -0.1271 -0.1030  0.1342
20516W        W36990   1.951  17.131   0.864  0.2598 -0.1248  0.2788
20517W        W36991   5.978  15.432  12.698  0.2331  0.0848  0.0683
20518W        W36992   6.113   4.987  13.271  0.1846  0.0388 -0.2639
20519W        W36993   1.673   0.711  15.444  0.4817 -0.1842  0.0135
20520W        W36994   2.080  15.082   1.589 -0.1941 -0.2241 -0.2286
20521W        W36995   1.126   0.520  13.968 -0.1574 -0.4437 -0.0214
20522W        W36996  14.279   0.408   2.925 -0.2242 -0.2072 -0.0306
20523W        W36997  11.119   7.104  14.725 -0.1757 -0.0409 -0.1176
20524W        W36998   9.607  10.992  12.332  0.0489 -0.2417 -0.1920
20525W        W36999   7.673  10.056   0.759  0.2098 -0.3517 -0.4365
20526W        W37000   7.034   0.687   4.592  0.2005  0.2091  0.1032
20527W        W37001  14.478  16.616   4.300 -0.1240  0.1794  0.0941
20528W        W37002   4.774   9.534  16.265  0.0457 -0.0410  0.0617
20529W        W37003  11.601  13.755  12.320  0.2744 -0.0587 -0.1590
20530W        W37004   8.195  14.762  12.228 -0.0723  0.2334  0.0172
20531W        W37005   9.522  17.615  10.130  0.0804 -0.1901  0.0174
20532W        W37006  14.708  16.486  14.467  0.0501  0.1882  0.0643
20533W        W37007   0.156   2.101  13.936  0.2574 -0.2083  0.0758
20534W        W37008  15.965  14.551  14.042 -0.0948 -0.1498 -0.0746
20535W        W37009   8.073   9.576  16.057  0.2071  0.3258  0.1626
20536W        W37010   8.541   5.376   4.572  0.2125  0.1982  0.1776
20537W        W37011   7.785   3.715  12.070  0.0923  0.0359 -0.3223
20538W        W37012  15.459   3.191   2.520  0.0949  0.3866 -0.1039
20539W        W37013   9.207  13.456  14.923  0.0215  0.3987 -0.0868
20540W        W37014   4.070   3.189  16.660  0.1786  0.3096 -0.1301
20541W        W37015   2.104   8.713   1.368 -0.0120 -0.1073 -0.0672
20542W        W37016  11.958   9.324   0.867 -0.2326  0.1561  0.0214
20543W        W37017  14.479   5.924   0.045 -0.3337 -0.2841  0.0981
20544W        W37018  12.315   6.663  13.336 -0.3567 -0.0181 -0.0144
20545W        W37019   2.186  11.657   4.116  0.1488  0.0385  0.0894
20546W        W37020   1.963   1.874   5.547  0.0401  0.0879 -0.0138
20547W        W37021  14.393  16.487   0.220  0.1797 -0.0089 -0.2587
20548W        W37022   2.652   5.807   2.769 -0.0214  0.1671 -0.4089
20549W        W37023   5.710  12.014  12.551 -0.1213 -0.0103 -0.0325
20550W        W37024  14.279   0.682   5.371 -0.0145 -0.2949  0.1144
20551W        W37025  15.962   2.113   0.455  0.0581  0.0379  0.4528
20552W        W37026   8.723   2.325  12.743  0.2620 -0.2300  0.1120
20553W        W37027   4.213   9.779  11.765 -0.0328  0.2671 -0.0274
20554W        W37028  12.778   9.196   1.144 -0.0007  0.1649  0.0047
20555W        W37029  11.116   5.262   2.152 -0.1350  0.2619 -0.0797
20556W        W37030   9.493   6.286   3.486 -0.3797  0.4587 -0.1385
20557W        W37031  15.900  16.300   2.836 -0.0295  0.1379 -0.0150
20558W        W37032   2.242   2.187  12.337  0.1031  0.0153  0.0339
20559W        W37033  10.855   6.194   1.932 -0.0246  0.1585  0.0148
20560W        W37034   2.907   0.615   1.904  0.0318 -0.0006 -0.0798
20561W        W37035   3.573  11.855   2.235  0.1364 -0.1307  0.0583
20562W        W37036  12.879  16.358  11.499 -0.0213 -0.0276 -0.2399
20563W        W37037  12.902  13.630   4.283  0.1197  0.0217 -0.0497
20564W        W37038   7.692   9.848   6.224  0.2008  0.1744  0.0707
20565W        W37039   5.397  10.073  15.017  0.1179 -0.1131  0.0489
20566W        W37040   7.641   2.578   3.583  0.0868  0.1303 -0.0985
20567W        W37041   0.212   9.316   1.113  0.2439 -0.0314 -0.0485
20568W        W37042  12.191   4.124  12.075 -0.2391  0.2003  0.0490
20569W        W37043   9.021   5.067   3.801  0.2413  0.0392 -0.2534
20570W        W37044   5.048  11.980  12.528 -0.1143  0.1855 -0.1778
20571W        W37045  17.148  13.861   2.201 -0.3572 -0.1675 -0.2007
20572W        W37046   8.747  15.760  14.130  0.1603  0.0734  0.0661
20573W        W37047  11.710  12.070  16.483 -0.5374  0.2762 -0.1097
20574W        W37048  13.100   5.598  12.057 -0.2366 -0.0009  0.0812
20575W        W37049  13.259   9.128  16.216 -0.1188 -0.0726 -0.0123
20576W        W37050   2.899   1.307   5.046  0.2051  0.0676 -0.2038
20577W        W37051   2.056   0.846  12.493 -0.0785 -0.1790  0.1770
20578W        W37052  11.574  13.884  16.672 -0.0431  0.0708 -0.1432
20579W        W37053   9.777   9.181  15.645 -0.0365  0.0912  0.1934
20580W        W37054   8.348  14.285  14.761 -0.0577  0.2546 -0.1723
20581W        W37055  15.225  16.333   0.836  0.0483 -0.0450 -0.1287
20582W        W37056   3.296  13.017  15.823  0.1011 -0.1721  0.0181
20583W        W37057  17.427  12.850   0.894 -0.0356  0.0542 -0.1778
20584W        W37058   4.633   6.112  16.506  0.0841 -0.0437 -0.0396
20585W        W37059  16.540   8.520  14.747  0.0991 -0.1601  0.0495
20586W        W37060   3.877   8.469   5.139 -0.0178  0.0913 -0.3871
20587W        W37061   7.918   8.562  16.670  0.3024 -0.0226  0.1678
20588W        W37062  14.780   2.108   3.477  0.2981 -0.1292 -0.0825
20589W        W37063  16.380   2.544  15.163  0.0733  0.1145 -0.0066
20590W        W37064  16.337  15.708   3.773  0.0163  0.2844 -0.0117
20591W        W37065  16.839   8.952   3.941 -0.1279 -0.0153  0.0826
20592W        W37066   8.512   6.990   5.369  0.2622  0.2886  0.0494
20593W        W37067  13.306   9.230  14.683  0.1653 -0.0707 -0.3594
20594W        W37068   1.864   1.941  14.372  0.0914  0.1486 -0.2018
20595W        W37069  16.946  10.548  15.059 -0.2152 -0.2266  0.2166
20596W        W37070  13.604   5.046  13.557  0.1748  0.0118  0.0326
20597W        W37071  12.890  14.322   2.374  0.1244 -0.1817  0.2254
20598W        W37072   5.325  17.806  13.813  0.0428 -0.3280 -0.1603
20599W        W37073  11.776  10.218   3.582  0.0394 -0.1502  0.3529
20600W        W37074   6.944   6.092   2.673  0.2138 -0.3183  0.2611
20601W        W37075  16.520   0.028  13.122 -0.0130  0.0773 -0.0876
20602W        W37076   6.439  10.429   1.573  0.2319 -0.0991  0.0854
20603W        W37077  12.603   3.360   6.375  0.2702 -0.0921  0.1097
20604W        W37078  17.686  13.303   1.053 -0.1584  0.0475  0.0956
20605W        W37079  15.887  16.039   1.554  0.3705  0.0634 -0.0529
20606W        W37080   2.153  11.701   2.869  0.2036 -0.2351  0.2558
20607W        W37081  12.983  16.611  12.506  0.0247  0.0163 -0.1351
20608W        W37082   6.117  10.895   5.035 -0.3347 -0.0757 -0.1663
20609W        W37083   2.639   8.655  11.510  0.4681 -0.0385  0.0625
20610W        W37084   5.669  14.937  12.647  0.3701  0.0890 -0.0326
20611W        W37085  16.995   2.127  14.702  0.4020  0.1875  0.0438
20612W        W37086   8.593   6.937  12.585 -0.3209 -0.0524  0.0899
20613W        W37087  13.918   4.371   0.248 -0.3936 -0.0455 -0.1795
20614W        W37088  14.062   2.077  13.016 -0.0356  0.0941  0.2231
20615W        W37089  13.697   8.039  16.441 -0.0395  0.1254 -0.0359
20616W        W37090  14.640  12.906  11.515  0.1688  0.0782  0.0204
20617W        W37091   3.484  11.984   5.276 -0.0867 -0.0216 -0.2018
20618W        W37092  17.927  11.507  12.461 -0.0222  0.2287 -0.3317
20619W        W37093  10.676   3.886   3.974 -0.1699 -0.2476  0.2328
20620W        W37094  13.250   1.495   2.724 -0.2336 -0.2526  0.0149
20621W        W37095   1.928  14.187  10.750  0.3207 -0.1836 -0.1697
20622W        W37096  11.284  11.033   5.066 -0.0588  0.3095 -0.2045
20623W        W37097   7.335  10.781   3.605 -0.0496  0.1631 -0.1028
20624W        W37098   8.988   3.819   4.650 -0.0400  0.1756 -0.1098
20625W        W37099   3.227   4.640  15.385 -0.0594  0.0588 -0.0680
20626W        W37100   2.923   2.177   2.346 -0.1971 -0.2670 -0.2361
20627W        W37101  14.552  17.031   2.346  0.2148  0.3770 -0.1182
20628W        W37102  14.933   8.389   4.760  0.1912  0.0761  0.1222
20629W        W37103  17.455   2.983   1.316 -0.2537  0.0884  0.0378
20630W        W37104  17.903  12.147   1.427 -0.0084 -0.1478  0.3573
20631W        W37105  15.246   9.429   2.326 -0.1300  0.2221 -0.3343
20632W        W37106   9.445   0.178  13.415 -0.0894  0.0617 -0.0939
20633W        W37107   4.158   8.195   3.326 -0.0580  0.2391 -0.1933
20634W        W37108  12.713   8.201   3.299  0.0913  0.0420  0.0295
20635W        W37109   6.197   9.908  13.039 -0.2129  0.0411  0.0786
20636W        W37110  14.292   6.533   3.558  0.2334  0.1701  0.2065
20637W        W37111  11.713  14.290   1.805 -0.0263 -0.1480  0.3783
20638W        W37112  12.887   3.626  12.368  0.2509 -0.0181  0.0378
20639W        W37113   2.522   9.317  13.200 -0.2379 -0.1882  0.0190
20640W        W37114   1.438   8.731  13.119 -0.0371 -0.1206 -0.2654
20641W        W37115   2.359  14.646   1.390 -0.0492 -0.2225 -0.0124
20642W        W37116  17.745  16.287  14.652 -0.2279 -0.2853  0.3955
20643W        W37117  10.892   4.722   3.417 -0.0805  0.2073 -0.1096
20644W        W37118   5.600  15.638  15.558 -0.0631 -0.0249 -0.2377
20645W        W37119   0.450   7.261   5.015 -0.2170 -0.0214  0.1598
20646W        W37120   2.613  16.928  16.404  0.1394  0.1552  0.1312
20647W        W37121   0.221   9.911   3.646  0.0463  0.1280 -0.0858
20648W        W37122   5.304   9.231   4.651  0.0688  0.1124  0.2474
20649W        W37123   7.381   9.851  15.115  0.0811  0.0776  0.2873
20650W        W37124   1.023   4.903   5.712  0.1380  0.0979 -0.2161
20651W        W37125  11.038   6.854   2.451 -0.1269  0.2384  0.1273
20652W        W37126   2.106  16.855   0.242  0.1323 -0.2560  0.1650
20653W        W37127  16.139  11.607   4.354 -0.1418  0.0565  0.0248
20654W        W37128  15.392  15.838   0.594 -0.1372  0.2542 -0.2144
20655W        W37129   2.363  13.910  15.374 -0.1545  0.1419 -0.1460
20656W        W37130  13.036  13.582   1.101  0.3261  0.1240 -0.2412
20657W        W37131  17.877  10.665  15.240 -0.1131  0.3089  0.1182
20658W        W37132   7.712   0.592   5.241  0.1188  0.0468 -0.0366
20659W        W37133   3.852   5.120  12.830 -0.0712 -0.1613 -0.3173
20660W        W37134   4.854  15.033   2.226  0.2932 -0.0240 -0.0331
20661W        W37135  13.901   3.116   0.135  0.0625 -0.0381  0.0937
20662W        W37136  17.689   5.616   2.236 -0.0325  0.0355  0.0199
20663W        W37137  13.969   4.718  13.379  0.1612 -0.1931 -0.1731
20664W        W37138  13.037  15.096   2.222  0.0299  0.2783  0.0593
20665W        W37139   0.477   0.047   2.379 -0.0814  0.0002 -0.0447
20666W        W37140   4.077  12.024   2.382 -0.1903  0.1402  0.1981
20667W        W37141   7.463   6.203  15.052 -0.0424  0.0765 -0.0511
20668W        W37142  12.633  14.920   5.526  0.0634  0.2405  0.1624
20669W        W37143   2.576  10.017  16.135  0.3702 -0.1142 -0.2692
20670W        W37144  12.007  16.018  12.657 -0.1011 -0.0943  0.1155
20671W        W37145   1.604  17.131  14.122  0.1426  0.1243  0.2589
20672W        W37146   4.409   8.174   3.720 -0.1134  0.1537 -0.0114
20673W        W37147  11.399  10.825  11.326  0.0524  0.1377  0.2625
20674W        W37148  14.994   1.832   4.096  0.0650  0.0416 -0.1332
20675W        W37149   6.665  10.881   4.081  0.0730  0.4045 -0.0148
20676W        W37150  12.787   7.388   2.157  0.1211 -0.0606 -0.1009
20677W        W37151   0.687   4.845   2.723  0.1924  0.0135 -0.0910
20678W        W37152  10.155   3.953  16.301  0.1334 -0.0574  0.0830
20679W        W37153   1.731  10.731   2.552 -0.0286 -0.2036  0.2367
20680W        W37154   3.474  15.178   2.830  0.3009  0.3587  0.1947
20681W        W37155  10.308  13.883  14.447  0.1321 -0.2932  0.1666
20682W        W37156   5.836   3.345   3.268  0.1592  0.0256 -0.2971
20683W        W37157   9.271   1.177  13.560 -0.1597  0.0611  0.1791
20684W        W37158   3.809  16.514   3.976 -0.0532 -0.1253  0.1798
20685W        W37159  11.847  10.221   2.910  0.1266  0.3599 -0.3643
20686W        W37160   7.652  12.928   4.902  0.1484  0.1123  0.0617
20687W        W37161  13.902  17.981   3.346  0.0570 -0.0238 -0.0399
20688W        W37162  13.347   0.120  13.197  0.1421  0.0114 -0.1478
20689W        W37163   1.138   3.181  13.625  0.0409  0.1520 -0.0527
20690W        W37164  11.935   5.377   3.362  0.2721 -0.1234  0.2528
20691W        W37165  15.356   6.286   6.004 -0.1295 -0.1409 -0.0468
20692W        W37166   6.613  15.504  14.468 -0.1088 -0.0733  0.1127
20693W        W37167   5.875  17.705   0.634 -0.2063 -0.1872  0.0313
20694W        W37168   7.313   7.682  12.740  0.0734 -0.4480  0.2628
20695W        W37169  17.726   6.386  13.912 -0.0892  0.0836  0.1238
20696W        W37170  12.378  13.019   6.082  0.0792 -0.1552  0.1374
20697W        W37171   4.563   7.670   3.908  0.1453 -0.0916 -0.1029
20698W        W37172   1.902   9.734  15.717  0.0371  0.1318 -0.1454
20699W        W37173   1.583  12.618  14.494 -0.0960 -0.0496 -0.0975
20700W        W37174   9.096  17.421   2.198 -0.1961  0.2874  0.0351
20701W        W37175   8.637  12.119   4.623 -0.0970  0.2256 -0.1717
20702W        W37176  10.202  17.116   4.754  0.1382  0.0331  0.0400
20703W        W37177   7.869   0.186  15.058  0.1493  0.0796 -0.2138
20704W        W37178  15.051   2.254  10.556 -0.1622  0.0272 -0.1542
20705W        W37179  11.964  13.830   1.998  0.2235 -0.2477 -0.2340
20706W        W37180  14.080   0.710  12.536 -0.1950 -0.0585 -0.0572
20707W        W37181   3.137  12.620  12.245 -0.1874  0.0976 -0.0012
20708W        W37182  12.334   2.249  14.050  0.2299  0.1547  0.2157
20709W        W37183  10.261  15.528  15.679  0.2700  0.1379 -0.0425
20710W        W37184   7.703   3.634   5.923  0.2888 -0.2116 -0.1933
20711W        W37185   1.939   1.357   6.248 -0.0910 -0.0857  0.1258
20712W        W37186   7.149  12.496  15.617  0.0533  0.2853 -0.0971
20713W        W37187   6.836   2.074  11.300 -0.1640  0.0949 -0.3219
20714W        W37188   1.319   5.394   4.954 -0.1357 -0.0069  0.0151
20715W        W37189   1.111   9.860  16.011  0.0310  0.0519 -0.0811
20716W        W37190  10.151   7.200   6.601  0.5150 -0.0737  0.1887
20717W        W37191   3.980   0.790  14.050  0.0654  0.0972 -0.1261
20718W        W37192  15.189   8.200  14.991  0.0431  0.0219  0.0304
20719W        W37193   6.849   7.529   5.865 -0.2245  0.0647 -0.1293
20720W        W37194   7.524   2.095  12.030  0.4127 -0.1153  0.0385
20721W        W37195   1.631   3.205   2.540 -0.0253 -0.5770 -0.1602
20722W        W37196   3.548   5.668   0.340 -0.2532  0.2479  0.0511
20723W        W37197  12.232   5.643   1.634  0.1580  0.0340 -0.0850
20724W        W37198   7.223  17.098   0.246 -0.5267  0.3271 -0.0871
20725W        W37199   1.005  15.920  13.794 -0.0553 -0.0807  0.1415
20726W        W37200   9.392   4.047  15.203 -0.0472 -0.0474  0.0905
20727W        W37201   5.566   3.543  12.349  0.2743  0.1999  0.1650
20728W        W37202   9.158   0.400   1.922 -0.0063 -0.2023 -0.1342
20729W        W37203  11.138  13.601   1.160 -0.0163  0.0839 -0.1220
20730W        W37204   6.498  10.604   4.952 -0.1006  0.0880 -0.0755
20731W        W37205   3.635   2.678  15.168 -0.0926 -0.2293  0.1897
20732W        W37206   9.775  16.229   2.814  0.1158 -0.1159  0.0086
20733W        W37207   6.354   9.945   3.245  0.2395 -0.1997  0.3350
20734W        W37208  13.470   7.897   1.111  0.1558 -0.1334 -0.1086
20735W        W37209   1.239  12.011   2.046 -0.0615 -0.2134  0.1271
20736W        W37210   5.224   9.682   2.808 -0.1198  0.3990 -0.0906
20737W        W37211  14.939   5.635   3.285 -0.2243 -0.0558 -0.0924
20738W        W37212   5.623   1.707  14.251  0.2945  0.1840  0.3015
20739W        W37213   6.634  15.740   4.621 -0.2367  0.3073 -0.0360
20740W        W37214   7.511  11.476  12.565 -0.3004 -0.0539  0.3466
20741W        W37215  15.529   5.646   3.817 -0.0981  0.1251  0.3476
20742W        W37216   9.708   8.013   3.412 -0.0826  0.0603 -0.3961
20743W        W37217  12.703   7.747  11.821 -0.0157  0.1069 -0.0644
20744W        W37218   2.727   0.272   0.514 -0.0050  0.0946  0.0075
20745W        W37219   8.887   9.662   2.697  0.4013  0.3201 -0.0629
20746W        W37220  14.722   5.916  11.755 -0.2009 -0.0215 -0.2051
20747W        W37221   7.505  11.369   0.088 -0.0385  0.4221 -0.0551
20748W        W37222   0.360   9.563   1.592  0.0187  0.2851  0.0613
20749W        W37223  16.724  15.322  16.462 -0.2348 -0.1802  0.0711
20750W        W37224  17.769   6.993  16.776 -0.1367 -0.1871 -0.1619
20751W        W37225  13.041  17.649   0.834 -0.2643  0.0963  0.0152
20752W        W37226  16.673   3.534  15.095  0.1215 -0.2859  0.3045
20753W        W37227  15.286  12.545   4.702  0.1492  0.0110 -0.4249
20754W        W37228   1.108  14.212   2.383 -0.1985  0.1955 -0.1396
20755W        W37229  15.829   9.784  16.676 -0.1772 -0.0938 -0.4127
20756W        W37230   3.313   8.163  11.835  0.0808 -0.2069 -0.1741
20757W        W37231   5.914   7.290   1.211  0.1708  0.0297 -0.0659
20758W        W37232  11.489   4.660  13.572 -0.0445  0.0543 -0.3041
20759W        W37233  16.085  13.001  12.588 -0.3497 -0.0015 -0.1654
20760W        W37234  16.931  10.979  12.510  0.1613 -0.1245  0.0457
20761W        W37235  16.507   5.457  14.176 -0.3795 -0.0308 -0.1459
20762W        W37236  11.124   7.782  12.643  0.2884 -0.2236 -0.1375
20763W        W37237   9.008  12.546  16.589  0.0109 -0.1343 -0.0728
20764W        W37238  11.503  13.485  14.001  0.1103  0.1187 -0.2653
20765W        W37239  11.506  12.919  15.676  0.2393  0.1018 -0.0466
20766W        W37240  15.856   1.229   4.974  0.1658 -0.0946  0.2706
20767W        W37241  16.754   2.026  12.074  0.0379  0.0717  0.0900
20768W        W37242   0.167  12.321  12.146  0.0774  0.0059 -0.2002
20769W        W37243  11.879  16.005  16.121 -0.2708  0.3127 -0.1536
20770W        W37244  11.240  16.097  11.741 -0.3946  0.4456  0.0799
20771W        W37245   5.417  17.136   2.533  0.2183  0.2826 -0.1700
20772W        W37246   1.927  17.300  14.411  0.0924 -0.4023  0.1733
20773W        W37247  10.971  17.233  13.121  0.0029  0.1729  0.2645
20774W        W37248  14.653  16.448  13.669 -0.1033  0.3492 -0.1414
20775W        W37249   2.262  12.002  11.386  0.1309 -0.0751 -0.2586
20776W        W37250  13.567   6.086  15.242 -0.3258 -0.1760  0.0334
20777W        W37251  13.814   8.054  11.663 -0.0678 -0.1841  0.1396
20778W        W37252   6.815  10.316  13.729  0.1180 -0.2249 -0.1573
20779W        W37253   4.533  11.179  15.627 -0.1506 -0.0289 -0.1142
20780W        W37254  16.336   7.833   2.483  0.2378  0.2895  0.0427
20781W        W37255   3.272  11.165  15.321  0.1752  0.0231 -0.1415
20782W        W37256  16.384   6.377  16.314 -0.0382 -0.1959 -0.1130
20783W        W37257  15.801  17.984  14.372  0.2847 -0.1892  0.0736
20784W        W37258   8.816   9.488   3.214 -0.2430  0.0085  0.0455
20785W        W37259   9.345   5.446  15.693  0.0823  0.0903  0.0204
20786W        W37260   0.414   4.517   4.180  0.1318 -0.0082  0.1139
20787W        W37261  13.949   2.663  11.973 -0.0116 -0.0431  0.0709
20788W        W37262  10.775   0.195   2.032 -0.0677  0.1246  0.0178
20789W        W37263   2.824   6.165   5.357  0.1267  0.1212 -0.2521
20790W        W37264   0.132   3.808  16.575  0.0521  0.1144 -0.0863
20791W        W37265   0.739   4.006  14.180  0.1522  0.4037  0.2262
20792W        W37266  12.430  10.032   4.707 -0.1417 -0.2002  0.1049
20793W        W37267   2.218   0.399   5.295 -0.1225 -0.0243  0.0780
20794W        W37268   2.535  11.317  14.705 -0.2249  0.1000  0.3573
20795W        W37269   1.876   7.255   2.367  0.4023  0.2927  0.2490
20796W        W37270   1.130   0.841  15.214 -0.1377 -0.0381 -0.4180
20797W        W37271   8.232   6.261   4.938  0.3245 -0.1007 -0.0233
20798W        W37272   7.715   4.525   5.406 -0.0451 -0.2881  0.1988
20799W        W37273   7.556  16.975   3.390 -0.0156  0.2101 -0.2543
20800W        W37274   3.008   5.639   3.091 -0.0027  0.5172  0.0922
20801W        W37275   1.822  13.938  12.439 -0.2769  0.1612  0.2980
20802W        W37276   8.213   7.138   4.350  0.2525 -0.1813 -0.1479
20803W        W37277  10.034  13.619  13.818  0.0868  0.0169  0.3904
20804W        W37278   3.363   2.569   3.406 -0.4396 -0.0222  0.2500
20805W        W37279  12.292   6.020   1.966 -0.1797 -0.1647 -0.1133
20806W        W37280   5.877  10.360  15.018 -0.1673  0.1156 -0.0592
20807W        W37281  16.536   2.311  14.768 -0.0164  0.0292  0.2112
20808W        W37282  14.904   6.499   3.058 -0.1367 -0.2026  0.0627
20809W        W37283   3.775  14.266  13.246  0.1049 -0.0148 -0.1700
20810W        W37284   0.529   9.712   0.703 -0.0237 -0.0012  0.2150
20811W        W37285   1.809  13.728   1.804  0.2288  0.1113  0.1374
20812W        W37286   2.110   8.742  11.549  0.0305  0.1300 -0.1051
20813W        W37287   5.085  13.789  13.170  0.1742 -0.1975 -0.1725
20814W        W37288   8.370   3.307  15.184 -0.0850  0.2692  0.0718
20815W        W37289  14.799   1.988   0.165  0.1809 -0.1743 -0.1136
20816W        W37290   4.439   2.491   5.215 -0.0318  0.0934  0.0233
20817W        W37291   2.930  15.140   2.896 -0.0330  0.0266 -0.2319
20818W        W37292   1.252   6.603   2.653 -0.1586 -0.1208  0.0167
20819W        W37293   3.046   8.580   4.081 -0.1556  0.1678  0.0252
20820W        W37294  15.354   5.041  15.348 -0.1289 -0.1426  0.2634
20821W        W37295  14.908   5.221   4.493  0.0438 -0.0501  0.2358
20822W        W37296  13.958  10.608   4.559 -0.0087 -0.1311  0.3288
20823W        W37297  13.880  10.305  14.262 -0.2089  0.2193 -0.3058
20824W        W37298   7.522  17.141   1.617 -0.2216 -0.2135  0.1580
20825W        W37299  16.140  12.082   1.017 -0.2864 -0.0793 -0.1627
20826W        W37300   6.520   4.648   5.514  0.2454  0.0395  0.0539
20827W        W37301  14.429  17.785  13.960 -0.1881 -0.1492 -0.1034
20828W        W37302  13.148  15.543   5.554  0.2946 -0.0526 -0.1160
20829W        W37303  17.765   6.718  12.519  0.1163 -0.0618 -0.2296
20830W        W37304  11.305   5.980   2.821  0.0058  0.2746  0.1494
20831W        W37305  13.459   7.096  11.568  0.2492  0.0730  0.1752
20832W        W37306   8.951   4.913  14.853 -0.0286  0.4898  0.1417
20833W        W37307   2.214   0.338  15.717  0.0486 -0.0675  0.0672
20834W        W37308   7.420  13.165   0.751 -0.0669  0.0206 -0.0632
20835W        W37309  17.153  12.104   5.114  0.1469 -0.4950  0.0471
20836W        W37310   6.361   2.222   1.633  0.0346  0.0121  0.0866
20837W        W37311  14.747   5.104   3.194 -0.1129  0.1953 -0.1116
20838W        W37312  10.641  16.591   0.711  0.0059  0.0460 -0.1334
20839W        W37313   8.941  13.485  11.264 -0.1637  0.6279  0.1695
20840W        W37314   3.025  14.576   5.435  0.0238 -0.0000  0.1456
20841W        W37315   6.623  11.801  14.380 -0.0191 -0.0502 -0.0118
20842W        W37316   1.915   6.776  11.229 -0.0132  0.0057 -0.2319
20843W        W37317   0.243   5.594  14.083  0.0172 -0.0649  0.1231
20844W        W37318   1.604   1.092  11.618 -0.2352  0.0273 -0.0703
20845W        W37319  13.673  11.531  15.329  0.2493  0.0091  0.0494
20846W        W37320   1.552  16.007   2.398  0.2413  0.0257  0.1069
20847W        W37321  14.894   5.343  15.363  0.1493 -0.1207 -0.1565
20848W        W37322  14.906  15.438   3.461  0.2622 -0.0244 -0.2503
20849W        W37323  17.544  15.247  11.089  0.0571 -0.0191  0.1114
20850W        W37324   8.349   4.916   4.555  0.1108 -0.1725 -0.0862
20851W        W37325  15.804   6.585  14.625 -0.0598  0.4514  0.0660
20852W        W37326   7.701  11.258   0.506  0.1834 -0.1457  0.1436
20853W        W37327   9.517  17.106   2.364 -0.1008 -0.2913  0.2449
20854W        W37328   9.589   3.777   0.170  0.1522  0.2438  0.1688
20855W        W37329  14.778   2.841   2.174  0.2031  0.4126  0.2244
20856W        W37330  12.794  13.252  15.835 -0.1092  0.0974  0.3640
20857W        W37331  17.001  16.160   4.178  0.1054 -0.0929 -0.2609
20858W        W37332  12.728  11.095  14.492 -0.1636 -0.1458 -0.0845
20859W        W37333  12.361  15.827  15.666 -0.1108 -0.0081 -0.1178
20860W        W37334  11.419  14.400  16.688 -0.4147 -0.0530 -0.0480
20861W        W37335  13.488   1.349   0.220  0.2621 -0.2937  0.0059
20862W        W37336   9.506  10.822  16.670 -0.0299  0.0689 -0.0040
20863W        W37337   6.193   2.014   0.398  0.3398 -0.0858 -0.2677
20864W        W37338   6.532  13.974  14.779  0.0684  0.1709 -0.1516
20865W        W37339  10.338  12.399   5.212  0.1317 -0.0708 -0.1669
20866W        W37340  11.163   5.317  11.856  0.1555 -0.3886  0.1015
20867W        W37341   9.412   1.643  13.437 -0.0785  0.0595  0.0813
20868W        W37342  15.718  15.446   4.875 -0.2077 -0.0179  0.3609
20869W        W37343  17.416   4.484  14.230 -0.2559  0.0651 -0.1413
20870W        W37344   2.175   5.687   2.756 -0.1218  0.0063  0.1338
20871W        W37345   7.138   9.303   4.221 -0.0390 -0.1520 -0.2372
20872W        W37346  16.850   8.372  13.681 -0.1135 -0.0688  0.1376
20873W        W37347   0.680  12.308   0.863  0.1959 -0.1312 -0.0874
20874W        W37348  16.659  12.242   5.093 -0.0217 -0.0072  0.2025
20875W        W37349   9.163  14.919  13.134  0.3156 -0.2472 -0.0120
20876W        W37350  11.101  13.632   5.536 -0.4580 -0.0825 -0.2790
20877W        W37351  12.053  15.271   6.071 -0.0752 -0.0845 -0.1561
20878W        W37352   6.844  13.380  12.933  0.0682  0.1825  0.2455
20879W        W37353   7.863  17.406  13.254  0.0710 -0.1438 -0.0350
20880W        W37354  11.328   3.687  13.048  0.3209 -0.0365 -0.1063
20881W        W37355   5.136   1.560   2.973  0.0913 -0.1441 -0.1116
20882W        W37356  11.069   4.935  16.108  0.0626  0.2055  0.3430
20883W        W37357  11.046  13.603   4.219  0.1114  0.3066 -0.0002
20884W        W37358   2.276  14.242   3.138  0.1507 -0.0491  0.0286
20885W        W37359  12.943  15.421  11.925  0.1324  0.1222 -0.2501
20886W        W37360  16.635  12.909  16.482  0.0680 -0.0926 -0.2541
20887W        W37361   1.149   3.099  16.712  0.0055 -0.2533  0.1956
20888W        W37362   7.954   9.581   2.439 -0.2058  0.0301  0.1766
20889W        W37363  12.953  17.310   2.358 -0.1279 -0.2296 -0.2520
20890W        W37364   8.762  11.592   6.262 -0.2022  0.0379  0.0466
20891W        W37365   4.576   3.567   4.746 -0.0238 -0.3228  0.0432
20892W        W37366  10.879  11.656   3.839 -0.1066 -0.0788 -0.0443
20893W        W37367   7.160   1.231  11.979  0.4067  0.3055  0.1287
20894W        W37368   1.767   0.159   2.500  0.2221  0.2185 -0.0046
20895W        W37369   4.169   0.264   5.440 -0.0138  0.3529 -0.0089
20896W        W37370   2.145   9.837  16.361  0.5508 -0.0985 -0.1151
20897W        W37371   9.695   5.758   4.147 -0.2747  0.1384 -0.1717
20898W        W37372  12.164   4.417  15.852 -0.1279 -0.1736 -0.0809
20899W        W37373  12.099   8.607   2.008 -0.2030 -0.0187  0.0523
20900W        W37374   8.936  16.267  13.293 -0.0770  0.1890  0.2757
20901W        W37375  11.408  11.499   2.454 -0.0984 -0.3079  0.1281
20902W        W37376  16.142   0.157   1.608  0.0601 -0.1752 -0.2541
20903W        W37377   6.147   9.441  11.834  0.0785 -0.1237  0.1271
20904W        W37378  11.827   6.543   5.404 -0.0373 -0.1657 -0.2767
20905W        W37379   6.485  15.462  12.260 -0.2418 -0.1185 -0.1372
20906W        W37380   9.895   9.691   5.508  0.0720 -0.3660  0.2025
20907W        W37381   4.119   2.907   5.815 -0.0618  0.0407  0.2431
20908W        W37382  10.864   6.706  13.411  0.0825 -0.0151 -0.0897
20909W        W37383  16.259   3.003   3.881 -0.0088 -0.0655  0.0711
20910W        W37384  15.195   4.458   3.630  0.0660  0.1581  0.2319
20911W        W37385   2.722   6.776   4.229  0.0214 -0.0934  0.0515
20912W        W37386  15.187   6.539   0.937 -0.2073  0.0785 -0.0729
20913W        W37387  11.675   8.284   3.693  0.0990  0.0831 -0.1591
20914W        W37388   6.920  14.743   1.579  0.0417 -0.0636  0.2676
20915W        W37389  13.248  11.172   4.866 -0.0655  0.2699 -0.0914
20916W        W37390  12.504  10.777   4.423 -0.2136  0.0102 -0.2798
20917W        W37391  16.021   2.394   4.541  0.1606  0.1528  0.0073
20918W        W37392   3.544  10.963   2.002  0.0659 -0.0674 -0.0115
20919W        W37393   2.485  11.079   2.081 -0.3302  0.1566  0.1354
20920W        W37394  14.434  17.310   1.405  0.1419 -0.0372 -0.0946
20921W        W37395  11.817  15.075   2.668  0.1482 -0.0507  0.1062
20922W        W37396   6.897  14.790   4.497  0.0516  0.2534  0.3206
20923W        W37397   2.380   0.521  16.707  0.1943 -0.0238 -0.2435
20924W        W37398  17.297   8.116   2.051 -0.2273  0.0325  0.0727
20925W        W37399   4.764  13.308   3.190 -0.2647 -0.0031  0.0865
20926W        W37400  14.412  17.008   0.114  0.0281 -0.0422  0.3597
20927W        W37401   7.521   1.488  15.386  0.1767 -0.1776  0.1456
20928W        W37402   6.840   8.641  14.797 -0.1352  0.0955  0.3237
20929W        W37403  13.660  15.515   3.356  0.0275 -0.0215  0.1903
20930W        W37404  15.311  15.253   4.586 -0.3323  0.1842  0.0355
20931W        W37405  11.703   7.733   0.432 -0.0813  0.3209  0.2550
20932W        W37406   1.949   8.035  14.946  0.1501  0.3664 -0.1645
20933W        W37407   5.220   4.947  15.208 -0.0753 -0.3323  0.1710
20934W        W37408   9.425   6.754  15.438 -0.0707 -0.0252 -0.0660
20935W        W37409  15.811  17.022   0.154  0.1942 -0.1149 -0.2141
20936W        W37410  12.291   6.499  12.413 -0.1983 -0.1181 -0.0690
20937W        W37411  16.719   9.678   3.310 -0.2887  0.0566 -0.1660
20938W        W37412   3.310  12.949  14.000 -0.1484  0.0474  0.1841
20939W        W37413   1.098  12.409  13.700  0.2429 -0.2596 -0.3070
20940W        W37414   0.058  16.688  15.316 -0.0548  0.0106  0.0164
20941W        W37415  15.662  14.034   2.713 -0.2076  0.1898 -0.2376
20942W        W37416   8.576   7.788   0.515 -0.0388  0.0995  0.0751
20943W        W37417   6.298  12.756   0.623 -0.0973 -0.1786  0.0657
20944W        W37418   7.484   9.461   1.652  0.1171 -0.1234 -0.2230
20945W        W37419   9.126  17.953  16.006 -0.1422  0.0716  0.1105
20946W        W37420   3.927   4.647   4.094  0.2250  0.1134  0.0166
20947W        W37421  12.752  10.090   3.465  0.1507 -0.0351  0.0477
20948W        W37422   1.171  10.091   2.089 -0.2574  0.2357 -0.2327
20949W        W37423   0.769  15.285   3.175  0.1738 -0.2078 -0.0789
20950W        W37424  16.033  13.442   5.625 -0.0407  0.1357  0.0988
20951W        W37425   4.314   8.621  13.158 -0.1231  0.1607 -0.1224
20952W        W37426  16.877   6.672   4.562 -0.0497  0.1722  0.1192
20953W        W37427  15.315   6.120  12.886  0.0644  0.0624 -0.2640
20954W        W37428   8.273   3.162   2.469  0.1810  0.1369 -0.0251
20955W        W37429   2.916  11.633  15.401  0.0178  0.0770  0.2709
20956W        W37430  17.935  17.035  13.284 -0.0808  0.1135  0.1858
20957W        W37431   7.011  11.529  13.645 -0.0058  0.2536  0.0456
20958W        W37432  13.131  17.019  15.872 -0.0834 -0.1653 -0.0627
20959W        W37433   8.220   7.209  12.364  0.1421 -0.0492  0.2423
20960W        W37434   6.554  17.190  14.617  0.1183  0.1120 -0.1841
20961W        W37435  13.112   9.026  15.150 -0.2823  0.3641  0.0500
20962W        W37436   2.906  17.518   2.201 -0.0610  0.1779  0.2917
20963W        W37437   6.750  13.385   5.850 -0.3513 -0.0800 -0.0642
20964W        W37438   5.155   7.553   4.041  0.0694 -0.1673 -0.1383
20965W        W37439  15.583   3.982  16.613  0.1972  0.0334 -0.1211
20966W        W37440  16.950  14.988   2.714  0.1239 -0.0944  0.3981
20967W        W37441   5.691   3.763  15.157 -0.0109 -0.1200  0.2753
20968W        W37442   9.161   0.360  15.726 -0.0970  0.1301  0.0065
20969W        W37443   0.533  11.943   3.204  0.0919 -0.1996  0.0378
20970W        W37444   7.371   6.384   2.368  0.2179  0.0465  0.0660
20971W        W37445   8.901  14.512   1.930  0.0743 -0.0264  0.0929
20972W        W37446  10.096   5.864  13.075  0.0749 -0.0332  0.1656
20973W        W37447   5.080   5.789   4.228 -0.0182 -0.2439 -0.3353
20974W        W37448   8.752   8.818   1.353 -0.1206 -0.1689 -0.1795
20975W        W37449   7.675  13.853   5.020  0.1017  0.1176 -0.2561
20976W        W37450  13.748  15.399   4.630 -0.3179  0.0302 -0.0690
20977W        W37451   9.390   9.740   2.451  0.1444  0.0932  0.0411
20978W        W37452  17.137  17.839   2.311  0.0967  0.0677  0.2649
20979W        W37453  16.917  12.943  16.012  0.2273 -0.1474 -0.1565
20980W        W37454   8.352   5.459  15.849  0.2024  0.0275 -0.2533
20981W        W37455  16.614   6.208  12.614  0.0052  0.1818  0.1089
20982W        W37456  14.518   2.750  14.361  0.2947 -0.1393 -0.2016
20983W        W37457   7.857   9.374   5.593 -0.0443  0.1262 -0.1118
20984W        W37458  13.912   2.227   5.150 -0.2323 -0.1294 -0.1126
20985W        W37459   8.405  12.104  11.366 -0.1815 -0.2235  0.2005
20986W        W37460   7.022   4.557   6.368 -0.0423  0.2061 -0.1031
20987W        W37461   6.701  11.096   0.168  0.1130  0.0280  0.2589
20988W        W37462   2.792  10.101   3.573  0.0072 -0.1348 -0.2449
20989W        W37463  13.989  11.313   6.131  0.0060 -0.2516 -0.0210
20990W        W37464   0.297  14.106  11.094 -0.1535 -0.0016 -0.1805
20991W        W37465  17.368   5.470  12.500 -0.0416  0.5203 -0.2803
20992W        W37466   3.156   8.720  12.772  0.0057 -0.1032 -0.0526
20993W        W37467  13.875   8.091  15.434 -0.0684 -0.1439 -0.2431
20994W        W37468   9.160  12.390   4.359 -0.1913  0.1164 -0.0090
20995W        W37469  13.714   5.670  14.922 -0.4794  0.3509  0.0252
20996W        W37470   3.649  16.713   1.801  0.2771  0.0197 -0.1178
20997W        W37471   0.958  16.227  14.261  0.0467 -0.2119 -0.0677
20998W        W37472   2.898  15.253  13.761 -0.1001  0.1190 -0.2973
20999W        W37473  16.461  16.555  14.633 -0.0303  0.5948  0.0237
21000W        W37474   9.660  11.087  11.042 -0.0641 -0.0999 -0.0144
21001W        W37475   1.234   1.843   0.065  0.2686  0.1413  0.3939
21002W        W37476  15.816  14.992   3.562  0.4034  0.0045 -0.1387
21003W        W37477  16.653   6.131   5.544  0.2409 -0.0673 -0.3236
21004W        W37478  16.687   7.032   5.960  0.2374 -0.0192  0.0981
21005W        W37479  14.415  10.743  11.716 -0.0243  0.0097  0.1093
21006W        W37480  15.119  12.895  13.304  0.1784 -0.1106  0.1311
21007W        W37481   4.956   9.398   3.789 -0.2182 -0.0647  0.1818
21008W        W37482  11.350   7.231  15.115  0.1153 -0.2853 -0.0660
21009W        W37483   9.022  16.920   2.208 -0.1114 -0.0920  0.2253
21010W        W37484  12.078   3.936  12.855 -0.2951  0.0438  0.2379
21011W        W37485  10.738   9.017   6.612  0.2733  0.0609  0.1770
21012W        W37486  10.968   3.211   5.325 -0.1638  0.0610  0.1343
21013W        W37487   0.343   3.341   3.505  0.1948  0.0187 -0.0662
21014W        W37488  11.736   3.125   1.555 -0.0439  0.0794  0.2413
21015W        W37489  11.709  16.465  11.553 -0.1310  0.5921  0.1977
21016W        W37490   3.757  17.729   0.881 -0.2609  0.1407  0.2153
21017W        W37491  16.386  13.696   0.273  0.1064 -0.1791  0.0272
21018W        W37492  15.588  11.614   3.480 -0.1102 -0.0552  0.0532
21019W        W37493  17.784  13.913  15.385  0.2036 -0.1092  0.0962
21020W        W37494  12.639   2.325   2.712  0.0630  0.4730 -0.2248
21021W        W37495  14.982  17.459   5.325 -0.1550 -0.3995 -0.3036
21022W        W37496  14.636   7.430  14.903  0.2203 -0.0139 -0.1208
21023W        W37497   4.887   9.519  12.992 -0.0465 -0.1676 -0.1551
21024W        W37498   2.521   3.442  12.728  0.1327  0.0552 -0.0002
21025W        W37499  12.845   7.474   0.386  0.0264  0.1642  0.0082
21026W        W37500   3.062   7.718   1.744  0.1992 -0.2564  0.0553
21027W        W37501  13.079  14.343  16.739 -0.0568 -0.1955  0.2115
21028W        W37502   8.039   2.797   2.074 -0.1877 -0.3393  0.2880
21029W        W37503   7.808   5.284   0.701  0.0001  0.0800 -0.4954
21030W        W37504  17.042  14.324   5.475 -0.2186  0.0641  0.3158
21031W        W37505   1.985  12.884  14.913  0.2366  0.2855 -0.0348
21032W        W37506   2.906   8.376  15.843 -0.0268  0.0468  0.3672
21033W        W37507  13.227   2.300   4.391 -0.0393  0.0265 -0.0638
21034W        W37508   4.527   0.012   5.264 -0.1653 -0.0319  0.0655
21035W        W37509   0.216   5.024   2.749  0.2450 -0.0860  0.0495
21036W        W37510   1.717   5.382   0.166 -0.0383  0.0616  0.0784
21037W        W37511  14.333  15.137   0.559  0.1610 -0.0347 -0.0276
21038W        W37512   6.052   5.686  13.560 -0.0873 -0.1852 -0.0168
21039W        W37513   7.785  12.800  14.850 -0.0778 -0.0672 -0.2044
21040W        W37514   3.843  16.994  12.834  0.2769  0.0566 -0.0963
21041W        W37515   2.129   4.858  14.755 -0.0330 -0.3729  0.1447
21042W        W37516   4.435   0.135   2.889  0.0157 -0.0128  0.0035
21043W        W37517  15.344  17.282  13.402  0.1548  0.1059 -0.0792
21044W        W37518   8.802  13.234  16.017 -0.1461 -0.1448  0.1096
21045W        W37519   4.240  17.747   4.039  0.0173 -0.1639 -0.0549
21046W        W37520  16.396   1.460   1.192  0.0446 -0.2817  0.3671
21047W        W37521  13.438  11.566   3.260  0.0182  0.1436 -0.1340
21048W        W37522   9.662   0.838  15.780 -0.2938 -0.2296  0.0627
21049W        W37523   6.253  10.120  13.906  0.1079 -0.1695 -0.0894
21050W        W37524   2.615  15.094   1.609  0.1033  0.1543  0.0886
21051W        W37525  12.560   4.455   3.533 -0.2098  0.0435 -0.0041
21052W        W37526  15.079  13.437  16.635 -0.1939  0.0823  0.2219
21053W        W37527   8.178  11.810   3.648 -0.0279  0.1772 -0.0833
21054W        W37528  10.055   9.959   2.835  0.0074 -0.2008  0.3772
21055W        W37529   9.375  17.866  15.026 -0.0645 -0.1417 -0.1228
21056W        W37530   6.061  13.449   0.880  0.0551  0.0737  0.0443
21057W        W37531  11.600  10.737   5.313 -0.4048  0.2920  0.1150
21058W        W37532  10.834   7.756   1.978  0.1784 -0.1316  0.2373
21059W        W37533   2.118   2.156   3.442  0.0233 -0.0458 -0.3480
21060W        W37534   3.561   2.562   6.489  0.1027 -0.0880  0.1053
21061W        W37535   0.339  13.574   4.877  0.4480 -0.1420 -0.1618
21062W        W37536   7.313   3.175   0.753 -0.1964  0.4430  0.0167
21063W        W37537  10.171  12.640   1.571  0.0829  0.0842 -0.0381
21064W        W37538   2.618  16.144   0.191  0.2364 -0.0389  0.3973
21065W        W37539   1.035   9.518  14.616  0.4134  0.0958 -0.0013
21066W        W37540  10.659  17.816  15.000 -0.3129  0.0045 -0.2415
21067W        W37541   4.874   0.895  11.923  0.3681 -0.0049  0.2532
21068W        W37542  10.105   7.144  15.864  0.3300 -0.2058 -0.2627
21069W        W37543   1.632   8.006   4.339 -0.1046 -0.1102 -0.0383
21070W        W37544  17.777  10.189  15.417 -0.1111 -0.0628  0.0032
21071W        W37545  14.989   7.937   4.537  0.0544  0.1960  0.4420
21072W        W37546  12.177   8.149   2.256 -0.1126 -0.2914  0.0189
21073W        W37547   6.081   6.804  13.126  0.2322  0.2554 -0.2349
21074W        W37548  13.023   6.110   5.168  0.0204 -0.0348 -0.1267
21075W        W37549  13.484  11.552  13.013  0.4965  0.4172 -0.0183
21076W        W37550  15.691  11.586   2.510  0.1006  0.0549 -0.0900
21077W        W37551   6.928   0.738  11.906  0.2278  0.1543 -0.0002
21078W        W37552   7.424  14.163   5.272  0.2165 -0.0185 -0.0009
21079W        W37553  12.908   8.035   3.817  0.1026  0.0744  0.0584
21080W        W37554   1.999  16.480   0.903 -0.1185  0.0081 -0.0381
21081W        W37555   9.619  12.238   0.391 -0.0768 -0.3328 -0.0367
21082W        W37556   7.892   4.102  16.736  0.0800 -0.1329 -0.1905
21083W        W37557   8.253  16.752   2.631 -0.2478  0.0738  0.3770
21084W        W37558  13.040  11.388  13.250 -0.1451 -0.3878  0.1933
21085W        W37559  17.962   7.723   0.067 -0.1100  0.1538  0.0519
21086W        W37560  13.770   0.036   2.019  0.0229 -0.1034  0.0032
21087W        W37561  11.562  12.604  16.221 -0.1220 -0.2258  0.0930
21088W        W37562   6.329  14.098   4.242 -0.0573 -0.1883 -0.0436
21089W        W37563   5.520  17.425  11.546 -0.0307  0.1612 -0.0850
21090W        W37564  11.516   9.843  13.019 -0.0831 -0.1490  0.1738
21091W        W37565   4.461  12.978   1.838  0.1501  0.1343  0.0634
21092W        W37566   7.828   6.806  16.423 -0.1418 -0.4705  0.4505
21093W        W37567   5.178   6.203   4.567  0.1426  0.4223  0.0741
21094W        W37568   6.684  10.144   4.181  0.0896  0.1437 -0.2784
21095W        W37569  17.434   6.951  12.137  0.2026 -0.3232 -0.0839
21096W        W37570   7.076   2.525   4.166  0.1470  0.0546 -0.1872
21097W        W37571   8.862   7.482   1.928 -0.1027 -0.0384 -0.1407
21098W        W37572   8.855  16.966  13.249  0.0404  0.1241 -0.2026
21099W        W37573   0.606   7.742   4.763  0.0543  0.4091  0.2099
21100W        W37574   2.134   6.179   2.603 -0.2612 -0.0684  0.1763
21101W        W37575  10.943   1.028  11.970  0.1741 -0.1258 -0.1275
21102W        W37576   3.969   4.089   4.280  0.1249 -0.2034 -0.1397
21103W        W37577   5.385   8.351   0.182 -0.2733  0.0536  0.0946
21104W        W37578   8.680   5.866   2.429  0.1384  0.4307  0.1270
21105W        W37579   7.975   1.382   0.667  0.2775  0.0563 -0.3469
21106W        W37580  17.620  12.919   0.146  0.1149 -0.0136  0.2668
21107W        W37581   9.654  17.580   3.346 -0.2271 -0.0904  0.0175
21108W        W37582  15.485  14.362   5.933 -0.1214 -0.3802  0.0890
21109W        W37583  10.151   6.603   5.187 -0.0670 -0.0995 -0.0530
21110W        W37584   0.420  10.600   1.696 -0.0102  0.3055  0.2793
21111W        W37585  13.760   0.298  14.683 -0.3571  0.3852 -0.0089
21112W        W37586  10.315  17.547  16.588  0.3299  0.3723  0.3697
21113W        W37587  13.216   2.836   2.474  0.0577 -0.1422 -0.1981
21114W        W37588   2.590   7.387   5.059 -0.4272 -0.1204 -0.2879
21115W        W37589   7.431   4.743   4.258  0.0957  0.0347  0.2453
21116W        W37590  13.415   2.167  16.766  0.0554 -0.1291 -0.0638
21117W        W37591  15.375  16.847   5.583 -0.2583  0.0510  0.0755
21118W        W37592   0.504   8.183   4.519  0.0528 -0.1999 -0.0285
21119W        W37593   0.374  12.307   0.093  0.0351  0.2758  0.2387
21120W        W37594  16.104   4.565   0.218  0.1197 -0.2793 -0.1068
21121W        W37595   7.977   6.793  12.517  0.3548 -0.0872  0.4280
21122W        W37596  10.064   2.263  13.607  0.1434 -0.0958 -0.3088
21123W        W37597   3.440  16.092   0.088  0.0483 -0.0239  0.1123
21124W        W37598   9.056  15.340  11.845  0.1313  0.1512 -0.0501
21125W        W37599   2.688  15.890  16.546  0.0183 -0.1187 -0.1419
21126W        W37600  10.942   9.089   2.092  0.0762 -0.2135 -0.0290
21127W        W37601   6.930   3.965   3.920  0.3748 -0.3551  0.1694
21128W        W37602  13.286  11.963  11.380 -0.2041 -0.2324 -0.0619
21129W        W37603   4.870   2.093  14.873  0.1143 -0.0511 -0.1283
21130W        W37604   6.754  10.476  15.163  0.2326 -0.1120 -0.1931
21131W        W37605   4.608   8.257   0.323  0.1231 -0.0877  0.1407
21132W        W37606  14.147   9.903   0.172  0.0414  0.2320  0.1321
21133W        W37607   6.511   7.904   2.913  0.0482 -0.1131  0.1729
21134W        W37608  12.276   2.276  15.763  0.4447  0.0263  0.0503
21135W        W37609   9.783   8.150   0.066 -0.1828  0.1247  0.0256
21136W        W37610  11.283   3.317   0.585 -0.1443  0.1838 -0.0328
21137W        W37611   8.247  16.032   4.976 -0.4318  0.3178 -0.0844
21138W        W37612   8.580   3.159   0.538  0.2134 -0.0557  0.1241
21139W        W37613  13.209   7.270   2.385  0.0351 -0.1540 -0.2099
21140W        W37614   2.966  10.997   5.696 -0.0713  0.0651 -0.1808
21141W        W37615  16.584  11.863   4.330  0.1009 -0.4357  0.1007
21142W        W37616  10.798  11.201   4.860  0.2245 -0.1846  0.1493
21143W        W37617   2.308   3.248   1.473  0.2253 -0.0171 -0.1342
21144W        W37618   6.373  16.523   6.170  0.2536 -0.1421 -0.1302
21145W        W37619   4.593   2.084  15.966 -0.0462 -0.4693  0.2948
21146W        W37620  13.222  16.996   4.175  0.2462 -0.3712  0.0073
21147W        W37621   6.122  16.601   5.307 -0.0416  0.1226  0.1064
21148W        W37622  13.981   7.128  14.051 -0.4582 -0.2300 -0.2482
21149W        W37623  13.735   3.065  14.998  0.2659 -0.2293 -0.0919
21150W        W37624   3.442  12.611   4.659 -0.0335  0.0293  0.1110
21151W        W37625   4.027   6.326   0.232 -0.0703  0.0031 -0.2087
21152W        W37626   2.795  13.248   2.143 -0.2019  0.1382  0.0426
21153W        W37627  11.067   1.774   3.032  0.0524 -0.1220 -0.2448
21154W        W37628   7.580  13.269   1.733  0.0870 -0.1275  0.0303
21155W        W37629   4.291  15.508   0.554 -0.3019  0.1046  0.1750
21156W        W37630   3.090  17.036  14.996  0.1255  0.0898 -0.1591
21157W        W37631   6.674   5.754   5.025  0.0732  0.0361 -0.0598
21158W        W37632  13.205  13.448  12.699 -0.2774 -0.0829 -0.0310
21159W        W37633   2.526  15.822   0.646  0.0240  0.2729 -0.4228
21160W        W37634  15.693  12.450  15.315 -0.0753  0.0410  0.0770
21161W        W37635  12.424  15.879  16.289  0.0553 -0.1489  0.1889
21162W        W37636  10.015   6.348  13.113  0.0919 -0.4433 -0.0140
21163W        W37637   1.894   0.356  11.852  0.2375 -0.1331 -0.1023
21164W        W37638   3.443  17.826   5.052  0.0041  0.0605 -0.0463
21165W        W37639  13.249   3.701   3.163 -0.1943 -0.2197  0.0374
21166W        W37640   3.097  12.997  14.443  0.2027  0.1371 -0.1805
21167W        W37641   0.443  15.839   4.442 -0.0710 -0.0086 -0.0679
21168W        W37642  12.083  12.299  14.468 -0.0410  0.1978 -0.0085
21169W        W37643   5.590   6.760  15.096  0.1900  0.0034  0.1247
21170W        W37644   3.876  14.880   4.785  0.0424 -0.1985 -0.2515
21171W        W37645  12.262   0.640  14.806 -0.0890 -0.0402 -0.0115
21172W        W37646  13.461   4.495  12.905  0.0421  0.1184 -0.0683
21173W        W37647   3.277   1.740  11.453  0.3622  0.3210 -0.0105
21174W        W37648   2.081  13.541  14.588  0.0217 -0.0300 -0.0611
21175W        W37649  17.473   6.953  11.625 -0.1054  0.1057  0.0324
21176W        W37650  11.410  15.320   2.515 -0.1030 -0.0148 -0.6363
21177W        W37651   3.985  13.033  15.240 -0.0988 -0.0279 -0.0719
21178W        W37652   1.809   5.803  16.706 -0.1128  0.0520 -0.1436
21179W        W37653   9.281  13.008  15.249  0.0060 -0.0697  0.0260
21180W        W37654   1.810   3.071  15.490  0.3062  0.0959  0.0409
21181W        W37655  12.211   1.099  14.280 -0.0187  0.3528 -0.0767
21182W        W37656   4.146   1.998  11.598  0.3330 -0.0063  0.1894
21183W        W37657   6.304  14.854  16.122  0.1833 -0.0793  0.1581
21184W        W37658   6.950   4.441   4.462  0.0960  0.4158 -0.1337
21185W        W37659   4.701   8.082  15.306 -0.3593 -0.1206 -0.2704
21186W        W37660  11.596   7.007  13.589  0.0609 -0.2346  0.1016
21187W        W37661   0.752   9.092  14.824 -0.0873 -0.1619  0.0388
21188W        W37662  10.183   0.399  11.896  0.0014 -0.1597  0.2506
21189W        W37663  12.602  16.454   5.535  0.0619  0.1566  0.1166
21190W        W37664  14.355  17.195   0.912 -0.1500  0.0827  0.1377
21191W        W37665   0.102   4.196   4.902 -0.2173 -0.2727 -0.0323
21192W        W37666   3.779   1.110   4.439 -0.1954 -0.0521 -0.0952
21193W        W37667  16.261   6.589  12.481 -0.0475 -0.2083  0.0552
21194W        W37668   1.554  10.469   0.693 -0.1561  0.0452  0.2787
21195W        W37669   3.806   1.942  15.473 -0.3013  0.0252  0.2325
21196W        W37670   2.201  14.674   3.460  0.0458  0.1042  0.2037
21197W        W37671   8.119  14.574   0.782  0.1070  0.1213 -0.0977
21198W        W37672   5.441   2.042  11.771 -0.0040 -0.0568 -0.2587
21199W        W37673  13.821   7.614   5.418 -0.0154 -0.2450 -0.1833
21200W        W37674   2.920   0.672   0.820 -0.0345  0.1247 -0.0949
21201W        W37675   0.829   9.790   2.484  0.1133 -0.0819 -0.0414
21202W        W37676  15.344   5.930  13.400 -0.1493  0.1071 -0.2385
21203W        W37677  13.083   7.388  11.846  0.2713  0.2560  0.1229
21204W        W37678   9.318   5.480   3.339  0.0575 -0.1496 -0.1583
21205W        W37679   4.820   1.365  13.800 -0.0465  0.2592  0.1213
21206W        W37680  16.658  17.667   2.050  0.0029 -0.1513 -0.0003
21207W        W37681  12.024   9.831   1.129 -0.1122  0.0270  0.2024
21208W        W37682   0.385  15.717   5.163 -0.1911  0.2110 -0.1505
21209W        W37683  17.704   3.482  16.656 -0.0616  0.0451 -0.1097
21210W        W37684   5.159   2.892  12.035 -0.1665 -0.3333  0.1353
21211W        W37685  16.429  10.078  15.191  0.0037  0.1747  0.4022
21212W        W37686   7.279  15.515   5.374 -0.0442  0.0007  0.1926
21213W        W37687  10.981   6.222   6.374  0.1933 -0.1216 -0.4409
21214W        W37688  14.346  13.846  16.149  0.2133  0.3061  0.2906
21215W        W37689   0.939   3.568  16.724 -0.0270 -0.0017 -0.0823
21216W        W37690   3.754   7.415  14.916 -0.3872 -0.0663 -0.0143
21217W        W37691   8.532  14.975  13.928 -0.2747  0.2093 -0.1843
21218W        W37692   2.505   6.016   1.377 -0.1087 -0.3171 -0.3940
21219W        W37693   2.434  17.309   2.311  0.0589 -0.0652 -0.2074
21220W        W37694   5.096   7.240   0.612  0.2489 -0.0271  0.2041
21221W        W37695   8.984  14.325  14.371  0.0407  0.2008  0.3026
21222W        W37696   6.119  11.065   0.937  0.3878  0.2337 -0.0486
21223W        W37697   3.908  12.844  13.110  0.1546  0.1956 -0.0476
21224W        W37698  16.049  16.566   0.714 -0.0035  0.1714 -0.2642
21225W        W37699   4.567   3.833  16.603  0.0383  0.2468  0.0171
21226W        W37700   7.633  12.546  16.059  0.1405 -0.1069 -0.1086
21227W        W37701  17.637   5.007   1.533 -0.1143  0.1528 -0.0636
21228W        W37702  17.838  14.869   5.279  0.4543  0.3302  0.0731
21229W        W37703   3.450  12.235   1.749  0.1989 -0.1177  0.2130
21230W        W37704   2.013   6.039  15.758 -0.1250  0.2264  0.0057
21231W        W37705   4.873   5.216  12.755  0.0916 -0.2327  0.2407
21232W        W37706   9.097   0.869  15.957 -0.2678 -0.1258 -0.0014
21233W        W37707  12.847  16.833   5.879  0.2564  0.3088  0.0400
21234W        W37708  12.973   5.059   3.562 -0.2593 -0.1010 -0.1540
21235W        W37709   1.874   8.099   5.871 -0.1834  0.2263  0.0496
21236W        W37710  14.732   5.456  14.886  0.1197  0.2454 -0.0301
21237W        W37711  15.121  13.975  13.978 -0.2420  0.1246 -0.0219
21238W        W37712  12.479  15.154  14.067  0.2056 -0.0236 -0.0711
21239W        W37713  17.284   1.399   5.858 -0.2893 -0.0181 -0.0255
21240W        W37714   6.454   4.690   4.193  0.0723 -0.1068  0.0482
21241W        W37715  17.576  14.878   4.251  0.1471  0.3596 -0.0843
21242W        W37716  14.660   8.637   0.502 -0.1684 -0.1674  0.0032
21243W        W37717   8.044  11.131  13.344  0.2578 -0.0784 -0.0489
21244W        W37718   3.936   2.563   5.266  0.1624 -0.0163 -0.0217
21245W        W37719  16.724  11.798  15.402 -0.1289 -0.3109 -0.0446
21246W        W37720   6.405   9.505   4.989 -0.1425  0.0650 -0.1969
21247W        W37721   9.650   0.598   2.170 -0.0363  0.1157  0.0407
21248W        W37722  10.445   0.114   4.635 -0.0850  0.0784 -0.2216
21249W        W37723  13.132  14.500   0.734  0.0188 -0.2081 -0.3508
21250W        W37724   4.365   5.199  12.978  0.1344 -0.0369  0.1143
21251W        W37725  10.096  11.697  15.670 -0.1592  0.2692 -0.0945
21252W        W37726   3.341  14.348  16.274  0.3637 -0.0391 -0.2008
21253W        W37727   1.752  16.742  16.709  0.2430 -0.3889 -0.1143
21254W        W37728   8.832  12.878   3.101 -0.0324 -0.2587 -0.0321
21255W        W37729   6.214   0.738   5.417 -0.4253 -0.0388 -0.0705
21256W        W37730  17.967   7.315  12.875  0.1514  0.2043  0.1294
21257W        W37731  13.692  16.234   2.144 -0.0994  0.1297 -0.0367
21258W        W37732  14.386  11.754   6.011 -0.0421  0.2216 -0.1753
21259W        W37733  17.600  16.612  16.258  0.1283 -0.0230 -0.0555
21260W        W37734   7.057   4.317  13.159  0.1080  0.1003 -0.0622
21261W        W37735   9.398   4.836   2.158 -0.1050  0.2477  0.3048
21262W        W37736  13.633   3.402  16.459 -0.2310 -0.1567  0.1205
21263W        W37737   4.505   4.216  13.814 -0.2121  0.0406  0.0063
21264W        W37738   9.630   4.091   3.165  0.0447 -0.0510 -0.2941
21265W        W37739   5.939   8.753  15.613  0.5157 -0.1905 -0.2222
21266W        W37740  12.806   5.181   0.067 -0.1219  0.2379 -0.1072
21267W        W37741  17.950  13.448  15.495  0.2308  0.1289 -0.1622
21268W        W37742   7.862  17.801  11.501  0.0830  0.1454 -0.1447
21269W        W37743   7.963  15.088  15.001 -0.2747 -0.2242  0.1805
21270W        W37744  10.347  15.297  12.664 -0.0221  0.0321 -0.0960
21271W        W37745  11.296   2.423   5.191 -0.1200  0.0057  0.0265
21272W        W37746  16.259  12.099  14.504  0.0961 -0.1123  0.1812
21273W        W37747  11.367  15.430  12.866  0.1092  0.1873  0.0919
21274W        W37748  17.557   1.000  15.388 -0.1663  0.3478 -0.1892
21275W        W37749   7.987   2.323  15.607  0.1317  0.2297  0.3207
21276W        W37750  10.770   6.518   6.782 -0.2510 -0.3040  0.3767
21277W        W37751  15.836  10.019  11.769  0.1307 -0.3082 -0.4293
21278W        W37752  13.288   2.023  11.691  0.0436  0.2305 -0.4518
21279W        W37753   2.827  15.338   5.402 -0.0243  0.1213 -0.0770
21280W        W37754   1.986   7.662   2.832 -0.0349  0.1308 -0.1742
21281W        W37755   3.501   3.495   5.518 -0.0148 -0.2037  0.0712
21282W        W37756  11.498  11.972   5.302  0.0696 -0.0257  0.3443
21283W        W37757   7.754  10.987  15.138 -0.1094  0.0937  0.0832
21284W        W37758  12.892   6.689  15.138  0.1561 -0.1734  0.1869
21285W        W37759   0.841   8.835   5.698  0.0485  0.1446  0.0431
21286W        W37760   4.815  12.277   3.668 -0.1054  0.1442 -0.0130
21287W        W37761  10.799   2.037   2.162 -0.1377  0.0013  0.2760
21288W        W37762  15.552   4.718  12.591 -0.0427 -0.0465 -0.0286
21289W        W37763  10.043  15.024  15.148 -0.0257  0.3781 -0.1202
21290W        W37764  14.817   6.813   5.404 -0.2214  0.2214  0.6028
21291W        W37765  15.564   2.607   4.706  0.0629  0.2385  0.1557
21292W        W37766   7.471   2.745   5.799 -0.4029 -0.1888  0.2221
21293W        W37767  11.851  10.549  14.503  0.3290 -0.3231 -0.1660
21294W        W37768   4.526  10.723  14.483 -0.1046  0.4886 -0.2019
21295W        W37769  11.404   5.580  13.447 -0.1488  0.1561  0.0583
21296W        W37770   7.136   3.127  12.966 -0.0846  0.1951  0.1999
21297W        W37771  10.288   5.262  13.374 -0.1797 -0.0311  0.0063
21298W        W37772  16.042   9.120   0.928  0.0014 -0.2885 -0.1531
21299W        W37773   4.032   2.679   2.853 -0.2194  0.0418 -0.0995
21300W        W37774   9.217  11.135  13.156 -0.1598 -0.0855 -0.0995
21301W        W37775  12.209   4.975   5.257 -0.0580  0.1915  0.0287
21302W        W37776  13.109   4.301  14.613  0.0068 -0.1154  0.0982
21303W        W37777   1.126   1.561   5.726  0.0724  0.1965 -0.1456
21304W        W37778  15.476  13.940  15.662 -0.0682  0.1104 -0.0235
21305W        W37779  13.325   2.233   1.597 -0.4100 -0.1954  0.0389
21306W        W37780  11.889  10.180   2.423 -0.0402 -0.0758  0.0860
21307W        W37781   7.411   1.119   3.113  0.0333  0.2665  0.0283
21308W        W37782  15.731  10.313  16.663 -0.0143  0.1398  0.2969
21309W        W37783  14.392  12.550   4.027 -0.3452 -0.1232  0.1400
21310W        W37784  15.458   9.268   4.851  0.0061  0.0338  0.1706
21311W        W37785   1.702  14.700   0.663  0.0572 -0.2249  0.0703
21312W        W37786  12.905   5.515  15.505  0.0127  0.1582  0.1825
21313W        W37787   6.026  15.847  15.879  0.7228 -0.0099 -0.1929
21314W        W37788  16.329   9.858  12.655 -0.0549 -0.0674  0.3194
21315W        W37789   1.754  17.626  12.920  0.1187 -0.0320 -0.0239
21316W        W37790   3.273   8.429   1.176  0.1177  0.1178  0.4054
21317W        W37791  10.625   4.770  14.043  0.0943 -0.0555 -0.0986
21318W        W37792   3.812   0.659  16.105 -0.0994  0.0728  0.3237
21319W        W37793  16.514  15.892   1.343 -0.0916 -0.2541  0.0859
21320W        W37794   7.989   2.260   1.937  0.1427 -0.1129 -0.0262
21321W        W37795   0.290   6.545  13.229 -0.1854  0.3274 -0.2386
21322W        W37796   6.904  10.764  13.026 -0.2418 -0.1184 -0.1035
21323W        W37797   0.407  12.083   1.625  0.2042  0.1964  0.2052
21324W        W37798   6.335  15.409  13.024  0.1230 -0.1255  0.0880
21325W        W37799  14.036  13.455  16.417  0.2901  0.2707 -0.0384
21326W        W37800   3.631  10.393  12.242 -0.0203 -0.1892 -0.1158
21327W        W37801   2.437   9.337   5.166  0.0293 -0.0840  0.3437
21328W        W37802  17.088   7.971  13.723  0.1986  0.0502 -0.1537
21329W        W37803   3.321   3.526   2.570 -0.2599 -0.1858 -0.3047
21330W        W37804  14.635  17.344   4.055 -0.0028  0.1898 -0.0800
21331W        W37805   4.705   4.109  16.188 -0.2957 -0.1460  0.2197
21332W        W37806  12.598   7.332  13.768 -0.1740  0.0016 -0.1763
21333W        W37807   0.037  10.850   0.536  0.0320  0.1263  0.0623
21334W        W37808  17.295   1.680   4.321  0.0811 -0.0169 -0.2106
21335W        W37809   9.597  14.181  13.176  0.3719  0.3232 -0.2082
21336W        W37810   5.442  11.310  11.981 -0.0420  0.1775  0.2686
21337W        W37811   4.625  10.275  14.263  0.1803  0.1664  0.0401
21338W        W37812  10.240  15.781   0.872  0.0760  0.1077  0.1928
21339W        W37813   8.155   0.583   2.318 -0.0710 -0.0659  0.1552
21340W        W37814  10.157  14.945   1.237 -0.2486 -0.1699 -0.1703
21341W        W37815   8.482   3.678   1.056 -0.2558  0.2388  0.1929
21342W        W37816   4.792   6.216  12.669 -0.0732 -0.1339  0.0867
21343W        W37817   0.970   3.461   2.612  0.1875 -0.3431  0.2011
21344W        W37818  17.912   3.853  12.106 -0.1894 -0.1643  0.0211
21345W        W37819   2.906   1.342  11.493 -0.0706  0.2838 -0.0767
21346W        W37820   7.502  11.646   2.390  0.0944 -0.2449 -0.0169
21347W        W37821  15.430  17.516   3.036  0.1807  0.0376  0.3132
21348W        W37822  12.264  16.819  16.386 -0.0025  0.0990  0.0917
21349W        W37823   7.122   2.923   1.826  0.2178 -0.2045  0.1854
21350W        W37824   9.127   7.175  16.651 -0.0971 -0.1528 -0.3239
21351W        W37825   0.833   8.961  15.342  0.0969 -0.2509 -0.1450
21352W        W37826   5.861   8.168   1.577  0.0421 -0.0854  0.0291
21353W        W37827   1.981  13.885   5.728  0.2625 -0.1308  0.0557
21354W        W37828  15.564  17.506   4.487 -0.0316  0.1761 -0.1490
21355W        W37829  16.876  16.304   5.288 -0.1398  0.0957  0.0951
21356W        W37830   8.534   0.739   4.565 -0.3183  0.0128 -0.1681
21357W        W37831  12.011  15.725  13.509  0.0416  0.1356 -0.0105
21358W        W37832  15.344  14.663   4.750 -0.1683 -0.1751  0.0737
21359W        W37833   1.163   6.450  12.823 -0.0624  0.0848  0.0551
21360W        W37834  13.404  12.417   0.941 -0.1796  0.1855  0.0353
21361W        W37835  11.251   0.029   4.691  0.0275 -0.0591  0.0220
21362W        W37836  10.032   3.946   4.877  0.1331 -0.1942 -0.0743
21363W        W37837  10.184  11.336  14.177  0.2426  0.1823 -0.0028
21364W        W37838   4.225   1.160   1.019  0.2738  0.0638 -0.1768
21365W        W37839   0.354  13.284   0.992  0.0051 -0.1936 -0.1896
21366W        W37840   4.018   6.233   4.867  0.0904  0.0574  0.1908
21367W        W37841   4.926  10.440   2.674  0.0950  0.0658  0.5337
21368W        W37842   7.107   2.452   1.523  0.0329 -0.0643 -0.1008
21369W        W37843  15.089   3.316   0.762 -0.0540  0.0085  0.2509
21370W        W37844  14.344   7.568   5.532 -0.0534  0.0019 -0.3033
21371W        W37845   0.920   6.049  14.473 -0.1410 -0.0236 -0.1448
21372W        W37846  13.982   1.535   0.363 -0.1336 -0.0919  0.2646
21373W        W37847   7.786  15.258   0.130 -0.0633 -0.1532  0.0908
21374W        W37848  10.602  17.128  15.678  0.0510  0.1689 -0.3185
21375W        W37849  14.456   1.483  14.610  0.0802 -0.0292 -0.1379
21376W        W37850  12.920   3.178  16.726 -0.1720  0.0737  0.1014
21377W        W37851   8.268   1.467   4.168 -0.0141 -0.1245 -0.1416
21378W        W37852  17.415   2.996  13.433 -0.1645 -0.3119  0.6356
21379W        W37853   1.985  12.964  15.500  0.0326  0.0458  0.0161
21380W        W37854   1.796   3.993  15.019 -0.1553 -0.1118 -0.1294
21381W        W37855   1.620  16.166  13.622 -0.3734  0.1310  0.0934
21382W        W37856  15.079   7.981   5.012 -0.0381 -0.1101 -0.1126
21383W        W37857   6.381  14.114  15.719 -0.0827 -0.2265 -0.2144
21384W        W37858  15.317   3.278   3.027  0.3338  0.1881 -0.0482
21385W        W37859  15.227   0.901   1.748 -0.0784 -0.0660  0.1620
21386W        W37860  14.419   9.225   3.656  0.0862 -0.2288 -0.0198
21387W        W37861   9.866   3.672  13.844 -0.2904 -0.0021  0.2886
21388W        W37862  15.890  16.823   2.860  0.3482  0.1057  0.1044
21389W        W37863   3.506   6.725  16.771  0.0012  0.1935 -0.0239
21390W        W37864  11.678  15.559  13.941  0.2909  0.0674 -0.0416
21391W        W37865  15.557  16.897  12.215 -0.0556 -0.0624  0.5561
21392W        W37866  15.002   4.311  14.829  0.0833  0.0260  0.1164
21393W        W37867   6.927  13.178  11.440  0.0119 -0.1489 -0.1585
21394W        W37868  15.172   1.403  13.265  0.0898  0.2954 -0.1819
21395W        W37869   0.571   9.367   2.563  0.0483  0.1272  0.0923
21396W        W37870   1.361  12.952   3.381  0.2169 -0.0055  0.0524
21397W        W37871  12.089  14.254  16.322  0.1492  0.2883 -0.0307
21398W        W37872   2.996  15.361   1.903  0.0659 -0.3108 -0.1931
21399W        W37873   0.446   3.943   1.463  0.1613 -0.1258 -0.1833
21400W        W37874   1.066   5.987   0.988 -0.0006  0.0661 -0.0213
21401W        W37875  11.551  15.405   3.944 -0.0610 -0.1877 -0.0717
21402W        W37876   1.729  17.356   1.343 -0.1270 -0.0657  0.0681
21403W        W37877  11.586  11.860  15.418 -0.1703  0.3129  0.0056
21404W        W37878  15.293  12.043  13.087 -0.0486  0.1478 -0.0184
21405W        W37879  15.776   5.464   2.330 -0.0100 -0.1564 -0.2967
21406W        W37880   7.212   1.156  13.756  0.1418 -0.1590  0.0689
21407W        W37881   5.022  14.311   1.043 -0.0058 -0.1878  0.3279
21408W        W37882   0.366  11.525  16.168 -0.1404 -0.2287  0.0077
21409W        W37883  17.372   8.818   2.959 -0.1283 -0.1616  0.0311
21410W        W37884  11.258  17.207   3.563  0.2431  0.1935 -0.0521
21411W        W37885  17.165   1.530   1.762  0.1046  0.0099  0.0718
21412W        W37886  10.917   6.225   3.855 -0.0391 -0.0769  0.0013
21413W        W37887  14.915  14.341   3.309  0.0334 -0.0405  0.0711
21414W        W37888   4.104  15.807  13.369 -0.1123  0.0996  0.0132
21415W        W37889   8.369  13.016  15.477  0.2782  0.4007  0.0604
21416W        W37890   1.852  14.364  16.636  0.1167  0.0938  0.0731
21417W        W37891   9.332  15.732   2.179  0.0300  0.1061 -0.2018
21418W        W37892   8.056   1.539   2.409  0.2759 -0.1564  0.0681
21419W        W37893  15.534   6.881   5.217 -0.1392 -0.0265 -0.2961
21420W        W37894   5.795   8.305   3.474  0.0610  0.1665  0.0385
21421W        W37895   1.682   6.668   1.289  0.2661 -0.1374  0.2696
21422W        W37896   2.455   0.878   1.891  0.3085  0.3465  0.1048
21423W        W37897   8.949   2.405  11.936  0.0573  0.0327  0.0417
21424W        W37898  17.763   2.838  11.676  0.3211 -0.1785  0.0511
21425W        W37899   9.765  16.917  15.244 -0.1806  0.1464 -0.0282
21426W        W37900   0.663  15.867  16.730  0.1045  0.2879  0.0499
21427W        W37901   6.602   1.353  15.738  0.5208  0.2934 -0.0659
21428W        W37902  16.165  11.877   2.533 -0.2951 -0.3339 -0.1617
21429W        W37903  16.200   8.284   2.606  0.1774  0.1590 -0.1612
21430W        W37904   1.238   9.362  11.967 -0.0432  0.3003  0.0202
21431W        W37905   7.938   7.211   3.957 -0.0946  0.3647  0.3021
21432W        W37906  15.940  11.832  12.097  0.3054  0.1711 -0.0091
21433W        W37907  12.260  11.387  15.038 -0.0586 -0.0670  0.2451
21434W        W37908  12.501   7.786   2.993 -0.0753  0.0619  0.1110
21435W        W37909  10.145   2.871  11.499 -0.0678  0.0436  0.3586
21436W        W37910   0.063   7.079  13.341  0.0027  0.0574 -0.2753
21437W        W37911  14.204   6.915   6.121  0.0697 -0.0405  0.0691
21438W        W37912   3.564  11.703  11.708  0.0290  0.0930  0.0504
21439W        W37913  15.031  10.265  14.570 -0.0534  0.7055 -0.0783
21440W        W37914   4.666   9.166   2.453  0.0173  0.0189 -0.0500
21441W        W37915   7.729   4.176   4.996  0.3924  0.0964 -0.0966
21442W        W37916  14.524  16.652  16.074  0.1734  0.2789 -0.0372
21443W        W37917  12.180  17.317  13.902 -0.1540 -0.1565  0.1675
21444W        W37918   1.508   7.986   4.801 -0.2401  0.1172 -0.0410
21445W        W37919  14.682   1.679   5.288 -0.2137 -0.1468 -0.1709
21446W        W37920   2.687   3.358   4.334  0.1405 -0.0495  0.3147
21447W        W37921  10.710   4.165   3.277 -0.0363 -0.2578 -0.0071
21448W        W37922  10.380   9.951   5.274  0.0227  0.1759  0.2906
21449W        W37923   6.430   3.363   3.221  0.3899  0.3085  0.2410
21450W        W37924  11.055   5.447   2.589  0.1858  0.0916  0.0752
21451W        W37925   9.951   6.414   0.808  0.0237 -0.1703  0.2988
21452W        W37926  13.385   2.414  15.810 -0.3414  0.1048  0.1656
21453W        W37927  15.803   0.496   3.212  0.0389  0.1509  0.3478
21454W        W37928  11.510  15.211  15.827  0.0179  0.2308 -0.0747
21455W        W37929   9.581   4.261   5.857 -0.3329 -0.0755 -0.1883
21456W        W37930   0.407   6.746   4.217  0.2220 -0.0921  0.2631
21457W        W37931   9.633  12.870   3.570 -0.1090  0.0773 -0.0830
21458W        W37932   0.879  17.384  11.790  0.1704  0.1446  0.1746
21459W        W37933   7.831   6.908  14.696  0.1323 -0.1791  0.1993
21460W        W37934   3.033  12.622   0.662  0.2553 -0.1624 -0.2877
21461W        W37935   6.194  16.582   4.066 -0.1601  0.0243  0.0146
21462W        W37936   3.333  13.580  13.403 -0.0990  0.0597  0.0965
21463W        W37937   7.347  12.694  13.237 -0.2145  0.2751 -0.3005
21464W        W37938   9.609   1.091  15.319 -0.0730  0.3236  0.1053
21465W        W37939  13.904  11.089   0.777 -0.1576 -0.0738  0.2460
21466W        W37940  17.211   8.376  14.013 -0.0276 -0.0254  0.0575
21467W        W37941   3.452   9.922  11.268  0.2281  0.1018  0.1046
21468W        W37942   2.994  13.188   2.698  0.0632 -0.1076 -0.1237
21469W        W37943  14.668  10.622   1.258  0.0444  0.1549  0.0240
21470W        W37944  17.463   1.163   4.979 -0.0713  0.0958  0.0912
21471W        W37945   9.753  15.263  12.004 -0.1189  0.0146 -0.2029
21472W        W37946   0.923  16.047   5.617  0.2769  0.4235  0.0105
21473W        W37947   1.678  15.089  16.166 -0.2962 -0.0293  0.1802
21474W        W37948  10.444   6.037   3.811  0.0346  0.1854  0.0059
21475W        W37949  10.969   3.094  14.348 -0.1927 -0.2735  0.1574
21476W        W37950  14.549   5.971   2.037  0.1076 -0.0232  0.1690
21477W        W37951  14.604   6.932   2.652 -0.1243 -0.1378 -0.0639
21478W        W37952  16.509   5.947   1.471 -0.0714 -0.0042 -0.2271
21479W        W37953  17.103   3.756   2.455  0.2183  0.4297 -0.1017
21480W        W37954  14.185  14.818   4.950 -0.0834 -0.1981  0.1674
21481W        W37955   2.559  15.190  13.331 -0.3003  0.1661  0.0611
21482W        W37956   5.564   0.769  13.609  0.1799 -0.1806 -0.2899
21483W        W37957   7.742   8.846   3.769  0.4110 -0.0930  0.3095
21484W        W37958   5.833   6.463   0.038  0.2018 -0.2257 -0.1063
21485W        W37959   7.557   9.395   3.375  0.0546  0.2593 -0.2054
21486W        W37960  16.470  15.578   0.080 -0.0445 -0.1116 -0.0200
21487W        W37961  16.633   0.247   0.495  0.1109  0.0597  0.0296
21488W        W37962   4.625   0.840  16.075  0.0428  0.2979 -0.1259
21489W        W37963  10.280   7.950  16.231 -0.3408  0.1298 -0.0040
21490W        W37964   0.056   6.102  11.886 -0.3007  0.0733 -0.2842
21491W        W37965   1.416   6.067  16.363 -0.0940  0.1004  0.0647
21492W        W37966   2.291  17.007   5.674  0.0816  0.1810 -0.4113
21493W        W37967  15.063   1.274  16.258 -0.1833  0.1448  0.0270
21494W        W37968  11.370  13.599  16.301  0.0338  0.0183  0.0133
21495W        W37969  13.905   8.112   5.179 -0.0737 -0.0647  0.2136
21496W        W37970  17.400   8.327  16.394 -0.1635 -0.1008 -0.0122
21497W        W37971   5.122   2.936   2.880  0.1539  0.1525  0.1702
21498W        W37972   2.844   1.315  14.991  0.1873  0.0476 -0.0203
21499W        W37973   6.487  17.737  13.073  0.0681 -0.0606  0.3457
21500W        W37974   5.282   8.899  12.342 -0.3919  0.0679  0.3755
21501W        W37975   4.854   3.078   2.505 -0.0511  0.2572 -0.0093
21502W        W37976   9.064  10.687   5.171  0.1998 -0.1714  0.0504
21503W        W37977  16.523   9.255   0.829  0.1403 -0.0412  0.1785
21504W        W37978   6.876   6.797   5.491  0.1235  0.1148 -0.2491
21505W        W37979  17.589   1.806  12.352 -0.1070 -0.1760  0.1533
21506W        W37980  14.749  12.428   4.346 -0.2371 -0.0008 -0.2923
21507W        W37981   5.004  15.379  16.031 -0.0897 -0.0237  0.2109
21508W        W37982  16.463   2.143   1.896  0.1173  0.1081  0.0745
21509W        W37983   0.941   5.484   4.125  0.0974 -0.0797 -0.3472
21510W        W37984  11.591   8.318  14.610  0.0037 -0.5836  0.3192
21511W        W37985   6.371   9.417  12.831 -0.3383  0.1882  0.1063
21512W        W37986   0.611   3.982  15.437 -0.0047  0.1105  0.0452
21513W        W37987   2.101   0.042  13.058  0.0244  0.0670  0.3212
21514W        W37988   4.154   1.148  13.139 -0.2703  0.3293 -0.0738
21515W        W37989   6.978  11.051  13.671  0.3183  0.0231 -0.1161
21516W        W37990  12.037  13.681  15.568 -0.0951  0.0908  0.0141
21517W        W37991  10.335  11.383   3.937 -0.0018  0.0982 -0.1136
21518W        W37992   6.995   6.449   5.908 -0.3066  0.1389  0.0666
21519W        W37993   4.803   7.109  16.513 -0.3823  0.4043  0.0960
21520W        W37994   1.516   6.192   1.162 -0.2494  0.0410  0.0441
21521W        W37995  14.056   0.474   3.349  0.0786 -0.1876  0.1478
21522W        W37996   1.427  13.790  15.430  0.0085  0.3126 -0.1228
21523W        W37997  12.480   9.512   4.777  0.0845  0.1720  0.0487
21524W        W37998  10.318  17.003   3.333 -0.1552 -0.1542 -0.0532
21525W        W37999   1.756  15.388   5.248  0.3589  0.1677  0.4303
21526W        W38000   1.874  10.116  11.373 -0.0522 -0.0080 -0.4194
21527W        W38001   7.376  11.618  11.582 -0.1081  0.1427  0.2299
21528W        W38002   3.120  10.623   5.304  0.0911  0.0967 -0.1618
21529W        W38003   4.020   2.366   4.200  0.0866 -0.0191  0.0037
21530W        W38004   3.863   7.231   1.207  0.4031  0.3207  0.1616
21531W        W38005   0.560   3.614  14.530 -0.0665 -0.1097  0.2813
21532W        W38006   2.086  16.550   5.804  0.2180 -0.0098  0.1705
21533W        W38007   0.714  11.454   0.656 -0.0345  0.3647 -0.1046
21534W        W38008   2.993  15.015  15.212 -0.1422 -0.0646  0.1595
21535W        W38009  14.303  11.158  13.002  0.2197 -0.2194  0.2805
21536W        W38010   3.127   2.804  13.955  0.1110 -0.3024 -0.1269
21537W        W38011   5.623  17.863   1.508  0.1152  0.1145  0.0738
21538W        W38012   4.364  13.095  13.150  0.0918 -0.2212 -0.1340
21539W        W38013  16.708  14.282   5.098  0.1971  0.0510 -0.1003
21540W        W38014  13.619  14.562   0.679  0.0739 -0.3348  0.0516
21541W        W38015  10.759  13.867  13.658 -0.2886  0.1408 -0.3042
21542W        W38016  12.934  11.549   5.173  0.1725  0.3965  0.2936
21543W        W38017   4.418   6.694   2.844  0.0579 -0.0348 -0.1573
21544W        W38018   7.500  16.330  16.278  0.4114  0.0628  0.0611
21545W        W38019   5.777   8.610  13.797 -0.0451  0.1358  0.0476
21546W        W38020  10.264   9.319   3.544 -0.0571 -0.3059  0.1203
21547W        W38021  15.969   5.705   3.301 -0.0948  0.0715 -0.2047
21548W        W38022  10.666   2.395  16.186  0.1827  0.3309  0.1488
21549W        W38023  10.340   0.051  12.774  0.1060  0.2457 -0.0536
21550W        W38024   0.272   0.044  16.424 -0.1642 -0.3308  0.0278
21551W        W38025   8.461  15.416  12.684  0.1553  0.1106 -0.0440
21552W        W38026   0.206   6.146  13.581 -0.2163 -0.1664 -0.1649
21553W        W38027   8.867  15.670   3.521 -0.1487  0.2201  0.0366
21554W        W38028  11.574   0.767   6.029  0.1894 -0.0548  0.2876
21555W        W38029  11.708  15.518  14.455  0.0132 -0.0730  0.0279
21556W        W38030  17.706  11.006   2.989 -0.0292 -0.1551 -0.0762
21557W        W38031  15.384  15.780   3.729  0.0871  0.1247  0.0371
21558W        W38032  16.426   6.683  11.663 -0.0833  0.1618  0.1448
21559W        W38033  13.240   5.875   3.473 -0.1955 -0.2314  0.0195
21560W        W38034  15.996   0.852  16.403 -0.0406 -0.2616  0.1088
21561W        W38035   5.074   4.337   5.397 -0.0070 -0.0922  0.2501
21562W        W38036  11.709   3.683   0.024 -0.5320  0.4167  0.0887
21563W        W38037   9.239  16.256   4.043 -0.0920 -0.1545  0.1197
21564W        W38038   6.505   7.875  13.566  0.3531  0.1256  0.0911
21565W        W38039   5.213   7.688   0.908 -0.1700 -0.0584 -0.1278
21566W        W38040   9.614  11.479  11.634 -0.0453 -0.0269  0.2741
21567W        W38041   4.455  13.653  14.059  0.1830 -0.0113  0.2424
21568W        W38042   3.484  14.082  11.847  0.2504  0.0745  0.0366
21569W        W38043   2.032  10.231  16.000 -0.1540  0.2248 -0.0102
21570W        W38044   3.771   1.117  15.813  0.2242 -0.2210 -0.0343
21571W        W38045   0.241   0.850   3.601 -0.0681  0.3928 -0.0738
21572W        W38046   5.953  16.019   2.916 -0.1989  0.2113  0.0997
21573W        W38047  14.722   2.283   3.935  0.2592 -0.1545 -0.0102
21574W        W38048  16.246   5.209   5.392  0.0726  0.1114 -0.2821
21575W        W38049   7.099  16.362  14.705 -0.1063  0.0684 -0.0111
21576W        W38050   0.352  10.639  16.479 -0.1763  0.1303 -0.0968
21577W        W38051  11.525  14.790   1.742  0.4094  0.1205  0.2334
21578W        W38052  15.762   7.166   0.355  0.1519  0.1519  0.1777
21579W        W38053   8.384   5.614   2.734 -0.2959  0.2373 -0.1348
21580W        W38054   7.826  15.491   1.119  0.0459 -0.2628 -0.0323
21581W        W38055   9.123  15.089  10.276 -0.1044 -0.1212 -0.1414
21582W        W38056   2.116   8.978   1.765 -0.2642 -0.3679 -0.2880
21583W        W38057  16.699  14.414   1.551 -0.2267  0.1776 -0.0479
21584W        W38058  15.557  16.597  14.156 -0.1655 -0.1513 -0.2485
21585W        W38059   7.244   2.494   2.537  0.1290 -0.0306 -0.1830
21586W        W38060  12.702   3.446  13.614  0.2839 -0.0620  0.0388
21587W        W38061  14.417   0.422  11.750  0.1895  0.1528  0.4487
21588W        W38062   0.771   6.387   2.752  0.0379  0.0381  0.2613
21589W        W38063   5.506  10.835  12.158  0.3001  0.1313 -0.1477
21590W        W38064  13.160  14.934   4.166  0.2922  0.1200 -0.1676
21591W        W38065   0.763   7.252   3.539  0.0158  0.0726 -0.0205
21592W        W38066  14.878  14.350  13.211  0.2048  0.1046 -0.2401
21593W        W38067   9.572  17.665  13.489 -0.2214 -0.0261  0.0960
21594W        W38068  11.927  16.188   5.063  0.0084  0.0849 -0.2736
21595W        W38069   3.418   9.881  16.712 -0.1944  0.0819  0.0049
21596W        W38070   1.925  12.015   4.344  0.0059 -0.0293  0.0768
21597W        W38071   3.600   6.009  13.180  0.1483  0.0378  0.0005
21598W        W38072   1.014   4.576   2.499 -0.1448  0.0109  0.0170
21599W        W38073   4.041  10.902  15.448 -0.0412  0.1372  0.1034
21600W        W38074   0.245   1.289  16.536  0.3427 -0.0593  0.1710
21601W        W38075  17.616  14.016   5.079  0.1716  0.3266 -0.0238
21602W        W38076   9.402   7.766  15.831  0.1567  0.0285  0.1088
21603W        W38077   5.964   1.074   5.034  0.1515  0.2300  0.0102
21604W        W38078   5.997   1.605   4.813 -0.1045  0.0948 -0.1529
21605W        W38079   5.794  14.164  13.768  0.0933 -0.1689 -0.4440
21606W        W38080  15.888  14.227  15.843 -0.0397  0.2903  0.0919
21607W        W38081  15.387   8.963  13.995 -0.1283 -0.1825  0.1735
21608W        W38082   3.754   8.512   1.296 -0.1129  0.0279 -0.2190
21609W        W38083   2.327  16.910   3.208 -0.1208  0.2221 -0.1505
21610W        W38084   5.692  17.698  12.362 -0.1089 -0.2145 -0.1260
21611W        W38085  10.508   5.228  11.269  0.1763  0.0916  0.3131
21612W        W38086   8.480  13.984   0.206 -0.3122  0.1275 -0.1995
21613W        W38087  16.778  14.990   3.515 -0.0229  0.2124 -0.0738
21614W        W38088   3.860  17.885  13.568 -0.4150  0.1024 -0.0490
21615W        W38089   8.928   6.988   4.013  0.0385 -0.0072  0.1357
21616W        W38090   0.157   3.137  12.525  0.1891  0.1324 -0.1172
21617W        W38091  12.896   2.110   3.978  0.1471  0.3406  0.0498
21618W        W38092   9.470  12.878  13.423  0.0622  0.3812  0.2099
21619W        W38093  15.039   7.581  14.462  0.1878  0.1128 -0.0237
21620W        W38094   9.921   2.679   4.844 -0.1995 -0.2976  0.1425
21621W        W38095  15.232   9.481  10.391  0.1679 -0.0913  0.3038
21622W        W38096  17.181   2.039  12.531 -0.0810  0.0079 -0.1944
21623W        W38097  16.327  11.229   0.110 -0.0644  0.4138  0.2032
21624W        W38098  14.545  17.768   2.035  0.0723 -0.1374  0.0349
21625W        W38099  16.533  10.441  15.567 -0.3381  0.2704  0.0446
21626W        W38100   0.131  11.529  10.388 -0.1907  0.3035  0.1176
21627W        W38101  17.956  11.350  11.927  0.0551  0.3788 -0.1355
21628W        W38102   5.829  14.312  14.320 -0.2225 -0.1870  0.2771
21629W        W38103  13.963  14.789   4.176 -0.0982 -0.1030 -0.2525
21630W        W38104  11.478  17.104   5.297  0.1791 -0.1152 -0.1041
21631W        W38105   7.560   8.250  13.983  0.1555 -0.1342 -0.3148
21632W        W38106   9.834  16.237  16.509  0.3873  0.0995  0.1312
21633W        W38107   3.473  13.039   0.192  0.0129  0.3643 -0.0414
21634W        W38108  14.035   5.667  12.386 -0.0976  0.1580  0.1165
21635W        W38109  16.048   1.009  12.308 -0.4063  0.1345 -0.2260
21636W        W38110   4.242   7.888  16.041  0.1508 -0.2481 -0.1775
21637W        W38111   3.408   5.096   5.295 -0.1025  0.0699 -0.2444
21638W        W38112   8.102   3.930   5.046 -0.1640  0.0027  0.0781
21639W        W38113  14.199   5.063   3.020  0.2208 -0.2042 -0.1176
21640W        W38114  13.395   6.513   3.042  0.2110  0.2113  0.0738
21641W        W38115  14.996  10.328   0.395  0.1734 -0.0380 -0.0217
21642W        W38116   6.011  15.713  16.383 -0.0579  0.0952  0.0099
21643W        W38117   5.709  10.191  15.870 -0.0860  0.0898  0.4482
21644W        W38118   3.826  16.359  14.166 -0.1534  0.0208  0.1239
21645W        W38119   0.473  12.023  14.796  0.0890  0.0530  0.1263
21646W        W38120  11.173  12.295   4.586  0.1951  0.2332 -0.0086
21647W        W38121  11.168  12.352   2.860 -0.2281  0.0577  0.1001
21648W        W38122  16.234   1.814  12.021  0.2090 -0.1087  0.0556
21649W        W38123   0.701  15.255   0.167  0.0279  0.4729 -0.0603
21650W        W38124  15.403  12.709   0.366  0.0186 -0.2496  0.3298
21651W        W38125   4.509   4.042   2.880  0.1040 -0.0086 -0.0890
21652W        W38126   6.915   3.308   3.032  0.1077  0.3206  0.0900
21653W        W38127  16.501  12.746   4.856  0.2496 -0.1385  0.1198
21654W        W38128  17.891   1.091  11.848 -0.1393 -0.2632  0.1509
21655W        W38129  14.157   5.888   1.733  0.2001 -0.0094  0.2256
21656W        W38130   3.494   9.999  13.123  0.2325  0.2506 -0.0385
21657W        W38131  10.233  15.220   4.358  0.2569  0.0885 -0.2511
21658W        W38132  15.358  17.365   5.621  0.0406  0.0821  0.4053
21659W        W38133   1.953   8.489   5.508 -0.3205  0.2637 -0.0285
21660W        W38134  15.311  13.955   6.150 -0.2050 -0.2112  0.0686
21661W        W38135   0.764   9.377   0.434 -0.3294  0.0613  0.4201
21662W        W38136   5.853   6.789  15.673  0.2173  0.0171  0.0083
21663W        W38137   6.707  14.337  16.682  0.3492  0.1748 -0.1581
21664W        W38138  11.170  12.778  13.513 -0.0323 -0.0030 -0.1543
21665W        W38139  11.782   9.213   1.383 -0.2000 -0.1394  0.3664
21666W        W38140   3.523   3.152   5.945  0.2030  0.0480  0.0596
21667W        W38141   0.333  14.934   5.425  0.0010 -0.2848  0.1886
21668W        W38142   5.965   8.070  12.517 -0.1884  0.0215  0.0032
21669W        W38143  10.647   0.454   0.224 -0.0567 -0.0832  0.3639
21670W        W38144   9.729   8.933   0.239  0.0882  0.0530  0.3378
21671W        W38145   0.926  10.230  12.728  0.1385  0.0858 -0.0148
21672W        W38146  15.155   9.227  11.568  0.0281  0.2597  0.0583
21673W        W38147  16.772   9.922   2.485 -0.1466 -0.1054 -0.1441
21674W        W38148   2.219  16.887   1.214  0.1431 -0.0050 -0.1787
21675W        W38149  10.472   8.303   3.922 -0.0274 -0.0231 -0.1090
21676W        W38150   9.796   7.726   0.277  0.0147  0.1348  0.0950
21677W        W38151  12.136  17.898  12.568 -0.1399 -0.0525  0.1608
21678W        W38152   1.841   7.085   4.434 -0.1048 -0.3012  0.2465
21679W        W38153  12.255   1.269   3.569 -0.0213 -0.1865 -0.1521
21680W        W38154   3.950   3.690   0.438 -0.0369 -0.2574  0.2286
21681W        W38155   1.466  17.574  14.264  0.0274 -0.2541 -0.1736
21682W        W38156  10.334   6.162  13.426 -0.0467  0.1876 -0.3558
21683W        W38157  14.998  11.202  14.561 -0.2275 -0.0600 -0.0356
21684W        W38158   6.453  14.994   5.615  0.0981  0.0932 -0.1033
21685W        W38159  17.183   8.753  13.599 -0.2790 -0.2049 -0.0694
21686W        W38160   8.940  14.690  13.534  0.0606 -0.0940  0.4597
21687W        W38161  15.075   5.900   3.732  0.0906  0.0163 -0.1908
21688W        W38162   6.254  13.836   4.811 -0.2501 -0.1713  0.3113
21689W        W38163  13.356  12.067   3.380 -0.2134  0.0933  0.3278
21690W        W38164  12.507   3.392  16.545  0.0923  0.0178 -0.0125
21691W        W38165   9.973   1.649   5.916  0.0292 -0.1546  0.2391
21692W        W38166  11.259   4.759   5.247  0.2140 -0.0362  0.0336
21693W        W38167   8.529  17.911  12.916 -0.1619  0.0703  0.1301
21694W        W38168   2.233  16.036   3.752 -0.1176  0.1123 -0.2381
21695W        W38169   3.913   9.635  13.199 -0.2023  0.0111  0.2380
21696W        W38170  11.351   0.884  15.054  0.2942 -0.0411 -0.3074
21697W        W38171   0.674  13.106  15.781 -0.1352  0.0350 -0.0866
21698W        W38172   1.111   5.811   0.552  0.1449  0.0719 -0.1799
21699W        W38173   0.072   4.749   4.485  0.0549  0.0355  0.0601
21700W        W38174   3.087  14.794   4.053 -0.1970  0.0890  0.1237
21701W        W38175  14.009  16.746  15.954  0.1372  0.2364  0.0038
21702W        W38176  14.915   9.289   0.015 -0.1438  0.1592 -0.2592
21703W        W38177   7.949   8.861  13.262  0.1386  0.1643  0.0569
21704W        W38178   5.882   2.200   2.421 -0.1509 -0.0352  0.0170
21705W        W38179   8.943   2.506   3.085 -0.1518  0.0478 -0.0936
21706W        W38180  14.710   4.109   1.393 -0.2504 -0.1729  0.3728
21707W        W38181   3.668   6.529  10.712  0.0936  0.0766  0.2768
21708W        W38182  17.952   0.648  13.679 -0.0251 -0.0989  0.0718
21709W        W38183  11.028  10.867  14.471  0.3093  0.3362 -0.0183
21710W        W38184   9.661   5.410   2.614 -0.1937  0.2940 -0.1025
21711W        W38185  17.339  10.178  12.478  0.2055  0.3100  0.1524
21712W        W38186   2.294   4.234  13.008  0.0146 -0.0308  0.1406
21713W        W38187   9.481   8.353  14.128  0.3148 -0.2170  0.1363
21714W        W38188   6.119   5.272   1.912 -0.3929 -0.1770  0.1564
21715W        W38189   0.585  17.122   4.087  0.3501 -0.2094 -0.1378
21716W        W38190  15.376   4.759  13.895  0.1332 -0.2024  0.1049
21717W        W38191  10.564   9.186   5.117 -0.2221  0.5178 -0.1646
21718W        W38192   4.399   5.265  15.237  0.2039  0.1462 -0.0696
21719W        W38193   0.809  12.854  16.241 -0.0740 -0.2102 -0.0790
21720W        W38194  13.933  10.292   3.277 -0.4506 -0.2186  0.2794
21721W        W38195  10.121   5.574   1.190 -0.3501 -0.0822  0.0866
21722W        W38196  14.471   1.473   4.919  0.0118  0.0777 -0.1349
21723W        W38197  12.386  10.293   4.235  0.1071  0.0019 -0.1709
21724W        W38198   8.687  11.813  16.050  0.0305 -0.2856  0.3514
21725W        W38199   6.190  14.745  11.966 -0.3529 -0.0686 -0.2253
21726W        W38200   7.456  16.686  13.370 -0.0881 -0.2659 -0.1030
21727W        W38201  14.997   9.100  14.888  0.1728 -0.0122 -0.3117
21728W        W38202  17.947   3.475  15.143 -0.1932  0.1249  0.2257
21729W        W38203   8.503   6.345   4.482 -0.0004 -0.0498  0.1782
21730W        W38204  11.024   4.434  11.810 -0.1148  0.2589 -0.0021
21731W        W38205  10.642  10.500  14.454  0.1295 -0.0970 -0.1097
21732W        W38206   0.546   6.781  11.913  0.0628  0.0680 -0.2214
21733W        W38207  13.442   9.761   2.619  0.1890  0.0458  0.1156
21734W        W38208   2.360   7.212   0.206  0.1080 -0.1828  0.1348
21735W        W38209   6.122   6.839   1.195 -0.1333 -0.2633  0.1909
21736W        W38210  16.940  10.404   4.708 -0.1392  0.0608 -0.1375
21737W        W38211   1.095   8.687  13.949 -0.0257  0.0655  0.1572
21738W        W38212   9.557   5.063  14.315  0.0589  0.0588 -0.0197
21739W        W38213   5.232  13.261  15.369  0.2748  0.2689  0.2857
21740W        W38214  13.849   2.231   0.239 -0.0837 -0.1235 -0.1615
21741W        W38215  11.123  10.711  12.478 -0.1853 -0.3791  0.0248
21742W        W38216  17.129  15.229   0.642  0.0804 -0.0254  0.1818
21743W        W38217  16.202  17.499   5.395 -0.1694 -0.5154  0.2551
21744W        W38218  16.433   4.094  16.109  0.3358 -0.2769 -0.0886
21745W        W38219  10.077   9.482   2.595 -0.4040 -0.0589  0.1918
21746W        W38220  14.741   8.781  16.036  0.0265  0.3640  0.2389
21747W        W38221   4.011  12.408  11.648  0.1071  0.2301  0.1183
21748W        W38222   4.012  10.391  13.637  0.1827 -0.0490  0.2364
21749W        W38223   2.774  17.504   3.638  0.0971 -0.2139 -0.1741
21750W        W38224  16.470  11.027   5.679 -0.1226 -0.2142 -0.3370
21751W        W38225   0.523  12.791   5.292 -0.2218 -0.0166 -0.1896
21752W        W38226   2.640   6.157  12.166  0.1828 -0.0520  0.2516
21753W        W38227   2.482   1.432  16.571 -0.1584 -0.1628  0.0687
21754W        W38228   7.339  15.925  16.107 -0.0171  0.1684  0.0311
21755W        W38229   2.428  15.226  14.986 -0.0201  0.1589 -0.0581
21756W        W38230   3.775   2.746   0.013 -0.2635 -0.1068  0.0895
21757W        W38231   1.631   4.557  14.777  0.1036  0.0319 -0.4245
21758W        W38232  13.233  17.552  15.835 -0.2175  0.0289 -0.0736
21759W        W38233  16.450  14.966   5.479  0.0304  0.0242 -0.0057
21760W        W38234   1.409  10.111  13.972  0.3294  0.2931  0.4077
21761W        W38235  14.779   7.005  14.136  0.3797 -0.0479  0.0800
21762W        W38236  17.661   0.913   3.604 -0.0777  0.1731  0.1608
21763W        W38237   2.942   8.065  16.668  0.1267 -0.2820  0.0432
21764W        W38238   9.475  11.180   0.245  0.0258 -0.0865  0.1600
21765W        W38239   8.063   3.591   3.231 -0.0792 -0.1629  0.4285
21766W        W38240  10.276  17.427  14.668  0.1653  0.2725  0.2660
21767W        W38241   7.201   0.752  15.623 -0.0413  0.1128 -0.0379
21768W        W38242  17.312   4.594   5.643 -0.2846  0.2384  0.0920
21769W        W38243   9.585   3.239   1.578  0.2579  0.1335 -0.0700
21770W        W38244   4.357   7.464   4.910  0.1780  0.4219 -0.0435
21771W        W38245  11.326   6.672   4.645  0.1210  0.2608 -0.0834
21772W        W38246  10.773  11.604   0.844 -0.0705 -0.2530  0.2349
21773W        W38247   3.821  13.812  16.074  0.0146 -0.1752  0.1875
21774W        W38248   7.862   8.541  16.134 -0.2290  0.3067  0.1799
21775W        W38249   4.725  16.130  14.531 -0.3178 -0.4680 -0.1046
21776W        W38250   1.713  11.407   4.037 -0.1596  0.1641 -0.4668
21777W        W38251  12.504  17.658  15.853  0.0843  0.0239 -0.0551
21778W        W38252   9.161  12.366   1.773  0.3862 -0.0090 -0.2207
21779W        W38253  17.239  16.039   3.744 -0.2203 -0.3832  0.2305
21780W        W38254   7.547   0.973  14.438 -0.0655 -0.0537  0.1795
21781W        W38255  14.901   3.230   5.438  0.1442 -0.2134  0.1021
21782W        W38256  10.246   6.577  11.654  0.0489 -0.1990 -0.0079
21783W        W38257  10.514   6.047  12.747  0.1222 -0.0501 -0.0545
21784W        W38258  15.621  10.299  12.935  0.0938 -0.0846 -0.2417
21785W        W38259  11.474  14.595   0.647 -0.0275 -0.0229 -0.0241
21786W        W38260  11.822   0.227   0.998 -0.0054 -0.1715 -0.0749
21787W        W38261   1.619   7.236  13.960  0.2433  0.0375  0.0522
21788W        W38262   6.533  17.266  13.649 -0.0117 -0.2346 -0.3111
21789W        W38263   9.446  15.547   1.413 -0.1230 -0.2831 -0.0495
21790W        W38264   4.502  14.435  11.165  0.0178  0.1254 -0.1686
21791W        W38265   5.107  10.286  13.889 -0.1721 -0.1053 -0.0901
21792W        W38266  15.903  14.267   1.229  0.0048 -0.1978  0.2038
21793W        W38267   6.218   7.158  12.842  0.0686 -0.0696 -0.0680
21794W        W38268  16.450   8.666  15.671  0.2416 -0.0294  0.1180
21795W        W38269   8.567   4.939   5.529  0.3141 -0.3621  0.4090
21796W        W38270   0.251  12.819   0.228  0.0781  0.1663 -0.0776
21797W        W38271   9.707  15.392   2.320  0.1237 -0.4295 -0.0665
21798W        W38272  13.937   1.210   3.209 -0.0834  0.3182  0.0905
21799W        W38273   2.614   4.754   3.064  0.0912  0.1713  0.1027
21800W        W38274  16.443  11.701  11.949 -0.0377 -0.0966  0.1523
21801W        W38275  17.673   7.384   0.321  0.1452 -0.1571  0.0907
21802W        W38276   5.865   4.814  15.537  0.0402 -0.1813 -0.1019
21803W        W38277   0.379  12.087  11.681 -0.2628  0.0595  0.0982
21804W        W38278   9.858   7.299  12.893 -0.0684  0.1836  0.1068
21805W        W38279  15.171  11.177  11.718  0.1442  0.1426 -0.0126
21806W        W38280   5.070  10.859  16.377 -0.3621  0.1892 -0.0071
21807W        W38281   7.365  11.646  13.137  0.0206 -0.1500 -0.1126
21808W        W38282   2.869   7.223   1.959  0.0818  0.2060 -0.0294
21809W        W38283   2.515   0.662   3.817  0.1780 -0.0080  0.0185
21810W        W38284  11.404  10.832   0.027 -0.1012  0.1122  0.1199
21811W        W38285   2.642  17.398   4.842 -0.0181 -0.1444  0.0575
21812W        W38286  12.732   0.348   5.623  0.0657 -0.1061  0.2949
21813W        W38287  12.549   9.207   5.712 -0.2550  0.0988 -0.0414
21814W        W38288   2.373   3.303   0.993  0.2942 -0.0731  0.2836
21815W        W38289  17.192  10.064  15.221 -0.1222 -0.0399  0.1600
21816W        W38290  12.377   8.835  13.153 -0.1931 -0.0491  0.2030
21817W        W38291   2.920   5.137  12.028  0.0600  0.1209  0.1464
21818W        W38292   6.948   6.323  14.271  0.0285  0.0672  0.2503
21819W        W38293  14.006   5.221  13.284  0.2189  0.2916 -0.0232
21820W        W38294   1.340  11.704  16.515 -0.1844 -0.1096 -0.1230
21821W        W38295  14.522   8.265  16.024 -0.3533 -0.2657 -0.1193
21822W        W38296  17.410   0.588   6.166  0.0131  0.0524  0.0663
21823W        W38297   0.599  17.672   6.660  0.1521 -0.1336  0.2775
21824W        W38298   5.803  16.514   2.953  0.2303  0.0123 -0.0476
21825W        W38299  16.651  11.108   3.167  0.0547  0.2122 -0.0008
21826W        W38300   2.844  12.334   0.304 -0.0070  0.2334  0.0416
21827W        W38301   4.310   9.341  16.573  0.1146  0.1117 -0.5242
21828W        W38302  11.205   8.943  11.961 -0.0230 -0.2626  0.2247
21829W        W38303   1.378   8.036  11.908 -0.1461 -0.1403 -0.0142
21830W        W38304  12.250  15.786   2.541  0.2307 -0.2382  0.2191
21831W        W38305  11.650   9.567   5.707  0.2041 -0.0170  0.0632
21832W        W38306   5.694  12.594  12.486 -0.0344  0.2117 -0.1970
21833W        W38307  17.145   8.871   3.409 -0.3308  0.2123  0.0278
21834W        W38308   3.389  15.467  14.855 -0.1526 -0.1753  0.0352
21835W        W38309   6.220   1.659   0.789  0.2318 -0.0175 -0.0549
21836W        W38310   6.838  15.540   3.268  0.1771 -0.0094  0.3453
21837W        W38311  14.467   6.523   6.304  0.3495 -0.1833  0.1943
21838W        W38312  13.721   5.357   4.692 -0.6898 -0.0556  0.2107
21839W        W38313  13.514   0.464   2.063  0.2082  0.0439  0.0459
21840W        W38314   0.048   0.564   2.840  0.1019 -0.4307  0.1019
21841W        W38315   6.175   5.698  16.510 -0.1082  0.2293  0.0019
21842W        W38316  16.805   6.596   5.045  0.2560 -0.0081 -0.1247
21843W        W38317   0.225   9.638   4.603 -0.4246 -0.0459 -0.0466
21844W        W38318   0.237   6.429   2.681  0.0669 -0.2141  0.0079
21845W        W38319  16.869   5.407  11.846  0.2181  0.0456 -0.0149
21846W        W38320   4.616  15.422  13.246  0.2269 -0.1484 -0.0021
21847W        W38321  10.176   0.087  16.684 -0.1910  0.0214  0.1505
21848W        W38322   8.336  12.580   1.271 -0.0318  0.0127 -0.3551
21849W        W38323  17.676   7.785   3.482  0.0445 -0.5759  0.1602
21850W        W38324   8.467   1.972   2.673  0.1247  0.0641 -0.2177
21851W        W38325   6.339  12.640  13.134  0.0211 -0.2007  0.0596
21852W        W38326  11.488   4.141  15.382 -0.3224  0.0084  0.0336
21853W        W38327  14.463   5.854  12.691  0.0403 -0.0174 -0.1627
21854W        W38328   7.775   7.290   1.131  0.3986 -0.0024  0.1887
21855W        W38329  16.951  11.353  15.592  0.0235  0.1514 -0.1147
21856W        W38330   1.928  10.758   0.529  0.0657  0.3309 -0.1097
21857W        W38331  17.891  11.216  13.414  0.0550  0.3721 -0.2430
21858W        W38332   3.997   7.569   0.879  0.0318  0.3184  0.1779
21859W        W38333   8.321  15.320   4.477 -0.2487 -0.1385 -0.0279
21860W        W38334  10.042   3.963  15.005 -0.0020 -0.2387  0.2489
21861W        W38335   5.948  12.366   4.853  0.0785 -0.3280  0.1596
21862W        W38336  15.121  12.140   1.067  0.1171 -0.0249 -0.0618
21863W        W38337   6.754   0.761   3.970 -0.4342  0.2906  0.0971
21864W        W38338  11.776   8.314  12.841  0.0120  0.0362 -0.0217
21865W        W38339  15.152   6.047  12.083 -0.1662  0.1385 -0.2051
21866W        W38340  13.660  11.605  16.629 -0.3788  0.0621 -0.0449
21867W        W38341  10.353  14.721   2.134 -0.1942 -0.3267 -0.3607
21868W        W38342  13.646   7.003   6.161 -0.1248  0.0051  0.0804
21869W        W38343   8.094   0.924  11.516 -0.2181  0.0925  0.0065
21870W        W38344   0.335  17.637  13.946 -0.0490 -0.2361  0.2014
21871W        W38345   6.184  14.826   2.897  0.0056  0.3940  0.2093
21872W        W38346  12.832   5.771  15.058 -0.5182 -0.1398 -0.3088
21873W        W38347  17.675   2.751   3.844 -0.1949  0.1330 -0.1736
21874W        W38348  16.622   6.263   2.934 -0.2093  0.1413  0.1713
21875W        W38349   8.973  10.971  12.150 -0.0163  0.1274  0.1186
21876W        W38350  14.096   6.274  14.300 -0.0215 -0.0501  0.2509
21877W        W38351   7.151   6.925   2.748 -0.3505 -0.0696 -0.0647
21878W        W38352  12.854   4.704  14.387 -0.1605  0.4944  0.0952
21879W        W38353   1.941   0.479   3.126  0.0532 -0.0864  0.2563
21880W        W38354   2.229  16.877  11.795 -0.0248 -0.2623  0.0712
21881W        W38355  12.115  12.627   2.729 -0.1633  0.0151  0.1480
21882W        W38356  15.782   4.563   1.987 -0.0206  0.1231  0.0341
21883W        W38357  14.208   9.319  16.145 -0.0919  0.0407  0.3084
21884W        W38358   3.895  13.698   3.541 -0.1035 -0.2265 -0.0182
21885W        W38359   5.308  17.380   2.089 -0.1383 -0.2856 -0.2232
21886W        W38360   8.474   0.218   4.484 -0.0713 -0.2201  0.1201
21887W        W38361  12.257  16.964   2.379  0.0714  0.0160  0.2165
21888W        W38362   2.586   2.611   5.980 -0.2513  0.2262 -0.3892
21889W        W38363  15.551   8.743   2.693  0.4561 -0.1156 -0.3351
21890W        W38364  16.109   6.108   2.821 -0.1155  0.0539 -0.2974
21891W        W38365  12.666   0.702   5.212 -0.2536 -0.0414  0.1477
21892W        W38366  14.298   5.941   5.498  0.0877 -0.5389 -0.1562
21893W        W38367  16.144   8.128  16.423  0.1655 -0.0399  0.0240
21894W        W38368   3.877  17.633   2.008  0.3966 -0.1887 -0.0245
21895W        W38369   5.705  17.518   2.771 -0.4343  0.2212 -0.0052
21896W        W38370   2.483  16.189   5.157  0.0954  0.2972  0.1267
21897W        W38371   7.110   6.852  11.955  0.1356  0.1173 -0.0457
21898W        W38372   5.829   9.406   1.282 -0.0738  0.1896  0.0735
21899W        W38373  16.746  10.115  12.822  0.1883  0.1321  0.1908
21900W        W38374   3.085   8.884  11.426  0.0574 -0.1539  0.0394
21901W        W38375   0.972  17.866  11.698 -0.0613 -0.2485 -0.1261
21902W        W38376   5.485  17.941  12.906 -0.1666  0.2532 -0.0786
21903W        W38377  12.180  14.913   0.452 -0.2064  0.2568 -0.0059
21904W        W38378   6.400  14.690  14.818 -0.0186  0.1984 -0.3160
21905W        W38379   1.623  10.976   5.253 -0.0345  0.1377 -0.0274
21906W        W38380  11.711   9.336   5.223  0.1393 -0.5084  0.0547
21907W        W38381  16.090  15.801   4.234 -0.2122 -0.0853  0.3048
21908W        W38382   7.672   6.438   3.703  0.0922 -0.0501 -0.0755
21909W        W38383   0.490   7.164   0.899 -0.2129 -0.2097  0.3279
21910W        W38384  13.745   1.246  15.533  0.0687  0.0939  0.0281
21911W        W38385  14.654  10.151   1.163 -0.4044  0.1039 -0.2944
21912W        W38386   1.010   6.635  13.580 -0.0472 -0.0725  0.2289
21913W        W38387  12.377   2.474   0.521 -0.0492  0.0316 -0.1367
21914W        W38388   8.103   4.102  12.966  0.2461  0.3992 -0.0367
21915W        W38389  14.821  15.063   2.066  0.0571 -0.0411 -0.1476
21916W        W38390   4.036  17.834  13.121 -0.1582 -0.0756  0.3560
21917W        W38391   3.101   5.899  12.472  0.2520  0.1067 -0.2027
21918W        W38392   6.608  15.016  11.313  0.0822  0.0624  0.0297
21919W        W38393   4.990  14.153  15.890  0.0148 -0.1176 -0.2497
21920W        W38394   2.093  15.814   1.592 -0.0452  0.0931 -0.1495
21921W        W38395   9.256  10.572  13.634  0.2080 -0.2686  0.0412
21922W        W38396  16.794  13.287   4.299  0.1374  0.2622  0.0383
21923W        W38397  12.198   8.212  16.075 -0.0865 -0.0266 -0.1770
21924W        W38398   6.389   7.379  13.732  0.1562 -0.2355  0.0078
21925W        W38399   7.693   4.505   3.055 -0.0583  0.0681 -0.4340
21926W        W38400  16.933   1.485   2.994 -0.1219 -0.2799 -0.0350
21927W        W38401  14.044   2.364   1.984  0.0170  0.2345 -0.0637
21928W        W38402   6.368  16.922   3.645 -0.1930  0.0591 -0.0332
21929W        W38403  11.289  10.039  15.224  0.0934 -0.3668 -0.1430
21930W        W38404   3.127  10.396   4.498 -0.1721  0.0097  0.1801
21931W        W38405   3.159  15.228  12.571 -0.1265 -0.2195  0.2226
21932W        W38406   9.564  17.072  16.709 -0.0210  0.2027 -0.0931
21933W        W38407   3.195   8.081  16.150 -0.1697  0.0688  0.2553
21934W        W38408   5.024   3.412   5.025  0.3241 -0.2342 -0.0589
21935W        W38409  14.310  14.226  16.632  0.0630 -0.0754 -0.1216
21936W        W38410   3.993  16.142  14.787 -0.0437  0.3135 -0.2285
21937W        W38411   6.301  12.751  16.265 -0.0048  0.0030  0.2453
21938W        W38412  16.671  16.040  10.856  0.4097  0.2107  0.2641
21939W        W38413   5.311   0.019  12.422  0.0470  0.1762  0.0197
21940W        W38414   8.350  17.963   1.126  0.0331  0.2023  0.0707
21941W        W38415  17.760  13.447   3.883 -0.2544 -0.1948  0.4041
21942W        W38416  11.472   1.410  14.909  0.0419 -0.1550 -0.2214
21943W        W38417  10.474   8.612   1.412 -0.0104 -0.1727 -0.1256
21944W        W38418   0.348  11.791  10.726  0.2613 -0.1619 -0.1524
21945W        W38419  10.613  13.236   2.323 -0.0868  0.0028  0.3237
21946W        W38420   7.322   1.374   0.933  0.0466 -0.1705  0.1434
21947W        W38421  17.372   1.562   0.946 -0.0799  0.1709  0.1301
21948W        W38422   7.067   4.428   1.933  0.0815  0.0897 -0.2991
21949W        W38423   2.927   5.675   4.100  0.0308 -0.1538  0.0928
21950W        W38424   9.892  17.641  10.612 -0.0174 -0.1717 -0.0753
21951W        W38425  13.645  17.762  12.187  0.1842  0.0489 -0.1139
21952W        W38426  10.045   1.015  15.513 -0.0726 -0.2032  0.0360
21953W        W38427   6.355  14.653   1.547 -0.1265  0.0883 -0.0872
21954W        W38428   1.637   0.346   4.086 -0.0990 -0.0225 -0.1705
21955W        W38429   5.740   6.964   3.059 -0.1668 -0.3038 -0.1105
21956W        W38430   6.118  13.726   1.633 -0.1852  0.2755  0.2259
21957W        W38431  13.077  10.676   2.257  0.3375 -0.0900 -0.1426
21958W        W38432   8.172   6.338   1.829  0.0047 -0.2541  0.1758
21959W        W38433   9.443   0.150   1.072  0.0940 -0.3160  0.2223
21960W        W38434   5.383   4.707   5.677  0.2397  0.0214 -0.0601
21961W        W38435  13.446   1.707   1.684 -0.0508 -0.1432 -0.0160
21962W        W38436  12.846   0.300   3.412 -0.0661 -0.0422 -0.3307
21963W        W38437   1.250   3.306   3.971 -0.2652 -0.2424  0.0599
21964W        W38438  14.956   4.398   4.714 -0.2264 -0.3909 -0.0075
21965W        W38439  16.236   1.174  11.841  0.1530 -0.4391  0.1795
21966W        W38440   5.102   6.289   4.054  0.0725  0.1379 -0.1870
21967W        W38441   7.755   6.385   4.792 -0.1076 -0.1645  0.2457
21968W        W38442   5.060  10.352   2.123 -0.0834  0.2677 -0.0284
21969W        W38443  13.997   9.436  14.124  0.1173 -0.3470 -0.0709
21970W        W38444  12.201   3.055   1.701  0.1358 -0.0561 -0.1581
21971W        W38445  13.758  10.993   3.211 -0.1750  0.0154  0.0498
21972W        W38446   7.809   0.291  12.453 -0.0973  0.2590 -0.1447
21973W        W38447   8.851   8.694   2.365 -0.2357  0.0152 -0.2141
21974W        W38448  12.777   6.944  15.621  0.0578 -0.1128  0.2138
21975W        W38449  16.998  14.754   3.933  0.1574  0.0425  0.1943
21976W        W38450  14.082   8.330  11.999  0.0366 -0.1046  0.0490
21977W        W38451   2.708  16.693  14.878  0.2462 -0.1325 -0.0975
21978W        W38452   9.744  16.820  14.006  0.3071  0.0973  0.0265
21979W        W38453   2.329  16.857   0.649 -0.3397 -0.0233 -0.0687
21980W        W38454   1.799   3.993  11.859  0.2092 -0.4677 -0.1770
21981W        W38455  12.189  16.405  12.843 -0.1211 -0.3029 -0.0659
21982W        W38456   3.286  15.641   2.904  0.1317 -0.1158  0.3018
21983W        W38457  17.661  14.393  12.065  0.0790  0.0453  0.0810
21984W        W38458  15.064  16.579  16.319  0.2543 -0.2197  0.1419
21985W        W38459   5.734   6.561  16.287  0.0592  0.1977  0.1613
21986W        W38460   8.109   8.147  13.839  0.0114  0.1228 -0.1019
21987W        W38461   4.398   5.029  14.135 -0.3592 -0.0016 -0.3641
21988W        W38462  13.265  17.289  16.676  0.0835  0.0112 -0.2844
21989W        W38463  11.378   2.175   4.253 -0.0179  0.0234 -0.1936
21990W        W38464  11.720   0.178  11.678 -0.2462 -0.0306 -0.0281
21991W        W38465   8.397   2.712  11.962  0.1641 -0.1190 -0.1036
21992W        W38466  15.815   7.575   1.701 -0.0386  0.2148 -0.1554
21993W        W38467  14.781   0.580   4.327 -0.2244  0.1087  0.1893
21994W        W38468   7.692   4.752  16.771  0.1083 -0.0320 -0.0624
21995W        W38469  17.376   4.610   2.919 -0.0500 -0.0439 -0.1283
21996W        W38470  14.541  11.433   3.972  0.0543 -0.2084  0.5237
21997W        W38471   4.501   4.561   1.550 -0.0559 -0.1731 -0.1467
21998W        W38472  10.338  17.461  12.303  0.1673 -0.1927 -0.1110
21999W        W38473  13.711   3.732  14.438  0.0231  0.1440 -0.0386
22000W        W38474   2.172   3.862   3.190  0.0291  0.1147  0.0257
22001W        W38475   2.188  14.543   4.509 -0.1373  0.0205 -0.0260
22002W        W38476  11.675  15.136  13.601 -0.2267  0.0512  0.0772
22003W        W38477   9.129   5.927   3.356  0.2623  0.0524  0.0350
22004W        W38478  15.369  11.254  16.752 -0.1137 -0.1847  0.0107
22005W        W38479   3.827  12.774   5.730 -0.1103  0.0439  0.1126
22006W        W38480   7.008   4.706  14.627 -0.1098 -0.0953  0.0276
22007W        W38481  14.394  12.550  15.411 -0.2950 -0.0532  0.2281
22008W        W38482  10.100   8.276   1.439  0.0632  0.1009  0.2409
22009W        W38483   7.424  15.950   0.315  0.1668 -0.0344  0.5200
22010W        W38484   3.058  14.577   3.565  0.0923 -0.1795 -0.0688
22011W        W38485   6.141  11.591   0.935  0.0719  0.0857 -0.1440
22012W        W38486  16.919   2.341   2.130  0.0290  0.0353  0.0197
22013W        W38487   6.931   0.035   5.272 -0.0374  0.1697 -0.0185
22014W        W38488  15.970  10.514  13.864 -0.0791 -0.0570 -0.0396
22015W        W38489   2.026  15.817  15.784  0.0325  0.0237  0.1963
22016W        W38490   5.627  17.899   1.022  0.0524 -0.0591  0.2388
22017W        W38491   0.801  10.412  16.736  0.0715 -0.0998  0.0867
22018W        W38492   8.199  11.825   4.439 -0.1449  0.1233 -0.3395
22019W        W38493   1.142   3.059   3.481 -0.1600 -0.2836  0.1754
22020W        W38494   7.525   5.569   1.643 -0.3500 -0.1258  0.0184
22021W        W38495  17.954  14.309   3.295 -0.1596 -0.2052 -0.2013
22022W        W38496  14.126   9.327  12.876  0.1617 -0.1532  0.1265
22023W        W38497   7.234  11.533   3.897 -0.0105 -0.0979 -0.1826
22024W        W38498  15.732   0.355   4.294 -0.0001 -0.0689 -0.1105
22025W        W38499   3.919   9.555   5.573 -0.1892 -0.0608  0.2299
22026W        W38500   8.766   1.376  12.818  0.1905 -0.0383 -0.1492
22027W        W38501   3.301   6.824   4.800  0.0864 -0.1767 -0.2235
22028W        W38502  17.569  17.254  13.864  0.2317  0.2948  0.4142
22029W        W38503   7.319   6.891  16.759 -0.2258  0.0779  0.1851
22030W        W38504   2.901   4.050   2.457 -0.1181 -0.1616  0.0369
22031W        W38505  11.489  15.077  12.041  0.0222  0.2499  0.2949
22032W        W38506   9.593   6.721   5.152 -0.0555  0.2462  0.0244
22033W        W38507   9.610  15.270   2.941 -0.1273  0.1142  0.1305
22034W        W38508   7.271  13.586  14.299 -0.1386  0.4223 -0.1953
22035W        W38509  15.607   6.829  11.777  0.0359 -0.1247 -0.1647
22036W        W38510   0.247   2.048   0.602 -0.2718  0.2100 -0.2722
22037W        W38511  11.793   1.488  11.710  0.5022 -0.4744 -0.0941
22038W        W38512  16.087   4.556  12.592 -0.1549 -0.0474 -0.0060
22039W        W38513  14.162   9.004   5.377  0.1127  0.1593  0.0193
22040W        W38514   3.678   6.320   1.335 -0.2476  0.1049 -0.0322
22041W        W38515   1.523   1.432   3.024 -0.0254 -0.1337 -0.1053
22042W        W38516   8.612   3.460   4.942  0.1137  0.0938 -0.2145
22043W        W38517  15.582  16.498  13.459 -0.0739 -0.0578  0.0993
22044W        W38518  11.172   7.289  10.930  0.0469 -0.3407  0.1409
22045W        W38519  17.937   1.014   4.905 -0.0941 -0.0201 -0.1837
22046W        W38520  16.234   8.718   1.375 -0.3838 -0.3571 -0.1275
22047W        W38521   1.804  11.939   3.813 -0.0392  0.1869  0.0623
22048W        W38522  12.202   5.618   0.828  0.3590 -0.0251 -0.0829
22049W        W38523  12.885   5.110  14.069 -0.1041 -0.1504  0.0774
22050W        W38524   4.371  11.118   2.682 -0.0237 -0.1283  0.1671
22051W        W38525  10.634   6.409   3.357 -0.0260 -0.0317 -0.0340
22052W        W38526   9.249  11.525  14.425  0.2183 -0.2738  0.0097
22053W        W38527   2.532   7.560  11.795  0.0318  0.0604 -0.0741
22054W        W38528  15.935   6.352   2.410 -0.2073  0.0638  0.3921
22055W        W38529   8.474   5.351   0.031 -0.1543 -0.1179  0.1880
22056W        W38530   7.573  13.923  16.668  0.1282 -0.1138 -0.1297
22057W        W38531  15.315   2.826  14.378  0.0953 -0.0352 -0.0374
22058W        W38532  15.542  11.439   5.154  0.0988 -0.1145  0.2906
22059W        W38533   0.591   4.827  12.650 -0.0064 -0.0395 -0.0620
22060W        W38534   2.523  10.543  15.877 -0.0069 -0.0723  0.1951
22061W        W38535  12.842  12.805  13.692 -0.1937  0.1279 -0.3488
22062W        W38536   8.973   2.966   3.367  0.0815  0.0595 -0.0802
22063W        W38537  14.682  17.220   4.984  0.2111 -0.0138 -0.0668
22064W        W38538   4.732  13.204  14.290  0.0232 -0.1777  0.2532
22065W        W38539   1.547   1.919   3.707  0.3150  0.1241 -0.1597
22066W        W38540  11.351  14.477  12.694  0.2436  0.0508 -0.2072
22067W        W38541   2.473  16.577  12.695  0.1055  0.0713  0.2246
22068W        W38542   7.658   6.161  14.339  0.2207 -0.0266 -0.1382
22069W        W38543   7.721  12.154   3.761  0.1151 -0.0734 -0.0517
22070W        W38544   9.743   9.410   0.235  0.1608 -0.0236 -0.1766
22071W        W38545  13.828  16.045   3.060 -0.2151 -0.0901  0.2349
22072W        W38546  15.286  15.004   1.577 -0.0152 -0.1881 -0.2610
22073W        W38547  11.221   5.442   5.146 -0.0401  0.0505  0.2263
22074W        W38548  12.531   9.338  16.392  0.0612  0.0177 -0.0613
22075W        W38549  15.711  16.195  14.486 -0.2814  0.1475  0.0995
22076W        W38550   4.687  10.052  12.984  0.0318  0.0235 -0.0258
22077W        W38551   9.686   1.261  12.756 -0.0460  0.1578  0.2293
22078W        W38552   9.315  10.101   2.091 -0.0347  0.0501 -0.0245
22079W        W38553  10.949   1.829   5.273  0.0606 -0.0761  0.2309
22080W        W38554   4.415   6.489   4.173  0.0534  0.0038 -0.0691
22081W        W38555   0.078   0.548  12.680  0.1806 -0.1328 -0.1451
22082W        W38556   5.344  10.382   5.272  0.0011 -0.0552 -0.1113
22083W        W38557  13.580  15.673  16.522 -0.1825  0.0908 -0.0970
22084W        W38558  14.661  10.048  15.344  0.3932  0.0357  0.3077
22085W        W38559  15.796  10.076  13.372  0.1088  0.0690 -0.1415
22086W        W38560  17.600  17.436   5.482  0.0365 -0.1340  0.1149
22087W        W38561  12.161   6.913  15.530 -0.0856 -0.0253  0.0077
22088W        W38562   6.463  11.687  11.393  0.1085 -0.2970  0.0253
22089W        W38563  11.232   0.574  13.419 -0.0449  0.0424 -0.1462
22090W        W38564   9.459   3.251  14.810  0.2663  0.2079 -0.1292
22091W        W38565  14.366  10.608  16.173 -0.0960 -0.2693 -0.3371
22092W        W38566  10.313  14.499   4.823 -0.3776  0.1179 -0.1440
22093W        W38567   1.781  11.296  11.991 -0.1081 -0.1188  0.1491
22094W        W38568  14.827  16.953   4.366 -0.2598  0.0334 -0.2742
22095W        W38569   4.730  11.572  12.325  0.1680 -0.0132 -0.4890
22096W        W38570   1.118  12.600   0.781  0.1525  0.2862  0.0151
22097W        W38571  15.910  17.201  16.410 -0.0214  0.0660  0.0696
22098W        W38572   8.294  10.512   2.356 -0.3448 -0.2038 -0.1192
22099W        W38573  12.645   4.693  14.990 -0.2830  0.0199 -0.0386
22100W        W38574   4.200   8.667   1.074 -0.0406  0.1161  0.1134
22101W        W38575   2.677   0.160   4.155 -0.2801  0.1178  0.0796
22102W        W38576   0.247   1.579   1.018 -0.2563 -0.1519 -0.0118
22103W        W38577  17.647  12.131   4.981 -0.0500 -0.1942 -0.1885
22104W        W38578  10.610  15.503   2.612  0.1217  0.2333  0.1003
22105W        W38579   0.869   6.491  15.249  0.0054  0.1592 -0.1911
22106W        W38580  16.375   2.689  14.033  0.2279 -0.3404 -0.0115
22107W        W38581  11.823  16.322   0.447  0.0460 -0.2348  0.1146
22108W        W38582  16.215   7.481   4.852  0.0905  0.0045 -0.2126
22109W        W38583   5.202  16.492   2.999  0.2833 -0.0272 -0.0810
22110W        W38584  12.708   6.548  16.404 -0.3801 -0.0383  0.3215
22111W        W38585  10.648   9.412  12.691 -0.0410  0.0768 -0.1343
22112W        W38586  13.612   7.451   0.903  0.3503 -0.0475  0.1750
22113W        W38587  10.054  10.857  15.504 -0.2891  0.2396 -0.0678
22114W        W38588   2.819   3.156  16.691 -0.0250  0.0942  0.2056
22115W        W38589   6.712  11.404   3.883 -0.1856  0.0038 -0.0282
22116W        W38590   7.274   4.276   4.119 -0.0969 -0.3397  0.0244
22117W        W38591   6.032   4.116   1.200  0.0967 -0.0383 -0.1715
22118W        W38592   7.213   8.506   1.622  0.0382  0.0031  0.2317
22119W        W38593   9.586   2.095  13.678  0.0216  0.3182 -0.0768
22120W        W38594  16.217  10.742  16.335 -0.3102  0.0050 -0.4154
22121W        W38595  15.656   7.332   5.046 -0.1686  0.1312  0.3806
22122W        W38596   1.317   0.223  15.497 -0.1740 -0.0916 -0.1004
22123W        W38597  14.374   5.304  12.245 -0.0140 -0.2736  0.2777
22124W        W38598   1.177   5.762  13.364 -0.0113  0.1010 -0.0251
22125W        W38599  17.410  11.261   0.029  0.1215 -0.0480  0.0592
22126W        W38600  11.879  16.200  13.238 -0.0951 -0.0966  0.0182
22127W        W38601   5.226   9.827   1.205 -0.1562  0.1035 -0.3083
22128W        W38602   2.358   1.352  13.974  0.0048  0.1846  0.1978
22129W        W38603  11.326   1.177  13.827 -0.2410 -0.0466 -0.3095
22130W        W38604  12.091   4.071  15.429 -0.2870  0.2449  0.0450
22131W        W38605   0.013   8.960   4.971 -0.0471 -0.1215  0.0813
22132W        W38606   7.363   8.467  16.038 -0.0537 -0.1231  0.5940
22133W        W38607   7.653  15.084  12.890  0.2335  0.0646 -0.1318
22134W        W38608   3.852   2.759   0.538 -0.1174  0.0202  0.1863
22135W        W38609  12.638  16.013   6.317 -0.2899 -0.1013  0.1553
22136W        W38610   5.333  14.410  11.549  0.0334 -0.0408  0.0238
22137W        W38611  12.942  16.166   3.373  0.1615 -0.2107 -0.0005
22138W        W38612   4.918   9.311  12.119  0.0059 -0.1596  0.1488
22139W        W38613  16.708   9.282  14.258  0.3043 -0.1159 -0.1342
22140W        W38614  14.714   6.021   3.045 -0.0509 -0.2447  0.2632
22141W        W38615  15.155   8.805   2.403  0.1149  0.0706 -0.1529
22142W        W38616   5.976   1.777  15.331  0.1681  0.2201 -0.1145
22143W        W38617   8.344  13.832  13.405  0.0498 -0.0622  0.1778
22144W        W38618   1.616  16.408   2.123  0.2262 -0.0938 -0.1871
22145W        W38619   5.663   4.742  13.009  0.0659  0.0933  0.1662
22146W        W38620  12.310  13.520   2.338 -0.2129  0.0483 -0.3144
22147W        W38621  11.206   5.836  16.023 -0.3054  0.3544 -0.1820
22148W        W38622   1.614   9.732  13.071 -0.0654  0.1956  0.0034
22149W        W38623  10.721  11.490  12.064  0.0273  0.1200  0.0257
22150W        W38624  11.072   4.357   0.041  0.1826 -0.2636 -0.1574
22151W        W38625   7.649   7.947  13.538  0.0698 -0.3055  0.0379
22152W        W38626   1.104   4.919  14.566  0.1573  0.3093  0.0978
22153W        W38627  17.727  14.194   0.422  0.0601  0.2247  0.0343
22154W        W38628  16.673  13.205  13.125 -0.3693 -0.2353  0.0594
22155W        W38629   8.688  12.399   0.244  0.0306 -0.3019 -0.1005
22156W        W38630  10.070   6.712  16.305  0.1537 -0.1154 -0.0403
22157W        W38631   6.869  12.043  15.811 -0.1945 -0.0430  0.1830
22158W        W38632  13.240   6.788  14.655  0.1582  0.0691 -0.0141
22159W        W38633   0.775   8.422   4.006  0.2429  0.0350  0.2622
22160W        W38634  12.304   5.654   3.513 -0.0073  0.0942 -0.0115
22161W        W38635   8.906  17.972  15.239  0.0230  0.0120 -0.0488
22162W        W38636  15.148   2.596   3.906 -0.0881  0.0009 -0.1632
22163W        W38637  12.808   8.814   5.904 -0.4516  0.2030 -0.1398
22164W        W38638   4.072   2.061  14.783  0.0092 -0.2024 -0.0069
22165W        W38639  12.361   6.387   0.481 -0.1205 -0.2965 -0.1034
22166W        W38640  16.006  16.337  15.859 -0.0524 -0.0533 -0.1189
22167W        W38641  12.116  15.826  16.753 -0.1119 -0.1285  0.2164
22168W        W38642   0.451  10.564  15.974  0.0424  0.0883  0.0354
22169W        W38643   6.940  14.139   5.315 -0.0272  0.2084  0.1057
22170W        W38644  16.653   7.232   5.055 -0.1984  0.1424 -0.2151
22171W        W38645   8.875   8.622   3.301  0.1640  0.0766  0.3165
22172W        W38646  12.442  13.514   2.856  0.0029 -0.1597  0.0959
22173W        W38647   6.068  15.203  12.175  0.0499  0.3593  0.2617
22174W        W38648  14.831  11.563   4.781  0.2590 -0.2558  0.2266
22175W        W38649  14.001   0.516   5.740  0.1001  0.3352  0.0185
22176W        W38650   1.757   1.799   3.276  0.1688 -0.1980  0.0655
22177W        W38651   4.191   5.625   5.631  0.0261 -0.1036 -0.1162
22178W        W38652   2.132   4.472  13.427 -0.2705  0.0669 -0.1748
22179W        W38653   0.441  12.542  12.580 -0.0183  0.1001 -0.1452
22180W        W38654   2.557   0.155   3.668 -0.0866 -0.3819  0.0605
22181W        W38655   1.562   7.138  11.922  0.1551 -0.0015 -0.3002
22182W        W38656  14.076   4.689   4.863  0.1464  0.1548 -0.2791
22183W        W38657   4.014   4.180  12.155  0.0002  0.3348  0.0900
22184W        W38658   1.047  12.514  12.694  0.0841 -0.1032  0.4102
22185W        W38659   8.723   7.104  15.726 -0.1266 -0.0905 -0.1802
22186W        W38660  10.604  10.905  14.124 -0.0563  0.0379 -0.1825
22187W        W38661  13.889  14.636  12.710  0.2323  0.0215  0.1092
22188W        W38662  12.612   9.555   5.325  0.0098  0.4898 -0.0716
22189W        W38663   7.155  16.766   1.177  0.2361  0.3819 -0.0709
22190W        W38664   5.119   1.754   1.557 -0.0553 -0.1219 -0.0002
22191W        W38665   2.142   0.888   0.485 -0.2405  0.0735 -0.0463
22192W        W38666   0.240  13.177  14.654  0.1174 -0.1783  0.0812
22193W        W38667  17.737  12.493   1.128  0.0639 -0.1463  0.3030
22194W        W38668   8.028   8.648   2.065  0.1434 -0.1653 -0.0480
22195W        W38669  13.438   8.682  13.263  0.0215 -0.4269 -0.0145
22196W        W38670  17.074  17.775   6.428  0.0156  0.2070 -0.2424
22197W        W38671  13.263   3.290  14.652  0.1287 -0.0485  0.1062
22198W        W38672   7.226   4.197   4.898 -0.2271 -0.4878  0.0116
22199W        W38673  10.868  16.755   0.302  0.2265  0.1022 -0.1614
22200W        W38674  10.791   8.395   5.836 -0.2680  0.3752 -0.0838
22201W        W38675  14.456  17.199   3.502  0.0019 -0.1178  0.1951
22202W        W38676   2.819   0.926  15.326 -0.0673  0.0576  0.0641
22203W        W38677   2.499   7.076   3.333 -0.1511  0.0385 -0.0328
22204W        W38678  13.619   9.939  14.505 -0.3424 -0.0876  0.3226
22205W        W38679   7.561   7.771   0.469  0.0144  0.1132 -0.2486
22206W        W38680  14.768  16.898   1.325  0.0188  0.2475  0.1209
22207W        W38681   6.104   1.159  12.730  0.1090 -0.1452 -0.0794
22208W        W38682   3.654   3.230  15.937 -0.0602 -0.1254 -0.0641
22209W        W38683   0.225   9.228   1.976 -0.1792 -0.0487 -0.0582
22210W        W38684   4.559   1.968  13.034  0.0053 -0.0930  0.1102
22211W        W38685  10.349   3.541   2.668  0.0242  0.2313  0.0128
22212W        W38686   7.976  13.985   0.747 -0.0594  0.1384 -0.2491
22213W        W38687   4.145   0.563   5.038 -0.2708  0.0181 -0.3796
22214W        W38688  16.554  17.294   0.707  0.0979 -0.3484 -0.0818
22215W        W38689   5.265  11.167   3.029 -0.0536  0.0686  0.0201
22216W        W38690   9.861   0.023   5.924 -0.1068 -0.1089 -0.1383
22217W        W38691   0.804   1.630  14.870  0.2306  0.1785 -0.0120
22218W        W38692  10.413   3.366   4.290 -0.0020  0.1902  0.0428
22219W        W38693  17.454  11.077  13.189  0.0995 -0.2195 -0.0626
22220W        W38694   6.654  16.460   5.331 -0.1462 -0.0843  0.0147
22221W        W38695   0.249   8.171  13.323  0.1011  0.2879  0.0935
22222W        W38696  13.041   1.301  14.865  0.1154 -0.0614  0.2172
22223W        W38697  16.415   9.675  16.646 -0.1141  0.0321 -0.0044
22224W        W38698  17.184   6.499   0.963  0.1007  0.0592  0.4821
22225W        W38699  17.212   9.497  15.177  0.2065  0.2027  0.1023
22226W        W38700   4.356  13.738   3.832  0.0143  0.2122  0.3481
22227W        W38701   2.451   9.986   0.748 -0.1861  0.0149  0.0080
22228W        W38702   7.563  17.007  14.210 -0.0716  0.1196 -0.0526
22229W        W38703  13.924  10.283   0.457  0.2072  0.1062 -0.1313
22230W        W38704   8.266  12.394  16.770 -0.0170 -0.1926  0.0443
22231W        W38705  17.712   2.968  13.885  0.1835 -0.1167  0.1740
22232W        W38706   7.257   8.806  12.105 -0.1218 -0.0539  0.2372
22233W        W38707   1.866  13.305  13.744  0.0939 -0.0593  0.2088
22234W        W38708  15.699   0.162   5.264 -0.0796  0.0874 -0.2023
22235W        W38709   8.902  11.106   2.049 -0.1738 -0.2881 -0.0607
22236W        W38710   2.147  16.109   3.273  0.0244 -0.0217 -0.0274
22237W        W38711  14.339   6.915  15.966  0.1595  0.4279  0.3640
22238W        W38712  13.417   9.405  11.560  0.0044 -0.0476  0.0091
22239W        W38713   9.733   1.029  11.294 -0.0617  0.1182 -0.0629
22240W        W38714  17.576   3.173   3.564 -0.0022  0.0142  0.0403
22241W        W38715  17.243   8.411   0.583  0.2294 -0.0261 -0.0942
22242W        W38716   9.898  13.866  12.870  0.0701  0.1125 -0.3051
22243W        W38717  16.273  13.182  13.541 -0.0309 -0.0515 -0.1939
22244W        W38718  11.443   2.733   1.595 -0.0115 -0.0206  0.0166
22245W        W38719  13.800   0.227  15.256  0.0215 -0.0919  0.0466
22246W        W38720   6.757  17.376  12.779  0.1524  0.0589  0.5804
22247W        W38721  17.482  15.075   1.582  0.0963 -0.0298  0.0504
22248W        W38722   6.383  14.109   0.254 -0.0537 -0.2110  0.1372
22249W        W38723  12.890  12.210   1.205 -0.1469 -0.0526 -0.2920
22250W        W38724   5.603   7.364   2.493 -0.1523 -0.0290 -0.0587
22251W        W38725  17.169  12.406  11.832  0.0257  0.0337 -0.0781
22252W        W38726   9.934   8.608  14.291 -0.0171 -0.0765 -0.0806
22253W        W38727   4.809  16.766   1.733  0.1482  0.0517  0.2741
22254W        W38728   2.361   5.301  15.740 -0.0550 -0.0771  0.1981
22255W        W38729   5.477  16.658   5.486 -0.2755 -0.4045 -0.1037
22256W        W38730   5.984   9.192   0.540  0.0058  0.0617  0.1065
22257W        W38731   0.099   2.936   5.898 -0.1434  0.1220 -0.0053
22258W        W38732  11.049  15.868  14.748 -0.1473  0.1736 -0.0123
22259W        W38733   6.944   9.734   4.404 -0.0640 -0.2724  0.0678
22260W        W38734  10.120   8.792   1.063 -0.0495  0.3435  0.5289
22261W        W38735   1.726   5.215   4.247  0.0766 -0.0586  0.0454
22262W        W38736   9.684   6.718   3.420  0.1681 -0.0511  0.0148
22263W        W38737   5.124   3.728   4.543  0.1631 -0.1518  0.2029
22264W        W38738  13.247   7.155   2.883 -0.2773 -0.2354 -0.1989
22265W        W38739   6.347  16.253   3.167  0.3252  0.0087  0.0616
22266W        W38740   7.574  13.633   4.554  0.1522  0.1366 -0.1957
22267W        W38741  16.329  14.518   1.279 -0.0850  0.1128  0.2105
22268W        W38742  15.732  17.193  13.885  0.2925 -0.0149  0.2447
22269W        W38743  12.247   6.311   4.070  0.1420  0.0722 -0.0363
22270W        W38744   5.473  15.132  13.155 -0.2207  0.2440  0.1561
22271W        W38745   1.287  16.789   2.068 -0.1177 -0.0535  0.1408
22272W        W38746   6.224   4.447  13.324  0.1455 -0.3268 -0.1415
22273W        W38747   8.258  12.384   1.746  0.0125  0.0930 -0.0904
22274W        W38748  17.705   1.850  15.972  0.0836 -0.0277  0.1280
22275W        W38749  12.086  11.730  16.157  0.4069  0.0262 -0.0282
22276W        W38750   8.295  17.772   4.148 -0.2455 -0.2017 -0.0375
22277W        W38751   7.239   0.211  15.683  0.1891  0.2337 -0.0989
22278W        W38752   4.857  14.204  11.509 -0.3082 -0.1511  0.0349
22279W        W38753  14.124   7.051  12.689  0.0378 -0.0427 -0.2524
22280W        W38754   6.512   8.720   4.096  0.0200  0.2755  0.1915
22281W        W38755   7.245   6.439  11.790 -0.5468  0.0239 -0.1208
22282W        W38756   5.426  11.244  13.774 -0.1304 -0.2067 -0.1397
22283W        W38757   8.215  11.422   2.862 -0.0188 -0.1124  0.0008
22284W        W38758  12.008   7.104  11.657 -0.3517  0.2654  0.1151
22285W        W38759   8.069  13.201   0.488 -0.1293 -0.4331 -0.0567
22286W        W38760   0.584   1.320   0.760  0.1520 -0.0761 -0.2354
22287W        W38761  10.607   5.990   4.650 -0.3060 -0.1287  0.3771
22288W        W38762  13.664  15.876  15.456  0.1322 -0.0013 -0.2805
22289W        W38763  14.727   7.723  12.510 -0.1046 -0.3588  0.1563
22290W        W38764   2.255  12.714   1.964  0.0244  0.4299  0.0748
22291W        W38765   4.319  16.587   0.435  0.0645 -0.1116 -0.0102
22292W        W38766   1.024  16.126  12.181 -0.3942  0.1684 -0.0518
22293W        W38767   2.196   6.918  12.180 -0.1351 -0.0957  0.1817
22294W        W38768  12.946   9.716   4.948 -0.1770 -0.2056 -0.1437
22295W        W38769  16.811   9.624   5.170  0.0018  0.0520 -0.0770
22296W        W38770  15.022   0.473   0.793 -0.0250 -0.1776 -0.1146
22297W        W38771   8.492   1.126   1.944  0.0371 -0.3963  0.1196
22298W        W38772  15.837  12.651  12.371 -0.0229  0.0702  0.0613
22299W        W38773   7.498  15.173   2.621 -0.0004 -0.1379  0.1925
22300W        W38774   1.672  14.539   3.532 -0.0302  0.0086 -0.1514
22301W        W38775   7.030  16.240  11.427  0.1997 -0.3378 -0.0714
22302W        W38776   6.915   4.433   1.406  0.2992  0.2102  0.1838
22303W        W38777   6.080  14.528  13.635 -0.2497 -0.1046  0.1569
22304W        W38778   2.659   4.444  13.389 -0.0925 -0.2126 -0.0044
22305W        W38779   4.430  12.946   3.166  0.1846 -0.0381  0.0074
22306W        W38780   5.796  16.870   0.277  0.1337  0.1422 -0.0020
22307W        W38781   7.763   5.663   2.161 -0.0473  0.1377 -0.1991
22308W        W38782  17.640   0.766   2.466 -0.2067 -0.1121  0.0865
22309W        W38783  14.294   7.781   5.138  0.1756 -0.1056  0.1483
22310W        W38784  16.581   0.599   2.059 -0.1279 -0.0213  0.2964
22311W        W38785   5.776  10.366   5.648  0.1354 -0.1857 -0.4223
22312W        W38786  17.281   9.671  12.447  0.1694  0.1889 -0.1781
22313W        W38787   8.116  14.683  12.945 -0.2681  0.2060  0.0680
22314W        W38788  16.819  16.614   2.409  0.0818  0.3331 -0.2877
22315W        W38789  16.092   9.640   1.728  0.3864 -0.0062  0.1834
22316W        W38790  12.483   8.391   5.750 -0.2001 -0.1597  0.0344
22317W        W38791  15.081  13.384   5.116  0.1711 -0.0804 -0.2056
22318W        W38792   2.353   6.007   5.441 -0.2691 -0.0829 -0.0191
22319W        W38793  14.323   8.891  14.187  0.1040  0.2582  0.0169
22320W        W38794  12.584   8.686  12.737 -0.0508  0.0318 -0.3375
22321W        W38795   7.815   9.924   4.580 -0.0088 -0.3418 -0.0649
22322W        W38796  15.931   6.722   4.928 -0.0957  0.1019  0.1785
22323W        W38797  15.603  17.390   0.575 -0.2146  0.2048  0.0678
22324W        W38798  15.561  12.650  11.992  0.1437  0.2179  0.1844
22325W        W38799   9.552  13.337  15.495  0.0614 -0.1152 -0.2460
22326W        W38800  14.329  11.155   1.320 -0.2302  0.3210  0.2536
22327W        W38801   7.619  16.653   1.907 -0.0560 -0.1357  0.0390
22328W        W38802  13.152   7.737  15.701  0.1683  0.0644  0.0102
22329W        W38803  10.193  13.923   6.071 -0.0758 -0.3712  0.1472
22330W        W38804  15.540   7.853   5.097  0.0391 -0.0176 -0.0942
22331W        W38805   1.068  17.811   2.792  0.0104 -0.1143  0.0985
22332W        W38806   5.177  15.800  11.637  0.0003 -0.1113  0.1792
22333W        W38807   3.821  17.551   2.531 -0.1249 -0.1430  0.0882
22334W        W38808   2.694  16.745   1.542 -0.0775 -0.1971 -0.0999
22335W        W38809  14.171   1.088  14.321  0.0163 -0.1384  0.0793
22336W        W38810  17.654   2.799  15.664  0.2850 -0.1250 -0.1283
22337W        W38811  15.124   1.395   4.309  0.3728  0.1880  0.0010
22338W        W38812   0.564  17.994   3.885 -0.2741  0.3076  0.0621
22339W        W38813  15.143   9.697   1.878 -0.3582 -0.0109 -0.0628
22340W        W38814  12.971   2.537  14.554  0.1325 -0.2358 -0.0226
22341W        W38815   7.729  12.603   2.084 -0.3948 -0.1885  0.1188
22342W        W38816   7.496   7.736  13.991 -0.0645  0.0820  0.1952
22343W        W38817  13.915   0.944   2.190  0.2697 -0.1161 -0.0544
22344W        W38818  12.628  13.159   4.039 -0.1043 -0.0010 -0.0839
22345W        W38819   3.764   7.261   2.746 -0.0296  0.1741  0.2019
22346W        W38820  17.288  17.137   2.946  0.0501  0.2547 -0.0312
22347W        W38821   1.781   5.797   5.555 -0.1476  0.0633 -0.1007
22348W        W38822  10.075  16.443   3.619 -0.0754  0.0636 -0.1029
22349W        W38823  13.891  13.674  13.404  0.3327 -0.1984 -0.0283
22350W        W38824   9.968   8.525  14.792  0.4797 -0.0113 -0.3643
22351W        W38825   0.053   1.226   0.682 -0.1401 -0.1148  0.1107
22352W        W38826   3.125   4.112  16.110  0.0074 -0.0301 -0.2971
22353W        W38827  14.438  13.319   1.668 -0.1563 -0.1829 -0.1020
22354W        W38828  15.586   4.754   2.348  0.0940 -0.1098  0.1947
22355W        W38829  12.139   6.940  16.490  0.0005 -0.1647  0.3042
22356W        W38830  11.540  14.271  13.699  0.0356  0.3239  0.0626
22357W        W38831  10.477  11.460   5.212 -0.4462 -0.0425  0.1721
22358W        W38832   2.695   3.811   5.521 -0.2341 -0.1154  0.2824
22359W        W38833   5.627  16.199  14.491  0.0140 -0.3918  0.0409
22360W        W38834   6.002   0.981  13.529  0.1364  0.0014 -0.1295
22361W        W38835   7.602   3.505  12.538  0.0732 -0.0351  0.1043
22362W        W38836  17.296  10.666   5.086  0.2729 -0.0308 -0.2381
22363W        W38837  10.437   0.684   4.444 -0.0329 -0.2403  0.0574
22364W        W38838  10.476   3.591   2.067 -0.1980  0.2662  0.1301
22365W        W38839   9.097   2.373   4.944 -0.3483 -0.0887  0.0882
22366W        W38840  15.529   7.738  15.516  0.2227  0.2925  0.3228
22367W        W38841   1.852  10.222   4.623  0.1063 -0.0574  0.0821
22368W        W38842  14.251  15.834   1.307  0.1729  0.0045  0.1455
22369W        W38843   3.425  15.104   0.487 -0.0959 -0.2209 -0.1565
22370W        W38844  13.727  11.906   4.355  0.1293 -0.0601  0.2963
22371W        W38845   6.752   1.783   3.173  0.0980 -0.3984  0.0242
22372W        W38846   2.872   5.740   2.253 -0.2477 -0.2579 -0.0131
22373W        W38847  17.757  14.452  16.747  0.1131  0.1082 -0.1093
22374W        W38848   6.302  10.817   3.686 -0.1975  0.3616  0.0464
22375W        W38849   3.487   7.843   3.337  0.0688 -0.0963  0.0989
22376W        W38850  11.910  10.072   0.178 -0.2459  0.1272 -0.0532
22377W        W38851   7.078  13.684   0.210  0.2470 -0.0001 -0.0419
22378W        W38852  15.854  14.446   3.864 -0.0163 -0.0730 -0.2390
22379W        W38853   8.329   3.241   1.136 -0.2425 -0.2496  0.0745
22380W        W38854   1.155  10.093  15.579 -0.3439  0.2897 -0.1385
22381W        W38855   4.263  10.453   3.951  0.1391  0.0760 -0.0520
22382W        W38856   7.110   7.524  16.294  0.0416 -0.1597  0.1916
22383W        W38857  14.456  12.611  12.055  0.2703  0.3044  0.1993
22384W        W38858   4.483   2.906  13.060  0.1893 -0.0109  0.0211
22385W        W38859  12.960  15.331   0.889  0.1386 -0.2854 -0.2294
22386W        W38860   8.681   0.557   2.112  0.0432 -0.1173  0.1280
22387W        W38861   5.171  13.276   0.479 -0.1641 -0.0275 -0.4335
22388W        W38862   9.110   0.944   1.168 -0.2367 -0.0795 -0.2149
22389W        W38863  11.545  13.364  15.387 -0.1596 -0.0924 -0.0553
22390W        W38864   6.213   9.970   4.257  0.1472  0.0138  0.0734
22391W        W38865  15.156   4.021   6.190 -0.1051 -0.2216 -0.2826
22392W        W38866   5.445   1.971   0.985  0.0336  0.3991 -0.0171
22393W        W38867   5.590   0.423  14.599 -0.0786  0.2068 -0.0812
22394W        W38868   5.454   7.492   3.336 -0.1836 -0.0612 -0.2123
22395W        W38869  15.887   8.630   0.963  0.0787 -0.1643  0.0139
22396W        W38870   4.607  15.878   1.771 -0.0354  0.1358 -0.2061
22397W        W38871   6.729   3.108  12.733  0.1285  0.0097  0.0289
22398W        W38872   1.078   6.151  15.865  0.1710 -0.3007 -0.1816
22399W        W38873  10.528   7.848  14.645 -0.1510  0.1030  0.0535
22400W        W38874   1.348   0.047  14.657  0.0581 -0.0811  0.2718
22401W        W38875  17.361   0.007  12.482  0.2580 -0.0336  0.0339
22402W        W38876   4.675  15.918   2.302 -0.1956 -0.1172  0.2919
22403W        W38877  11.279   2.216  11.782 -0.2659  0.1268 -0.2032
22404W        W38878  12.726   4.613   5.608  0.0563  0.1666  0.1890
22405W        W38879   8.907  12.231  11.202  0.0264 -0.1536  0.1991
22406W        W38880  14.805   4.746   4.346 -0.1761 -0.1253 -0.0389
22407W        W38881  17.258  10.719   1.662 -0.1701 -0.0050 -0.2609
22408W        W38882   5.242   0.434  11.716  0.0455 -0.0199 -0.2225
22409W        W38883  16.304  13.504  15.918  0.1273  0.0561 -0.2066
22410W        W38884  11.210  16.957  15.119  0.0115 -0.1381  0.3401
22411W        W38885   4.927   9.923  15.072  0.3092  0.2288 -0.0747
22412W        W38886   2.484   3.128  12.274  0.0120 -0.1440  0.1050
22413W        W38887  15.283   5.619  13.000 -0.0842  0.5850  0.1632
22414W        W38888   3.154   1.226  13.298 -0.1760  0.0448  0.2945
22415W        W38889  16.897  14.307  14.508 -0.1651  0.2807  0.2745
22416W        W38890  17.880  12.801   2.617  0.0034  0.0508 -0.1323
22417W        W38891   1.541  11.504   0.996  0.0331  0.2087  0.1412
22418W        W38892   6.023   6.390  14.038 -0.2391  0.0638  0.1773
22419W        W38893   6.138  11.408   4.804  0.1198  0.1079  0.1364
22420W        W38894   7.197   7.158   3.305  0.0618  0.0189 -0.1449
22421W        W38895  11.694   4.004  16.219 -0.1800 -0.2032 -0.0411
22422W        W38896   5.301   5.044  13.005 -0.0035 -0.1947 -0.1422
22423W        W38897  13.677  15.883   2.572  0.0020  0.3074 -0.0185
22424W        W38898   5.709  10.076   0.009  0.1290  0.2321 -0.2660
22425W        W38899   8.719   0.326  11.176  0.1322  0.0490  0.0792
22426W        W38900  15.280  10.718  16.004  0.1762 -0.1310 -0.1306
22427W        W38901  14.739   1.612   3.547 -0.2345  0.0500  0.0651
22428W        W38902  10.036   0.291  11.352  0.0155  0.1734 -0.0332
22429W        W38903  17.097   4.528   3.335 -0.0808  0.1736  0.2306
22430W        W38904   9.264   7.295   4.388 -0.1130 -0.0609 -0.2238
22431W        W38905  11.206   5.476  14.731 -0.1810  0.3572  0.1688
22432W        W38906   6.888   6.497   2.946  0.2582  0.0059 -0.2324
22433W        W38907  14.675   8.330  15.062 -0.1636 -0.2123  0.1634
22434W        W38908   3.181   8.436   2.508  0.1778 -0.1480 -0.0180
22435W        W38909  10.032   6.954   4.485  0.1644  0.0574 -0.0939
22436W        W38910   7.455   2.970   2.771 -0.2099  0.0320  0.1871
22437W        W38911   0.451   1.649  14.509 -0.0285 -0.2138 -0.0676
22438W        W38912   6.363  16.301  12.705 -0.0374  0.2718  0.0553
22439W        W38913  13.930  15.339  16.343 -0.0564 -0.0109  0.0218
22440W        W38914   4.295   8.096   2.239 -0.0899  0.2914 -0.2233
22441W        W38915   5.212   0.494  15.873  0.0338  0.0485 -0.1317
22442W        W38916   7.350   8.975   1.368  0.0639 -0.2886 -0.2813
22443W        W38917   7.206   6.594   3.991 -0.0919  0.3166  0.0896
22444W        W38918   1.251   6.800  14.075  0.1914  0.0110  0.1147
22445W        W38919   2.869   7.931  11.836  0.1162  0.0820  0.2655
22446W        W38920   5.889   5.366  14.214  0.0043  0.1337  0.0249
22447W        W38921   7.572   1.550   1.710 -0.0844 -0.1426  0.3070
22448W        W38922   2.203   5.981   3.524 -0.4286 -0.0706  0.0617
22449W        W38923  13.336   3.617  15.378  0.4114  0.1325  0.1996
22450W        W38924  10.295   0.564   5.794 -0.0573 -0.0898 -0.0482
22451W        W38925   3.089  10.345  12.976 -0.2321  0.1085  0.4253
22452W        W38926  14.159  15.861   1.925 -0.2880  0.2428 -0.0563
22453W        W38927   4.035   4.362  15.152 -0.2082  0.0412 -0.2932
22454W        W38928   8.153   6.246   3.777 -0.0177 -0.3954  0.2160
22455W        W38929   9.379   9.186   3.698 -0.0309 -0.0250  0.1742
22456W        W38930  15.870  11.667  11.651  0.2128 -0.2187  0.0650
22457W        W38931   6.414  10.370  12.927 -0.0250  0.3262  0.1357
22458W        W38932  16.085   3.290   1.532  0.2049  0.2145 -0.0447
22459W        W38933  15.133  17.315   4.770  0.2514 -0.1867 -0.0541
22460W        W38934   7.936   0.678  14.530 -0.2018  0.0803 -0.1922
22461W        W38935   1.927  13.802  14.990 -0.0583  0.0645  0.1008
22462W        W38936   4.233   3.707  13.087 -0.0348 -0.0115  0.0474
22463W        W38937  14.065   4.138   5.639 -0.1196 -0.3735  0.4028
22464W        W38938  11.899  11.777  15.041  0.1280 -0.3298  0.3469
22465W        W38939  11.599   1.163  11.332  0.1271 -0.1888 -0.4024
22466W        W38940  16.137  13.728  15.109 -0.4967 -0.1152  0.1205
22467W        W38941   5.653  13.573  12.536  0.1387  0.1014  0.3578
22468W        W38942   7.135   8.482  12.909 -0.0480 -0.0693  0.1066
22469W        W38943   8.425   9.509   4.759 -0.0451 -0.1791 -0.0870
22470W        W38944   4.637  15.688   3.323 -0.0700  0.0335  0.1730
22471W        W38945   4.837   3.299  13.912 -0.1573  0.1706 -0.3045
22472W        W38946  16.118  13.341   1.570  0.3002 -0.0419  0.2240
22473W        W38947   4.070   9.486   0.695  0.1709 -0.3238  0.0423
22474W        W38948  11.427   4.531  12.633  0.0766  0.2978 -0.0726
22475W        W38949   5.980  14.390   0.382  0.1797 -0.1613  0.0260
22476W        W38950  10.606   6.930  13.795 -0.0546  0.1301 -0.1824
22477W        W38951  17.519  15.683   5.423  0.1465 -0.1760  0.1773
22478W        W38952   6.245  16.812   3.139  0.1654  0.0206 -0.4313
22479W        W38953   4.004  17.204   1.734 -0.0119 -0.1446 -0.1529
22480W        W38954   2.692   9.789   0.253  0.3676 -0.2964  0.2485
22481W        W38955   4.880   2.846   6.489  0.3714 -0.0698 -0.2220
22482W        W38956  17.405  14.603   0.659  0.1570 -0.1030  0.0112
22483W        W38957  10.022  11.807   1.347 -0.1189 -0.2073  0.2709
22484W        W38958  15.565  11.521  16.391 -0.1126 -0.3463 -0.4257
22485W        W38959  11.540   5.592  15.696 -0.1347  0.3839 -0.1043
22486W        W38960   4.133  12.454  13.866 -0.0082  0.2016  0.1366
22487W        W38961  17.139   9.234   5.265 -0.3394  0.0182  0.2416
22488W        W38962   2.912   5.509  13.831 -0.1393 -0.1010  0.1739
22489W        W38963   7.302  13.697  13.394 -0.0826  0.1032  0.3022
22490W        W38964  16.252   4.887   5.016 -0.0964 -0.1002  0.0537
22491W        W38965   4.088  12.038  12.045 -0.2135  0.2780  0.1189
22492W        W38966  10.769   1.526  12.903 -0.4386  0.0583 -0.3337
22493W        W38967   1.230   4.800   0.655 -0.2899  0.0413 -0.0058
22494W        W38968   3.015  15.784  13.874 -0.1787 -0.4306  0.1869
22495W        W38969   1.641   6.509  14.892  0.1978 -0.0376 -0.1601
22496W        W38970   7.875   4.987   2.990 -0.1918 -0.0049  0.3068
22497W        W38971  10.726   6.106   0.901 -0.1635 -0.1715 -0.0170
22498W        W38972   4.117  13.157   5.741  0.1073 -0.2330 -0.0159
22499W        W38973   1.296   1.209   0.621 -0.1339  0.0046 -0.0141
22500W        W38974  12.458   4.139   4.695  0.2396 -0.0458 -0.1487
22501W        W38975  12.776   0.859  16.388  0.0918 -0.2647 -0.0944
22502W        W38976   4.519  13.820  13.033 -0.0737  0.3281 -0.2814
22503W        W38977   5.108   4.725   3.056 -0.0856 -0.0096 -0.2476
22504W        W38978   2.931   1.582   1.208  0.0093 -0.1083  0.1834
22505W        W38979  13.678  14.397  14.660 -0.0291  0.2074  0.2606
22506W        W38980  16.804   2.661   0.768  0.1728  0.1815  0.1766
22507W        W38981  17.994   7.287  14.306  0.0198  0.3623 -0.0026
22508W        W38982   2.430   1.180   1.497  0.0608 -0.0598 -0.1038
22509W        W38983   6.107  12.643  12.145 -0.1424  0.1134  0.2073
22510W        W38984   3.569  14.961  15.283  0.3307  0.0194  0.1591
22511W        W38985   6.971  17.212  13.893 -0.0957  0.0283 -0.0561
22512W        W38986  14.005  15.388   1.936  0.1381 -0.2419 -0.2106
22513W        W38987   0.601  13.334   2.799 -0.0076  0.0026  0.2199
22514W        W38988   5.762  14.401   2.430  0.2599  0.1362  0.2262
22515W        W38989   2.351  11.352  16.198 -0.3806 -0.1158 -0.3218
22516W        W38990  13.541   4.040   3.640 -0.0705  0.0531  0.1394
22517W        W38991   4.619   9.999  16.237  0.3160 -0.1737  0.0178
22518W        W38992   1.022  15.472  15.211 -0.2876  0.0510 -0.1790
22519W        W38993   9.889   0.842   5.393  0.2345 -0.2916 -0.2236
22520W        W38994  10.196  15.125  12.218  0.0553 -0.0669  0.2169
22521W        W38995  12.451   1.213   2.250 -0.0745  0.0886  0.0364
22522W        W38996   8.385  11.372  10.984  0.2385 -0.0009 -0.2055
22523W        W38997   0.970  17.843  13.116  0.0436 -0.1367  0.2522
22524W        W38998  12.211   7.826   4.420 -0.1389 -0.0866 -0.2008
22525W        W38999   8.750  10.258  13.225 -0.4243 -0.4699 -0.0942
22526W        W39000   6.209  11.318   0.452  0.2065 -0.1588  0.0605
22527W        W39001  11.613   8.019   6.134 -0.0608  0.0431  0.0729
22528W        W39002   9.627   5.526  15.254  0.0341 -0.3683  0.1900
22529W        W39003   8.905   1.725  13.185  0.0643 -0.0065 -0.0073
22530W        W39004   3.350  12.446  16.049  0.1655 -0.1800  0.1391
22531W        W39005  17.552  15.593   5.941  0.1080 -0.0963 -0.3596
22532W        W39006   8.021   3.905   1.096  0.2158 -0.1323 -0.2662
22533W        W39007  12.081   0.362   1.926 -0.1027  0.1597  0.2405
22534W        W39008   9.779   9.941  16.072 -0.1418  0.2733  0.0146
22535W        W39009   8.224   8.678   3.710  0.1778  0.0671 -0.0975
22536W        W39010  15.699   0.858  15.750  0.0820  0.0055 -0.3316
22537W        W39011   0.233  17.724  12.336 -0.1208  0.2308  0.1899
22538W        W39012   2.217  16.026  13.406  0.1394  0.3466  0.0055
22539W        W39013  17.597   4.082  14.511  0.1620 -0.1100  0.0774
22540W        W39014  16.005   3.358   2.500 -0.0271 -0.0879  0.1232
22541W        W39015  10.909   6.907   4.785  0.1218 -0.1757 -0.0151
22542W        W39016  17.038  15.474   4.868  0.0763 -0.0802 -0.1998
22543W        W39017   3.026   1.550  15.391 -0.1478 -0.0079  0.0423
22544W        W39018  10.324   3.380  11.605 -0.2908  0.0737 -0.0351
22545W        W39019   6.416  15.723   3.082 -0.2622 -0.1800 -0.1176
22546W        W39020  14.732   1.853   0.832  0.1014 -0.1944 -0.2220
22547W        W39021   5.607   4.062  12.440 -0.2174  0.1401  0.0382
22548W        W39022  16.412  10.044   1.679  0.1145 -0.1144 -0.2124
22549W        W39023   0.321   6.683   2.289 -0.0267  0.0948  0.0850
22550W        W39024  17.245   1.151   4.444 -0.0361  0.0378 -0.1202
22551W        W39025   3.472   2.458   1.479  0.0547  0.1290 -0.4760
22552W        W39026  15.061  10.225   4.755  0.3501  0.0763  0.0431
22553W        W39027   5.314  14.774  14.741 -0.0369  0.1294  0.0330
22554W        W39028   9.138  10.110  13.690 -0.0296 -0.1768 -0.1236
22555W        W39029   5.832   4.575   0.374  0.0133  0.1518 -0.1546
22556W        W39030  17.157   3.120   4.667  0.1539 -0.1665 -0.0945
22557W        W39031   9.866  11.745   2.619  0.0637  0.0868  0.0615
22558W        W39032   2.152  13.730  12.799 -0.0021 -0.1043  0.2492
22559W        W39033   7.016   5.670   1.698  0.3405 -0.1528 -0.0902
22560W        W39034   4.289  13.370  11.783  0.1130  0.0439 -0.0620
22561W        W39035  12.148   2.982   3.578 -0.3180 -0.1784 -0.3632
22562W        W39036   6.054  17.431  11.885 -0.0394 -0.0420 -0.0634
22563W        W39037  14.333   0.357  15.886 -0.2853  0.1375  0.2347
22564W        W39038   0.332   8.661  13.318  0.0620 -0.2646 -0.1534
22565W        W39039  15.917   0.861  12.812  0.3284 -0.0621  0.1341
22566W        W39040   1.981   8.793  15.499 -0.1528 -0.0018  0.1998
22567W        W39041  16.421  13.396   2.581 -0.0053 -0.4614 -0.0508
22568W        W39042   0.903   8.686   4.949 -0.1975 -0.0076  0.0888
22569W        W39043   5.500  16.608   3.515 -0.0844  0.1339 -0.2358
22570W        W39044   1.885   2.836  13.876  0.0932 -0.0065  0.1153
22571W        W39045   3.604  15.203   5.167  0.1814  0.1500 -0.1946
22572W        W39046   3.232   8.226   0.443 -0.0481 -0.2797 -0.0192
22573W        W39047  14.458  13.837   0.820 -0.0411 -0.2116  0.3373
22574W        W39048   9.179   9.630  15.313  0.4514  0.2009  0.2421
22575W        W39049  17.825   6.555   2.440 -0.0802  0.1670  0.1574
22576W        W39050  10.396   2.557  16.613  0.1707 -0.0591 -0.0089
22577W        W39051  15.865   9.263  14.401  0.1097 -0.1865 -0.3068
22578W        W39052   6.925  16.674   2.645 -0.2905  0.0103  0.1450
22579W        W39053   9.855  11.340  15.387 -0.3593 -0.0107  0.2972
22580W        W39054  14.223   6.468   4.639  0.0152 -0.0467 -0.2139
22581W        W39055  13.810  16.674   4.943 -0.1608  0.2122 -0.2976
22582W        W39056   9.640   3.592   5.064 -0.1798  0.0322  0.1946
22583W        W39057   1.967  11.470  15.214 -0.0651  0.1624 -0.1767
22584W        W39058  14.041   0.967  13.885  0.1143 -0.1022  0.2271
22585W        W39059  10.505   7.018  16.533  0.0542 -0.1802 -0.1881
22586W        W39060   4.674  17.960   1.462  0.0443 -0.0873  0.3021
22587W        W39061  13.765  16.792   3.041 -0.1516 -0.0784  0.0015
22588W        W39062  14.554  17.947  12.586  0.0755  0.0177  0.0805
22589W        W39063   4.671  16.233  12.228  0.1233  0.2763  0.0257
22590W        W39064  11.441   7.006  16.408  0.2125  0.0799  0.1177
22591W        W39065   2.215  14.300   5.065  0.2879 -0.0905 -0.1265
22592W        W39066   7.292  14.621   5.376  0.0677  0.0924 -0.0060
22593W        W39067   3.050   9.235  13.091  0.1819 -0.1650  0.2493
22594W        W39068   0.302   3.095  15.268  0.0733  0.2097 -0.0813
22595W        W39069   3.331  16.592   3.105  0.1721 -0.4617 -0.0942
22596W        W39070   1.494   3.773   6.387 -0.0069  0.0012  0.0073
22597W        W39071   7.678   3.687   1.908 -0.0614  0.0430 -0.1202
22598W        W39072   9.546   5.254  16.098 -0.0351  0.0872  0.1710
22599W        W39073  15.944   5.961   6.265 -0.0402 -0.1207  0.2196
22600W        W39074   3.786  13.849  12.352  0.1596 -0.0064 -0.2637
22601W        W39075   6.692  11.875  15.406  0.0116  0.2415 -0.1240
22602W        W39076  16.982  11.607  12.536 -0.1942  0.1906  0.3007
22603W        W39077   4.056  12.512   2.581 -0.0918  0.2314  0.0085
22604W        W39078  16.805   6.640  13.591 -0.0710 -0.1309  0.1298
22605W        W39079   0.451   5.763   1.757  0.2862  0.0182 -0.0604
22606W        W39080  16.052  17.124  13.002  0.2847  0.3332  0.1958
22607W        W39081   0.700   6.366   5.134 -0.1128  0.3018  0.1299
22608W        W39082   0.306   5.483   4.056 -0.0542  0.1745 -0.1067
22609W        W39083   0.565   6.505  13.830 -0.2110 -0.0500 -0.0886
22610W        W39084   1.453   1.242  11.150 -0.1748  0.0763 -0.2249
22611W        W39085   9.335   0.357  15.258 -0.1213  0.0152 -0.0110
22612W        W39086   6.638  11.401  12.381  0.3325  0.3500 -0.0072
22613W        W39087   8.182   3.533   0.663 -0.5265  0.5103 -0.0579
22614W        W39088  14.956  17.873  16.511  0.1022  0.0358  0.2937
22615W        W39089   4.448   2.621   1.184  0.0027 -0.0326 -0.0067
22616W        W39090   2.983  12.696   4.802  0.0365 -0.2840 -0.2314
22617W        W39091  16.374   2.904   0.786  0.2107 -0.2799 -0.1281
22618W        W39092   6.213  12.455   1.095  0.0574 -0.0259  0.0936
22619W        W39093   3.259   1.045  15.598  0.1856  0.2718 -0.1248
22620W        W39094   3.773   3.757  12.227 -0.2275  0.0610  0.3644
22621W        W39095  16.489   7.828   3.511  0.1415  0.0276 -0.3247
22622W        W39096   8.987   3.571  10.631  0.0021 -0.1281 -0.1393
22623W        W39097  11.218   8.300   2.197  0.0640  0.1907  0.1428
22624W        W39098  10.430  15.176  15.956  0.0495  0.0861 -0.2595
22625W        W39099   7.772   0.014  15.799  0.0269  0.1697  0.1382
22626W        W39100   2.207  10.341   0.578  0.0203 -0.0938 -0.2144
22627W        W39101  10.171   9.699   4.730  0.1946 -0.1090  0.0373
22628W        W39102   8.791  15.114  14.571 -0.0636 -0.1626 -0.1704
22629W        W39103  10.355   1.922  15.889  0.0849 -0.0652 -0.0470
22630W        W39104  10.972  10.395   0.978 -0.0862  0.0341 -0.2581
22631W        W39105  11.951  15.168  14.188 -0.1016  0.2377  0.0473
22632W        W39106   3.091  10.963  13.966  0.1179  0.2152 -0.0544
22633W        W39107   5.770   2.818   1.378 -0.3291  0.0639 -0.3350
22634W        W39108   9.920  14.624  13.116 -0.2245  0.0973  0.0645
22635W        W39109   9.639  13.222   0.988  0.0651 -0.0299  0.0260
22636W        W39110   9.963  16.613  12.785 -0.5133  0.1107 -0.0464
22637W        W39111   2.555  11.941   4.843  0.1730 -0.0458  0.0303
22638W        W39112  14.285   8.937  12.654  0.0921  0.1016  0.0479
22639W        W39113  14.280   0.306  15.386 -0.0379  0.1320 -0.3375
22640W        W39114   7.453   8.400   2.971  0.0376 -0.0747  0.0224
22641W        W39115  10.349  12.070   2.233 -0.0495  0.0084 -0.3045
22642W        W39116   5.805   0.362  11.697  0.2663  0.2093  0.2578
22643W        W39117   8.546   8.642   0.917  0.3337 -0.3039  0.0745
22644W        W39118   5.017   4.705   3.560  0.1227  0.1487 -0.0400
22645W        W39119  16.874   4.309  16.144 -0.2292 -0.0716  0.0561
22646W        W39120   8.265   6.395  12.698  0.1954  0.1659  0.0180
22647W        W39121  10.867  17.531   2.600  0.1340 -0.1296  0.3583
22648W        W39122   4.155   9.216   2.521 -0.0970  0.2212  0.0195
22649W        W39123   8.447  17.770   0.016 -0.1262  0.3863 -0.1461
22650W        W39124   3.881   1.227   6.275  0.2498 -0.2284 -0.4089
22651W        W39125   9.421   6.358   2.410 -0.0494  0.0855  0.2353
22652W        W39126   8.771   8.230   1.119 -0.1041  0.1404 -0.1693
22653W        W39127   0.519  14.519  16.368 -0.0847 -0.1461 -0.2095
22654W        W39128   9.624  11.639   1.787 -0.1775  0.0807  0.1891
22655W        W39129  16.713  10.381  14.330  0.1145 -0.3193 -0.0770
22656W        W39130  10.963   3.139  15.734 -0.0707 -0.0788  0.0137
22657W        W39131   7.866   4.598   1.694 -0.2625 -0.0948 -0.1256
22658W        W39132  14.494   8.697   2.932  0.2079  0.0120 -0.1782
22659W        W39133   0.611  12.604  14.616 -0.1032  0.1396 -0.3981
22660W        W39134   5.653  16.125  12.437 -0.2014  0.0260 -0.0412
22661W        W39135  11.223   1.538   0.829 -0.1267 -0.0017 -0.0256
22662W        W39136   9.718   4.444   0.613  0.1241 -0.2078 -0.1422
22663W        W39137   9.173   0.173  11.304  0.1064  0.1058  0.0101
22664W        W39138   4.792   3.507  14.374  0.0822 -0.0217 -0.1917
22665W        W39139   6.861  17.167   1.028 -0.3569 -0.3356 -0.4191
22666W        W39140   9.505  16.409  15.928 -0.1140 -0.1918  0.0693
22667W        W39141  12.394   5.246   3.190 -0.0249 -0.2772 -0.4706
22668W        W39142   7.880   3.407   1.030 -0.1249 -0.0601 -0.2871
22669W        W39143   8.856   0.051   1.190 -0.0731 -0.1631  0.0482
22670W        W39144   6.768  15.369   0.925 -0.5163 -0.0129  0.2744
22671W        W39145   0.293   6.887  12.879  0.2415  0.1438 -0.0203
22672W        W39146   2.768   9.237  15.141 -0.0849  0.0523  0.1556
22673W        W39147  13.656  14.147   1.007 -0.0822 -0.3220 -0.0329
22674W        W39148  12.549  13.250   5.177  0.1149 -0.0561 -0.0719
22675W        W39149  17.253  17.619  16.238  0.0175  0.0829  0.0992
22676W        W39150   6.364  16.843  14.962  0.1726 -0.0827  0.1010
22677W        W39151  13.198  13.036  14.060  0.3512  0.1267  0.1654
22678W        W39152   1.662  10.943   0.887 -0.2041 -0.0631  0.0026
22679W        W39153  17.576   9.250   3.759  0.0129  0.1216  0.3531
22680W        W39154   1.327  12.247  16.464 -0.0431 -0.1166 -0.0903
22681W        W39155   2.892   8.317  13.117  0.2554  0.1152 -0.2131
22682W        W39156  13.866  12.463  13.837  0.1263  0.1102 -0.1250
22683W        W39157  16.874  13.042  13.532 -0.1982 -0.0037 -0.0859
22684W        W39158   9.465  12.218   0.880 -0.1019 -0.2148  0.3811
22685W        W39159  10.589   9.775   2.524 -0.3114 -0.0108 -0.1957
22686W        W39160   7.919   0.162  11.065 -0.0802  0.2420 -0.0142
22687W        W39161  13.943  14.871   1.825  0.0006  0.0726  0.1959
22688W        W39162   5.505   5.191  15.551  0.0829 -0.2237  0.1824
22689W        W39163   0.277   2.864   1.465  0.0583  0.0103 -0.1561
22690W        W39164  12.952  14.049  14.553 -0.2121  0.0743  0.2415
22691W        W39165   5.926   3.699  13.809 -0.1193 -0.2430  0.0781
22692W        W39166   3.668  12.294  14.730  0.1625  0.2612 -0.3858
22693W        W39167  12.369   4.969   0.256  0.0800  0.1669 -0.0885
22694W        W39168   8.233  10.885   1.030  0.2573  0.0834  0.2331
22695W        W39169  14.421  11.647  12.793 -0.2027 -0.1474 -0.1554
22696W        W39170   6.253  15.567   2.143  0.3014  0.0891  0.0675
22697W        W39171  15.764   3.990  10.559  0.1905 -0.0116  0.1462
22698W        W39172   5.176   0.380   2.273  0.2374  0.1635  0.0282
22699W        W39173  14.342   7.257   0.137  0.3319  0.0157  0.0861
22700W        W39174   7.692   7.059  16.019  0.1943  0.2889  0.1814
22701W        W39175   2.393  14.431  16.624  0.3478 -0.0479  0.2840
22702W        W39176  15.206   9.834   0.607  0.0582 -0.0087 -0.0400
22703W        W39177   1.213  15.078  12.073 -0.3027 -0.0851  0.0834
22704W        W39178   8.314  17.614  11.717  0.2376  0.0324 -0.1764
22705W        W39179   4.425  11.435  13.619 -0.0934  0.0404 -0.0711
22706W        W39180   1.060   1.776   2.251  0.3327 -0.0043 -0.1976
22707W        W39181  17.299   7.736  15.637  0.2733  0.0861  0.2005
22708W        W39182  17.648   2.125  16.363 -0.1176  0.1121  0.3550
22709W        W39183  13.979  17.022  12.673 -0.0194 -0.2770  0.2451
22710W        W39184  11.134   9.431  15.360  0.1954 -0.0338  0.0719
22711W        W39185   8.401   4.172   0.913 -0.2998  0.0525  0.1836
22712W        W39186   9.865  14.334  15.733 -0.1835  0.0145  0.3377
22713W        W39187  15.189   4.176  11.756  0.0603  0.2360 -0.2163
22714W        W39188   2.737  12.040  12.837 -0.1312 -0.0357  0.1074
22715W        W39189  12.555   5.935  15.564  0.4165 -0.0485 -0.1156
22716W        W39190   8.561   6.347  16.555 -0.2055 -0.1073  0.2462
22717W        W39191  14.281   3.575  15.816  0.0865 -0.0550 -0.0469
22718W        W39192  16.520  13.294   3.172  0.1290 -0.0121  0.3462
22719W        W39193  13.018   9.160   1.595  0.0229 -0.0472 -0.0809
22720W        W39194   5.624  12.097  14.868 -0.0501  0.1155  0.0672
22721W        W39195   3.020  11.287   4.656 -0.0497 -0.1900 -0.2920
22722W        W39196   9.729  14.689  13.932 -0.5920  0.3275  0.1311
22723W        W39197   8.856   1.003  13.765 -0.1035 -0.1280 -0.0527
22724W        W39198   3.627  16.487  10.851  0.2009  0.1318 -0.0541
22725W        W39199   3.330  14.827   1.031 -0.3682  0.0836  0.3325
22726W        W39200  16.806   3.356  15.541  0.3515  0.1384 -0.0170
22727W        W39201   5.262   5.326  16.368 -0.2007  0.2771  0.3527
22728W        W39202   9.585   0.951  16.229  0.1134  0.1725 -0.3523
22729W        W39203  16.430   8.455  13.880 -0.2280 -0.2849  0.0857
22730W        W39204  11.901   0.901  11.040  0.1718 -0.0828  0.0299
22731W        W39205  15.151  16.839   1.702  0.0053  0.0043  0.2673
22732W        W39206   1.332  11.069   3.917  0.2454 -0.0750 -0.0357
22733W        W39207  16.732   6.294   3.437 -0.1504  0.1389  0.0441
22734W        W39208   3.760   1.734   6.164  0.1051  0.0823  0.1019
22735W        W39209   0.573   7.322   4.463  0.1470  0.1701  0.1516
22736W        W39210  13.101  12.115  14.530 -0.0924  0.1284 -0.0848
22737W        W39211   6.456  12.099   0.709 -0.1717 -0.0401 -0.1039
22738W        W39212   2.467  12.676  16.632 -0.0118  0.0922 -0.2395
22739W        W39213  17.536  11.780   0.310 -0.0291  0.3635  0.0551
22740W        W39214  12.537  10.084   2.291  0.0537 -0.2656  0.1375
22741W        W39215   0.062   8.087   2.594 -0.0355 -0.1166  0.0794
22742W        W39216  12.214  16.454   0.747 -0.1212 -0.0757 -0.2933
22743W        W39217   2.366  14.212  15.773  0.3570  0.0801  0.0649
22744W        W39218   5.005   1.812  12.245 -0.0822  0.0468 -0.2951
22745W        W39219  17.815  14.394  15.623  0.0496  0.0968 -0.1786
22746W        W39220   7.269  10.415  15.417 -0.1628  0.2076  0.3515
22747W        W39221   4.290   5.453   5.151 -0.3238  0.0239  0.0909
22748W        W39222   5.233  17.324  14.698 -0.0045  0.2299  0.0556
22749W        W39223   1.883   7.217   1.077 -0.0276  0.1681  0.0003
22750W        W39224  16.290   5.240  16.615  0.0862 -0.0672 -0.3978
22751W        W39225   1.807  10.081   0.927 -0.3089  0.0163  0.0882
22752W        W39226  10.811   3.211   0.726  0.3245 -0.0957  0.0665
22753W        W39227   5.776   2.257  14.332  0.1280 -0.3533  0.2225
22754W        W39228  11.517   8.420   4.521  0.3727  0.1457 -0.0632
22755W        W39229   7.079  14.299  16.393  0.0654  0.0998 -0.5049
22756W        W39230   9.873   6.930  15.407 -0.2795 -0.1733  0.0557
22757W        W39231   3.583   7.839   0.630  0.1265 -0.1825 -0.2600
22758W        W39232  10.267  11.498  14.654 -0.3501  0.0128  0.0510
22759W        W39233  17.720  13.575  12.388  0.1284  0.1887  0.2758
22760W        W39234  16.501  10.533   3.037  0.2027  0.0385  0.1488
22761W        W39235   1.949   5.619   3.204 -0.3214 -0.0891  0.1939
22762W        W39236  14.047  11.257  13.959  0.2679  0.2167  0.0894
22763W        W39237   2.411  13.317   4.675  0.0637 -0.0342  0.2282
22764W        W39238  14.080  12.011  13.798 -0.2803  0.2435  0.3371
22765W        W39239   1.210  10.050   0.064 -0.0220  0.0459 -0.3038
22766W        W39240  13.589   0.748  14.843  0.0774 -0.0547 -0.1613
22767W        W39241   4.921  14.230   3.071 -0.0755 -0.1485  0.1118
22768W        W39242  13.402  16.302   5.982 -0.1259  0.1331  0.0474
22769W        W39243   4.051  14.808  15.141 -0.2754  0.1357 -0.0920
22770W        W39244   7.757  15.941  12.501  0.1198  0.1365 -0.2760
22771W        W39245   6.882   0.157   3.228 -0.1901 -0.1783  0.1691
22772W        W39246   1.752  10.165  14.888 -0.1845  0.0275 -0.3006
22773W        W39247   1.953   6.170   0.354  0.1168 -0.1119  0.0966
22774W        W39248   0.589  15.073   4.140  0.5192 -0.0303  0.2655
22775W        W39249   3.546   8.849   4.260 -0.0001  0.0616 -0.1602
22776W        W39250  15.819   1.214  15.394 -0.1889 -0.0688  0.3416
22777W        W39251   7.099   0.299  12.224  0.1662 -0.1325 -0.1495
22778W        W39252  13.863  14.508  11.675  0.0496 -0.1384 -0.3311
22779W        W39253   1.236  16.356  12.729 -0.0518 -0.1301  0.1673
22780W        W39254   9.084   5.281  11.962  0.1305  0.2691 -0.0688
22781W        W39255   2.746   3.704  16.158 -0.0056  0.0127 -0.0275
22782W        W39256   2.441   5.548   0.627 -0.0019 -0.2309 -0.3327
22783W        W39257  16.496   7.985  14.782 -0.1124 -0.2308 -0.0200
22784W        W39258   1.875   2.104   4.669 -0.0360  0.0830  0.3746
22785W        W39259  17.045   5.945  15.017 -0.0063 -0.3045 -0.3646
22786W        W39260   4.448   4.209   4.647 -0.3131  0.0705 -0.1859
22787W        W39261   2.015  16.374   1.391  0.4993  0.1298  0.0083
22788W        W39262  11.760   2.497   4.428  0.0062  0.4190 -0.2083
22789W        W39263   1.347  15.775   1.870 -0.3730 -0.2682  0.0456
22790W        W39264   4.821   7.270   5.283 -0.0581 -0.0380  0.2621
22791W        W39265  17.477   9.204  13.448  0.1584 -0.0009 -0.1627
22792W        W39266  10.925   2.231   2.643 -0.1554  0.1518 -0.1304
22793W        W39267   9.611  12.808  11.356  0.1526  0.2464  0.0332
22794W        W39268  17.767   4.523   5.836  0.1024  0.0665  0.0121
22795W        W39269  12.597  13.926   2.443 -0.0770  0.1382  0.2273
22796W        W39270   8.822   8.813  12.306  0.3510 -0.0736 -0.1479
22797W        W39271  12.451  14.957  15.271 -0.1671 -0.0071  0.3344
22798W        W39272  16.186  15.284  14.385  0.2299  0.0379  0.1695
22799W        W39273   2.609   3.775  15.279  0.0961  0.0388 -0.1128
22800W        W39274   1.762   8.479  15.172  0.0144 -0.4986 -0.1846
22801W        W39275  12.034  13.931  14.896  0.2550  0.0804 -0.3569
22802W        W39276  17.296   0.323  16.085 -0.1229 -0.0193  0.4071
22803W        W39277   9.541  10.576   2.661  0.2362 -0.0265  0.2323
22804W        W39278   8.501  11.394   0.278 -0.0084 -0.2335  0.0552
22805W        W39279  17.393   0.274  12.063 -0.2355  0.1691 -0.0393
22806W        W39280   5.853  11.042   4.586 -0.0956  0.1446 -0.0292
22807W        W39281   4.921   1.233  12.641  0.0434 -0.3020 -0.0883
22808W        W39282   5.497   4.063   3.561 -0.0883 -0.0138 -0.1584
22809W        W39283   3.620  17.218   3.618 -0.0991 -0.0111 -0.0282
22810W        W39284   7.368  17.233   1.148 -0.1782  0.0611 -0.1041
22811W        W39285  13.399  13.015  16.594  0.3497 -0.1851  0.0059
22812W        W39286  17.163  10.700  14.044  0.2186  0.0875  0.1128
22813W        W39287  16.923  13.041   4.783  0.1629 -0.1748  0.1211
22814W        W39288   0.685   2.325   2.256 -0.2775  0.2756  0.2654
22815W        W39289   1.122   5.672  12.402  0.0070 -0.1037  0.0865
22816W        W39290  11.174  15.995   3.395 -0.1812 -0.1677  0.1386
22817W        W39291  16.906  10.463  12.535 -0.0800  0.1725 -0.0079
22818W        W39292   0.815  10.778  12.781 -0.1231 -0.0700  0.1020
22819W        W39293   2.126  11.602  11.770  0.3332 -0.1649 -0.0942
22820W        W39294   6.736   2.235   2.567 -0.0163  0.1230  0.0763
22821W        W39295  15.625  16.451  15.622  0.2591 -0.4585  0.1385
22822W        W39296   5.993   1.498  15.834 -0.1064 -0.0094 -0.0777
22823W        W39297  11.073  11.824  15.267 -0.2030 -0.0416 -0.0595
22824W        W39298  16.166   2.395   1.552 -0.0766  0.0188  0.0173
22825W        W39299   7.416   5.578   3.824 -0.0136 -0.3493 -0.5216
22826W        W39300   6.884  10.797  16.132 -0.4052 -0.3954 -0.1113
22827W        W39301  17.383  17.201  13.004  0.3971 -0.5051  0.1357
22828W        W39302   4.184  12.832  15.982 -0.1982  0.3426  0.1670
22829W        W39303  10.913   0.663   0.709  0.1122 -0.1135  0.1623
22830W        W39304   4.789  13.311   2.692 -0.0148 -0.1472  0.0929
22831W        W39305  16.311   9.281  12.839  0.0599  0.1805 -0.0327
22832W        W39306   1.899  10.938  13.536 -0.2499  0.1845  0.2463
22833W        W39307   8.134   0.807  15.657 -0.1435 -0.1678  0.1044
22834W        W39308   1.382   5.863   4.823 -0.0100 -0.2742 -0.2336
22835W        W39309  11.506  10.605   5.844 -0.1741  0.1147  0.1471
22836W        W39310   1.674  11.763  15.780  0.2184 -0.5232 -0.1077
22837W        W39311  16.975   3.140  15.111  0.1258 -0.2377 -0.1124
22838W        W39312   4.408  13.812   5.359 -0.0428 -0.5642  0.2550
22839W        W39313   3.451   5.434   5.621 -0.0882 -0.1281 -0.1063
22840W        W39314  12.855   7.772   1.753  0.2324 -0.0783 -0.1278
22841W        W39315   8.528  13.223   2.829  0.2001 -0.1293 -0.1638
22842W        W39316   7.979  17.178  14.888 -0.0303 -0.1308  0.2829
22843W        W39317  15.639  12.954   1.520  0.1183  0.0480 -0.1124
22844W        W39318  16.365   1.403  12.308  0.0325 -0.1982  0.1942
22845W        W39319   6.310  13.756  14.324 -0.0519 -0.0605  0.2825
22846W        W39320   1.469   2.844   3.790 -0.0917  0.0691 -0.0261
22847W        W39321  11.930  17.587   4.060 -0.0169 -0.1212 -0.1540
22848W        W39322  18.002  11.826  12.835 -0.1329 -0.0287 -0.1057
22849W        W39323  17.631  17.041  15.351 -0.0572  0.2123 -0.3596
22850W        W39324   4.954   2.823  15.747  0.0829 -0.1623 -0.2887
22851W        W39325   8.397  17.744   4.661  0.2883  0.1735 -0.2885
22852W        W39326  17.694  16.646   4.801 -0.4594  0.3607  0.3210
22853W        W39327   1.074   1.900  13.238 -0.0921  0.0291 -0.1804
22854W        W39328   4.953  15.562   4.366  0.0521  0.2431  0.1752
22855W        W39329  10.487   0.413  14.313 -0.1925  0.1724  0.0663
22856W        W39330  17.841   4.547   0.861 -0.0601  0.0223  0.2015
22857W        W39331   1.594  16.184  13.107 -0.1518 -0.1114 -0.2439
22858W        W39332  14.616   0.077   1.563  0.1937 -0.0457 -0.0867
22859W        W39333  13.350   5.895  16.193 -0.2987  0.0615 -0.2083
22860W        W39334  12.403  11.317  12.002  0.0473  0.1144  0.2917
22861W        W39335  12.804   8.677   4.935 -0.1122  0.3618  0.2058
22862W        W39336  16.126   6.610  15.023 -0.5112  0.0163  0.2068
22863W        W39337  10.756  11.230  14.565  0.0533 -0.1549  0.5218
22864W        W39338  14.049   4.331   3.654  0.1287  0.0967  0.0933
22865W        W39339   0.572  11.921   3.782  0.1311  0.0421  0.2034
22866W        W39340  10.330  11.314   1.741 -0.2519  0.2619  0.0389
22867W        W39341   4.914   9.828  13.784 -0.0812  0.0194  0.1760
22868W        W39342   4.657  10.599   4.514 -0.1374 -0.5146  0.0716
22869W        W39343   5.615  12.726   4.007 -0.1913 -0.0139 -0.0963
22870W        W39344  17.941  17.223   0.773  0.2781 -0.0892 -0.2220
22871W        W39345  14.471   1.617  15.100  0.0777  0.0821 -0.1320
22872W        W39346  15.571  13.261   3.422 -0.1470 -0.1437 -0.2373
22873W        W39347   8.314   2.874  12.555 -0.1447  0.0274  0.1706
22874W        W39348  13.311  12.329  12.836 -0.2072 -0.0359  0.1781
22875W        W39349   6.694   5.860  16.325 -0.2094  0.0437  0.1347
22876W        W39350   8.564  14.698   3.822 -0.4567 -0.1302  0.1088
22877W        W39351   4.681  15.245  11.411 -0.0313 -0.1079  0.0365
22878W        W39352   8.496  15.465   0.948  0.2337  0.0981  0.2639
22879W        W39353   9.064   6.704   1.442 -0.3732  0.0651  0.1326
22880W        W39354   2.865   1.756  16.144  0.1676  0.0972  0.1654
22881W        W39355   4.497   3.781  14.043  0.0445 -0.0344 -0.2936
22882W        W39356   3.205   9.968   3.193  0.2226  0.0319 -0.1701
22883W        W39357  17.098  12.066  12.771  0.1959 -0.0548  0.2123
22884W        W39358  13.315  11.827  13.380  0.3010  0.2948 -0.0296
22885W        W39359   5.000   2.581  11.640  0.0138 -0.0500  0.1634
22886W        W39360   3.327  12.417  14.223 -0.1349  0.3773 -0.1762
22887W        W39361   0.759   3.742   3.562  0.1451 -0.3198  0.0054
22888W        W39362   6.715  16.297   1.362  0.1289  0.0775 -0.2573
22889W        W39363   1.570  11.269  14.792 -0.1833  0.0522 -0.1960
22890W        W39364   5.231  11.105  14.205  0.2373  0.2249 -0.2677
22891W        W39365   5.406   7.752  13.655  0.1661 -0.3395 -0.1138
22892W        W39366   2.382  13.434   5.698  0.0563 -0.1608  0.0152
22893W        W39367   4.432  13.068   4.873 -0.1032 -0.3204  0.0129
22894W        W39368   4.186  13.015  11.038  0.1022 -0.2145  0.0117
22895W        W39369   9.745   5.572  13.328 -0.1361 -0.0106 -0.0356
22896W        W39370   4.348  13.594   4.912 -0.2164  0.0296 -0.2689
22897W        W39371  17.872  14.402  11.329 -0.1780 -0.0930  0.5655
22898W        W39372  17.644   0.163  15.684  0.1907 -0.1632  0.2461
22899W        W39373   7.666   3.165   3.750 -0.2199 -0.1528 -0.1002
22900W        W39374  15.995  12.942  16.287 -0.1684  0.1706 -0.2219
22901W        W39375  13.904   9.221  15.016  0.0949 -0.0866  0.3984
22902W        W39376   9.544  11.906  12.066 -0.4920  0.4396  0.0045
22903W        W39377   0.424   7.840   0.127 -0.0133 -0.1649  0.0437
22904W        W39378   5.227   8.092   4.635 -0.1009 -0.3024 -0.2232
22905W        W39379  14.739  12.920  15.363 -0.0916  0.2536  0.1187
22906W        W39380   6.991   2.191  13.001  0.1051  0.0075  0.2876
22907W        W39381  15.803   6.554   0.232 -0.1792 -0.0715 -0.1518
22908W        W39382  16.131  14.629   4.459  0.1751  0.0129  0.1106
22909W        W39383   2.305   4.816  13.066  0.0693  0.0631  0.0535
22910W        W39384   1.775  12.030  16.688  0.3262 -0.0766 -0.1770
22911W        W39385   0.321  16.968   0.458 -0.0543 -0.1085  0.0653
22912W        W39386   5.446  13.693   5.477  0.0807 -0.0004  0.3387
22913W        W39387   0.934  11.951   4.205  0.0812 -0.3477  0.1259
22914W        W39388   8.000  13.670  16.208 -0.2246  0.1375 -0.0317
22915W        W39389   0.171   2.396  14.857 -0.0066 -0.2583  0.0226
22916W        W39390  13.788  13.587   2.216  0.3579 -0.1571 -0.1226
22917W        W39391  16.955  11.596   0.319  0.2160 -0.1087 -0.0022
22918W        W39392   8.085   5.891  13.839  0.0946  0.1253 -0.0416
22919W        W39393  14.490   8.584   1.025 -0.0130  0.2817 -0.2018
22920W        W39394  17.914   2.897  13.342 -0.0154 -0.2267 -0.2005
22921W        W39395   7.456  10.197   5.995  0.1794  0.2713  0.1020
22922W        W39396   9.766  15.303   4.429  0.3219  0.0436  0.2605
22923W        W39397  11.710   3.943  13.270  0.2288  0.1844  0.1220
22924W        W39398   3.155   1.765  12.362 -0.2003  0.1947  0.0659
22925W        W39399   1.646   9.867   0.078  0.1680 -0.2933 -0.1172
22926W        W39400   8.307   5.886  12.866  0.0422  0.0150 -0.0088
22927W        W39401  15.230  16.714  14.523  0.1107  0.0521 -0.1434
22928W        W39402  12.034   0.831   2.692  0.0426 -0.0459 -0.0145
22929W        W39403   7.956   3.689   3.875  0.2681  0.0585 -0.0275
22930W        W39404  13.933  13.933  15.519  0.1428 -0.1600  0.4059
22931W        W39405  17.643  14.444  13.443  0.0984  0.0227  0.1965
22932W        W39406  13.720   5.603  14.078  0.0127 -0.1734  0.0763
22933W        W39407   6.252   7.967  16.008 -0.1663  0.0224 -0.3109
22934W        W39408   7.455   7.514  12.220  0.0477 -0.2187 -0.0693
22935W        W39409   3.213   0.295   5.223 -0.0035  0.3720 -0.2472
22936W        W39410   3.885   3.651  13.518 -0.2094 -0.2530 -0.0796
22937W        W39411   0.544   1.201  11.262 -0.0554 -0.0453  0.0407
22938W        W39412  12.300  13.628   5.330  0.1794  0.0408 -0.1832
22939W        W39413   1.938   9.156   5.121 -0.4331  0.1009  0.1550
22940W        W39414  13.731  10.319  11.616 -0.1657 -0.2842 -0.1525
22941W        W39415  14.798   7.386   0.043 -0.0015  0.0993 -0.3046
22942W        W39416   0.679   9.734  11.983  0.4672  0.2900  0.2859
22943W        W39417  12.916   5.125  12.738  0.1691  0.1852  0.2185
22944W        W39418   1.639  13.840  15.904  0.0968 -0.0185 -0.2084
22945W        W39419   7.943   0.916   1.989 -0.4786  0.1197  0.2518
22946W        W39420   0.607  14.941  14.554  0.1637  0.0646 -0.0750
22947W        W39421  17.587   0.306   4.317 -0.1308 -0.0109 -0.0762
22948W        W39422   6.803  11.378   5.988 -0.0780  0.1495 -0.0485
22949W        W39423  12.910   3.308   1.298 -0.0805  0.0185 -0.0178
22950W        W39424   0.716  16.932  13.725 -0.0551  0.2600  0.0345
22951W        W39425   3.093   0.343  13.406 -0.0277 -0.3772  0.3526
22952W        W39426   9.351  15.885   3.714 -0.1208  0.1284 -0.0713
22953W        W39427  13.282   2.907   3.029 -0.0420  0.0755  0.0543
22954W        W39428  12.015  15.924  14.757 -0.3036 -0.1327 -0.0942
22955W        W39429   4.350   9.898  11.287 -0.2090 -0.1349 -0.1005
22956W        W39430   5.855  17.867   4.416  0.0839  0.0016 -0.0058
22957W        W39431   1.292   8.267  11.163  0.1409  0.1013  0.0944
22958W        W39432   7.261  16.832   4.886  0.1008 -0.1742 -0.0645
22959W        W39433   7.436  16.338   0.606  0.0281 -0.1547  0.1704
22960W        W39434   7.980   6.710  15.247 -0.1460 -0.3150  0.1084
22961W        W39435   8.852   4.523  14.451  0.2136  0.1715 -0.2090
22962W        W39436   4.528  17.489   0.382  0.1158  0.1520  0.0978
22963W        W39437   0.933  13.282  11.120 -0.2555  0.1638  0.0896
22964W        W39438  13.926   7.757   1.144  0.1549  0.2242 -0.1334
22965W        W39439   1.390   3.374   5.397 -0.1556  0.0404  0.2008
22966W        W39440  12.535   0.145  12.402 -0.0299 -0.0493 -0.2548
22967W        W39441   5.229   5.542  13.212  0.0789 -0.3960  0.1847
22968W        W39442  11.601  14.646  15.822  0.0641  0.2596 -0.0283
22969W        W39443  17.803  13.921  14.892  0.1431  0.0670 -0.2299
22970W        W39444   9.360   2.076   1.657  0.0270  0.3550  0.2562
22971W        W39445  17.550  10.218   2.458 -0.2324  0.0098  0.2839
22972W        W39446   8.014   2.014   2.438 -0.0163  0.3506  0.1868
22973W        W39447   1.495  14.778  13.652  0.0319 -0.1432 -0.1155
22974W        W39448   5.832   1.885   3.839  0.2259  0.0610 -0.0870
22975W        W39449  14.836   8.106  16.414 -0.0490 -0.0098  0.1469
22976W        W39450   6.949   1.435  15.283 -0.1877  0.1107  0.0611
22977W        W39451   3.410   2.234   4.017 -0.0262 -0.0620 -0.1219
22978W        W39452   1.306  13.130   3.796  0.1738  0.1815 -0.0239
22979W        W39453  17.732  15.796  15.329 -0.3068 -0.3372  0.0293
22980W        W39454  14.016   0.297   2.416 -0.0377  0.1130  0.0506
22981W        W39455   4.643   2.957   4.414  0.1404  0.3210  0.0127
22982W        W39456   2.657   6.147  15.086  0.4196  0.1695  0.1135
22983W        W39457  14.058   7.094  16.385  0.0513  0.1966  0.0049
22984W        W39458  16.870   0.191   0.991  0.0139  0.0305 -0.0993
22985W        W39459   8.567   1.279   5.980  0.1771  0.2656  0.1556
22986W        W39460  17.564  13.657   1.968  0.2266  0.0305  0.0130
22987W        W39461   4.493   1.412   3.489  0.1239 -0.1766  0.1736
22988W        W39462   6.865  15.049   3.354  0.0851 -0.1525  0.1038
22989W        W39463   4.915   2.124  16.335  0.2969 -0.0338  0.1063
22990W        W39464  15.874  17.689  13.965  0.2905 -0.1380  0.0947
22991W        W39465   2.479  12.026   3.125  0.3233  0.1047 -0.2044
22992W        W39466  11.743  16.944  12.553 -0.2749  0.0091  0.0001
22993W        W39467   0.262   2.895  13.002 -0.0286 -0.1413 -0.0450
22994W        W39468   9.482   2.667   3.286 -0.2344  0.0088 -0.0074
22995W        W39469  11.677   9.954   5.332  0.1274 -0.1068 -0.0232
22996W        W39470   7.403  15.421  15.506  0.2956 -0.0280 -0.0260
22997W        W39471   7.433   2.373  15.624  0.0183  0.1790  0.1626
22998W        W39472   7.266  14.717   0.675  0.0434 -0.1447 -0.1181
22999W        W39473  14.198  12.293  10.532  0.3476  0.0298  0.2648
23000W        W39474  17.203  16.912  14.010 -0.1412 -0.2030  0.1594
23001W        W39475   5.749   6.304   1.636  0.2849  0.1303 -0.2407
23002W        W39476  16.260   4.428  13.036  0.0191 -0.1693  0.0536
23003W        W39477   7.406   8.635   0.102 -0.3431  0.1712  0.2230
23004W        W39478  14.594   6.353  14.163  0.0373  0.1226  0.0540
23005W        W39479   2.143  11.068  11.701 -0.1917  0.1954 -0.1522
23006W        W39480   5.133  15.836   0.600  0.1261  0.0626  0.0153
23007W        W39481   6.338   4.998  15.440 -0.1957  0.0818 -0.4369
23008W        W39482   3.212   4.022   3.747 -0.3265 -0.1097 -0.0785
23009W        W39483   3.408  12.323   0.492  0.1136  0.1323  0.2855
23010W        W39484   0.298  13.693  13.097  0.3177  0.1003  0.0671
23011W        W39485   5.969  10.177   4.719 -0.0927 -0.0613 -0.0750
23012W        W39486  11.958   3.465  14.897  0.1377 -0.0635  0.1158
23013W        W39487  12.557   7.027   0.640 -0.0346 -0.0719  0.1886
23014W        W39488   8.936   8.177   4.644 -0.0376 -0.0032  0.0267
23015W        W39489   8.739  14.221   3.012  0.1248 -0.3547 -0.0215
23016W        W39490  11.261  12.908  15.171 -0.0896  0.0173  0.0077
23017W        W39491  13.050  12.718  13.168  0.0119 -0.1634  0.0314
23018W        W39492  15.692  10.545   1.801 -0.0145  0.0975 -0.1069
23019W        W39493  12.155   0.751  12.102  0.0092  0.0519  0.5121
23020W        W39494   5.239   1.235  15.313  0.2250 -0.0518  0.3205
23021W        W39495  13.403   6.539   0.569 -0.0934  0.0490  0.3836
23022W        W39496   2.004  14.889   5.483  0.1447  0.1113  0.1169
23023W        W39497  16.983   5.797   1.225  0.1137  0.1541 -0.0725
23024W        W39498  11.468   2.480  12.128 -0.0847  0.0038 -0.2852
23025W        W39499   4.652   0.846   4.292 -0.0996  0.2500  0.1513
23026W        W39500   1.480  12.863  15.588 -0.1448  0.3377  0.1405
23027W        W39501  17.696   9.852   4.753 -0.1723  0.3208 -0.1338
23028W        W39502   3.544   2.876   5.556 -0.3998  0.1491  0.0579
23029W        W39503  12.707  11.089  11.652 -0.1643  0.0990 -0.2915
23030W        W39504  12.103   0.944   0.220 -0.0691  0.1257 -0.0503
23031W        W39505  15.897  15.765  14.671 -0.2745  0.3083  0.2920
23032W        W39506   9.102   8.538   5.080 -0.2107 -0.0436  0.2239
23033W        W39507  15.427   5.346   0.331  0.2411 -0.2991  0.0975
23034W        W39508  17.249  16.962   0.212 -0.3350  0.2516 -0.1513
23035W        W39509  15.309   9.911  12.646 -0.0248  0.1991 -0.0140
23036W        W39510  16.496   4.320  16.549  0.0650  0.2377 -0.3417
23037W        W39511   4.011  16.904   3.592 -0.1169 -0.1132  0.0138
23038W        W39512   6.581   6.600   1.140 -0.0822 -0.0693  0.0524
23039W        W39513   7.358   5.947   1.974  0.0827  0.0790  0.0292
23040W        W39514  14.508   6.347   0.610  0.2644 -0.1114 -0.0673
23041W        W39515  11.905  14.679  13.369 -0.0901  0.0955 -0.2669
23042W        W39516  11.481   5.057   2.476 -0.0345 -0.3593  0.1918
23043W        W39517   9.439   3.091  15.422  0.0378  0.3919 -0.0531
23044W        W39518   5.387   6.713  16.666 -0.2164  0.0765 -0.0821
23045W        W39519  12.949  10.533   3.128 -0.0999  0.1740 -0.1898
23046W        W39520   2.336   3.921  16.426  0.2365  0.2699  0.1168
23047W        W39521   4.626   1.213  16.467  0.0324 -0.2730 -0.1124
23048W        W39522   3.320   6.318  14.336  0.0200  0.3317 -0.0594
23049W        W39523  11.817   0.453   2.377 -0.1751  0.0834 -0.0075
23050W        W39524   3.945   0.058  16.398  0.2969 -0.0421 -0.0410
23051W        W39525  16.948  16.503  15.587 -0.4380 -0.2209  0.0637
23052W        W39526   2.288   4.492   3.504 -0.1274  0.1342 -0.2195
23053W        W39527   2.330   9.270  16.709  0.1271 -0.1722  0.0811
23054W        W39528  17.157   1.040   3.703 -0.1510  0.5011 -0.0837
23055W        W39529   7.545  12.242   1.703 -0.3215 -0.1709 -0.3085
23056W        W39530  12.335  13.047   3.045 -0.0941  0.1259 -0.1080
23057W        W39531   4.669  12.243  12.724  0.0687  0.0031  0.1566
23058W        W39532   1.382  14.895  13.089  0.1144  0.2350  0.0931
23059W        W39533   9.893   1.483  15.132 -0.0145 -0.0349  0.1393
23060W        W39534  17.577  14.167   4.595  0.1109 -0.2166 -0.0262
23061W        W39535  13.583  14.169   3.685  0.1980  0.0784  0.2311
23062W        W39536   7.229   6.766   4.739 -0.0975 -0.0132  0.1266
23063W        W39537  15.567  10.859  11.774 -0.1919  0.0535 -0.2180
23064W        W39538   7.728   2.220  14.784 -0.0584  0.2463 -0.0589
23065W        W39539   2.722   1.828   3.287  0.1153  0.0029  0.2371
23066W        W39540  16.055   6.099   5.671  0.2294  0.0270  0.1388
23067W        W39541   7.799   0.150   3.658  0.1257  0.2553 -0.1868
23068W        W39542  11.183  13.019  14.003  0.3636 -0.0726 -0.3091
23069W        W39543  14.934  13.372  13.142 -0.0165 -0.0923 -0.0167
23070W        W39544  15.177  10.638  15.430 -0.1257  0.1680 -0.0781
23071W        W39545  14.224  17.626   3.257  0.1548  0.1867  0.0977
23072W        W39546  12.918   7.040  12.917 -0.3665  0.0925 -0.3130
23073W        W39547  10.140   0.508   1.403 -0.1341 -0.1122  0.0391
23074W        W39548  10.066  13.968  16.010  0.1101  0.2222  0.2194
23075W        W39549   3.437  13.722   1.031  0.1427  0.0023 -0.0642
23076W        W39550  12.261   1.036   5.201 -0.2483 -0.2827 -0.2195
23077W        W39551  17.405  13.544   5.188 -0.1176 -0.0642  0.1046
23078W        W39552  14.999  11.593  11.394  0.0803  0.0727  0.1211
23079W        W39553   8.069   1.063  13.267 -0.1768  0.3439 -0.2025
23080W        W39554  10.071  17.905   1.289 -0.1718 -0.0210  0.0521
23081W        W39555   6.384  13.772  11.919 -0.2655 -0.1054  0.2683
23082W        W39556   5.377  11.830  12.928  0.0689 -0.0780 -0.0188
23083W        W39557  11.148   3.588  12.169  0.0649 -0.2349  0.0078
23084W        W39558   4.351  11.803  15.934 -0.2133 -0.4675  0.1095
23085W        W39559   4.549   8.475   2.988  0.1983 -0.0264  0.1205
23086W        W39560   9.355   6.508  12.559  0.3988  0.2242 -0.1267
23087W        W39561  10.766   2.720   3.515  0.1035  0.3817 -0.1630
23088W        W39562  17.221  15.321  12.273  0.0028 -0.3197 -0.1785
23089W        W39563   2.153  16.374   0.147  0.0173 -0.1644  0.1291
23090W        W39564  16.951   8.846   1.120  0.0362  0.3583  0.0890
23091W        W39565   7.208  17.586  12.823 -0.0334 -0.1370 -0.0732
23092W        W39566  14.596  13.126   3.627 -0.0971 -0.3164  0.1772
23093W        W39567   7.490  10.601  14.240 -0.1344 -0.0889 -0.2582
23094W        W39568   5.874   6.302  12.377  0.1423 -0.1764 -0.2683
23095W        W39569   3.082  12.067  16.304  0.2641  0.1360  0.1020
23096W        W39570   7.438   3.419   3.035  0.1234 -0.0633  0.1730
23097W        W39571  11.237   6.983   2.007  0.2014  0.1599 -0.2151
23098W        W39572   9.672  15.550  16.371  0.2173 -0.2518 -0.2905
23099W        W39573   9.946  17.835  14.832  0.1808  0.0114  0.3249
23100W        W39574  13.335   1.062  14.574  0.0861  0.0929  0.0909
23101W        W39575  16.076   0.943   5.318 -0.0993 -0.2699  0.0095
23102W        W39576   1.585   5.078   3.822 -0.1650  0.1947  0.1902
23103W        W39577   2.256  14.191   0.290 -0.1517  0.0862 -0.2259
23104W        W39578   8.196  11.673  15.954  0.0547  0.2497  0.3379
23105W        W39579  16.898   9.510   0.492 -0.0463 -0.2141  0.1245
23106W        W39580  13.527   5.799   4.849  0.0309  0.2090 -0.1319
23107W        W39581  13.368   5.057   5.942 -0.1279  0.0106 -0.0149
23108W        W39582   5.816   8.913  13.386 -0.0220 -0.3163 -0.0991
23109W        W39583   8.042   7.713   2.620 -0.1603  0.1360 -0.1071
23110W        W39584  14.019   4.830  14.325  0.0179  0.1446 -0.0408
23111W        W39585   0.844  13.659  12.617  0.2373  0.0710 -0.1140
23112W        W39586   5.966  14.814  14.427  0.1476 -0.1906 -0.2913
23113W        W39587  10.248  15.733   1.773 -0.0151  0.4442  0.0198
23114W        W39588   3.746  16.588   4.518  0.1813  0.1918 -0.1016
23115W        W39589   9.823   8.546   4.661  0.4968 -0.0493  0.1913
23116W        W39590   9.801  16.173   1.946 -0.3616 -0.1687 -0.2183
23117W        W39591   0.870  13.991  13.059  0.0135 -0.2394 -0.0040
23118W        W39592  17.412   7.659   1.839  0.0515 -0.0111  0.2387
23119W        W39593  13.883   1.064   0.254 -0.1457  0.0798 -0.0874
23120W        W39594   0.194  10.026  15.671 -0.1813  0.3517 -0.0347
23121W        W39595   1.243   8.110   0.179  0.2409 -0.1047 -0.0072
23122W        W39596  17.373   1.755  13.691  0.2840  0.0582 -0.2102
23123W        W39597   9.672   9.402   3.350  0.2489  0.0991  0.1771
23124W        W39598  10.383  12.046   0.998  0.5907 -0.0903 -0.1289
23125W        W39599   1.494   7.710  13.198  0.1872  0.1555 -0.1194
23126W        W39600  17.018  17.309   4.923 -0.0121  0.2017  0.0647
23127W        W39601   6.717  10.862  12.597  0.0326 -0.0968  0.1721
23128W        W39602  13.784   9.755   4.556  0.0946 -0.0171 -0.1400
23129W        W39603  15.916   9.616   2.573 -0.0228 -0.0900  0.3592
23130W        W39604   9.244  16.816  15.962 -0.4008 -0.4417 -0.1503
23131W        W39605  13.995  16.260   0.063  0.2622 -0.0157 -0.0530
23132W        W39606  10.280   5.157   1.906  0.1912  0.0555  0.1600
23133W        W39607  12.841  12.205  12.070  0.2190  0.0136  0.0168
23134W        W39608   6.703   5.764  15.412 -0.0385 -0.1290  0.0566
23135W        W39609  10.430   5.120   1.410 -0.0002  0.0309  0.2200
23136W        W39610   6.452  12.878  13.761  0.1104 -0.2466  0.1660
23137W        W39611  14.643   2.719   0.538 -0.0434  0.0183 -0.0386
23138W        W39612   4.214  17.005   5.781 -0.1057 -0.1841  0.0739
23139W        W39613  13.088   5.254  11.691 -0.1788 -0.1040  0.1263
23140W        W39614   1.142   5.581  12.904  0.0192 -0.1854  0.2724
23141W        W39615   4.074   7.547  14.516 -0.0604  0.1260  0.0423
23142W        W39616   9.394  10.399   5.759  0.1430  0.0774 -0.1740
23143W        W39617  14.976   8.507   5.288  0.2064 -0.1635  0.0214
23144W        W39618  17.942   3.675  16.091  0.0254  0.1346  0.1370
23145W        W39619  16.771  11.707  13.020 -0.1067  0.2480  0.0747
23146W        W39620  14.971  12.671   3.011 -0.2532 -0.0106 -0.1189
23147W        W39621   3.316   8.973   1.360 -0.1329  0.0016  0.1991
23148W        W39622   1.343   1.479  14.892  0.0382  0.2020 -0.1242
23149W        W39623   9.581  16.152  12.407 -0.0537 -0.0198 -0.1678
23150W        W39624   3.676   7.663   2.488  0.0998 -0.4049  0.0569
23151W        W39625   9.675   0.143  11.755  0.0865  0.0778 -0.2324
23152W        W39626  15.857   9.036   5.605 -0.1115 -0.1152 -0.1695
23153W        W39627  14.472   3.605  11.706 -0.2771  0.2652 -0.1600
23154W        W39628   2.483   4.736  15.556 -0.0860  0.1893  0.0289
23155W        W39629   5.684   4.796  12.022 -0.1965 -0.0207 -0.2150
23156W        W39630   1.640  10.521  15.898 -0.0501  0.2575 -0.2839
23157W        W39631   2.651   6.275  13.159 -0.0454  0.1348  0.0171
23158W        W39632   8.225   0.265   3.996  0.1958 -0.4404  0.2064
23159W        W39633   8.858   6.617   5.695  0.0580 -0.1958  0.1555
23160W        W39634  16.570   1.547   0.712 -0.0028  0.4000  0.0572
23161W        W39635   2.653  14.731   4.358 -0.0947  0.3700 -0.1153
23162W        W39636  10.593  13.410  15.586 -0.0711 -0.0439 -0.3135
23163W        W39637  10.046  16.210  16.019  0.0022  0.0591 -0.3193
23164W        W39638  14.082  17.268   0.393  0.1983  0.1795 -0.1637
23165W        W39639   6.370  12.318  11.881 -0.2235 -0.1437  0.3986
23166W        W39640  14.707  11.118   3.588 -0.2166 -0.0508  0.2742
23167W        W39641  14.613  11.542  15.137 -0.1558 -0.0559  0.1840
23168W        W39642   3.273  15.602  12.897 -0.1520 -0.1793  0.0022
23169W        W39643   4.748   1.721   0.606  0.2799  0.1102  0.2771
23170W        W39644   8.345  17.599   2.420  0.1431 -0.0157 -0.0636
23171W        W39645   1.711   6.418  11.639 -0.3281 -0.0568  0.0839
23172W        W39646   3.205  15.920   2.414  0.3474 -0.1586  0.1963
23173W        W39647   3.703   0.023   2.247 -0.0641  0.3873 -0.2949
23174W        W39648   7.840  17.836  16.287  0.0898  0.2373  0.1066
23175W        W39649  16.594  15.297   2.194 -0.0848 -0.2362  0.1973
23176W        W39650   0.348  13.980   3.352  0.0308  0.0008 -0.0076
23177W        W39651  17.994   2.385   3.413  0.2845  0.1533  0.0664
23178W        W39652   7.505   6.359   1.182 -0.0254 -0.2437 -0.2776
23179W        W39653  13.151  10.155   5.584 -0.1270 -0.2289  0.0093
23180W        W39654   2.457   0.544  16.141  0.1160  0.1801 -0.1341
23181W        W39655   8.256  15.102   3.911 -0.2028 -0.2264 -0.1643
23182W        W39656   3.825  14.368   1.616  0.0034  0.0357 -0.2015
23183W        W39657  13.269  14.581   5.731 -0.1581  0.2368  0.1706
23184W        W39658   6.689  14.897  15.157  0.1586 -0.1657 -0.1806
23185W        W39659   2.283  15.804  15.324 -0.1538  0.0194 -0.0508
23186W        W39660  14.031   5.187   1.084 -0.0301  0.2375 -0.0899
23187W        W39661   0.647  10.582  12.066 -0.3224 -0.2769 -0.0001
23188W        W39662   4.576  15.142  12.003 -0.2056  0.0001 -0.0526
23189W        W39663   9.009  16.374  15.774  0.0239 -0.1265 -0.1378
23190W        W39664  13.534  16.651   0.836  0.0557  0.1683  0.1545
23191W        W39665   1.125   7.321  14.153 -0.0312  0.3107 -0.2435
23192W        W39666   2.342   8.647   4.580 -0.1316 -0.0763  0.0811
23193W        W39667   3.294  13.978  12.442 -0.0923  0.0997 -0.1837
23194W        W39668   5.144   2.109  13.156  0.0378 -0.2516 -0.2999
23195W        W39669   4.617   8.955   1.249  0.2365  0.1185 -0.0322
23196W        W39670   7.432  10.400   3.156 -0.0455 -0.0088  0.1326
23197W        W39671   8.202   5.096  12.370  0.3541  0.0321 -0.0371
23198W        W39672  12.227   1.979   2.541 -0.2194  0.1586  0.2308
23199W        W39673  11.123   2.429  15.807  0.0599 -0.1852  0.0086
23200W        W39674   0.990   6.565   5.497  0.1376 -0.0090  0.0083
23201W        W39675   6.207   4.643  15.812 -0.1620 -0.0745 -0.3267
23202W        W39676  12.667   2.388   4.843  0.0452  0.0724 -0.0208
23203W        W39677  15.521   3.762  11.525  0.1780  0.2108 -0.0377
23204W        W39678   8.320  10.383  15.624  0.1165 -0.1401 -0.2122
23205W        W39679   2.730   2.058   0.817 -0.1261  0.1635  0.0698
23206W        W39680   8.930   5.225   5.390  0.0627  0.2025 -0.0525
23207W        W39681  14.872  10.577  16.288  0.3881 -0.1009  0.0223
23208W        W39682   8.798   5.421   2.879 -0.3739 -0.1588 -0.1710
23209W        W39683   7.188   1.760  15.663 -0.1477  0.0095  0.4016
23210W        W39684  17.051  17.741   3.205 -0.2243 -0.2490 -0.0635
23211W        W39685   6.272   2.475  12.229  0.0895  0.0259 -0.1667
23212W        W39686  14.742  14.892  11.685 -0.0100  0.0502  0.1786
23213W        W39687  14.421  14.529  16.274  0.2448 -0.0808  0.1526
23214W        W39688   7.147  13.992   1.204  0.2169  0.4639 -0.3561
23215W        W39689   3.239  13.214   3.192 -0.1843 -0.0170  0.0378
23216W        W39690   3.145   3.911   3.239 -0.0456  0.3247 -0.1519
23217W        W39691   7.864  15.795   0.061  0.1268 -0.3740 -0.2731
23218W        W39692  10.452   0.175   1.163  0.1921  0.0062 -0.2981
23219W        W39693  11.758   2.098   4.705 -0.1785 -0.0014 -0.2460
23220W        W39694   1.407   1.131   3.914  0.1390  0.1500  0.2937
23221W        W39695  12.920   4.159   3.307 -0.1416  0.1605  0.0820
23222W        W39696  13.053   2.494   2.100  0.1142  0.1219  0.1048
23223W        W39697  13.524  15.636   3.825 -0.1405  0.0354  0.3795
23224W        W39698  13.671   9.321  12.947  0.1512  0.2786  0.2845
23225W        W39699   4.149  15.766   1.523 -0.0004  0.2647 -0.0751
23226W        W39700  17.019   0.384  14.134  0.1425 -0.3293  0.0142
23227W        W39701   1.994  15.856   5.251 -0.2780 -0.0872 -0.0756
23228W        W39702   2.005  13.955  11.355 -0.1169  0.1421  0.0631
23229W        W39703   3.322   1.076   2.719 -0.0327 -0.0823 -0.2602
23230W        W39704   6.822   4.804   3.504 -0.0676 -0.0168  0.2151
23231W        W39705   6.945   5.215  12.556 -0.3991 -0.2192  0.0968
23232W        W39706  12.586  17.991   0.223  0.0607 -0.0465  0.0483
23233W        W39707  14.953  11.833  14.810  0.0773  0.2805 -0.0482
23234W        W39708  11.283  11.711  15.774  0.0675 -0.1337  0.3070
23235W        W39709   5.516  13.050   2.778 -0.0026 -0.2778  0.2362
23236W        W39710   8.027   9.324   2.874  0.1697  0.1241  0.1779
23237W        W39711  16.976   5.631  16.011  0.0054  0.1447 -0.0049
23238W        W39712   3.136  16.310  14.969  0.0303 -0.2992  0.1063
23239W        W39713  13.281  16.199   2.493  0.1004  0.0284  0.2325
23240W        W39714  16.198   0.077  14.018  0.2399 -0.1999  0.0238
23241W        W39715   3.573   0.641   2.583  0.1579  0.1075 -0.3464
23242W        W39716   3.211   6.109   1.062 -0.3236  0.0535  0.1025
23243W        W39717   3.776   1.184   0.718  0.0199  0.0585  0.1363
23244W        W39718  14.709  15.437   0.533  0.4208 -0.1004  0.0442
23245W        W39719   9.372   9.767   4.916 -0.0684  0.0556 -0.0176
23246W        W39720   8.280   4.862   5.060  0.1554 -0.0298  0.2140
23247W        W39721   2.701  12.837  12.155  0.0653  0.1613  0.3933
23248W        W39722  14.962  11.085   1.967 -0.1871 -0.1679 -0.0299
23249W        W39723   5.081   4.474   0.143 -0.0814 -0.2754  0.2392
23250W        W39724   6.388  10.445   2.319 -0.1170 -0.1141 -0.2752
23251W        W39725  12.598  12.197   5.816  0.1980 -0.0300 -0.3076
23252W        W39726   7.681  11.395  16.032  0.1073 -0.0784 -0.0448
23253W        W39727   7.611  15.059   5.045 -0.2807 -0.0464 -0.0997
23254W        W39728   2.483  11.500   4.523 -0.0867 -0.1678 -0.1196
23255W        W39729  12.957  13.713   3.150  0.0947  0.0505  0.0549
23256W        W39730   1.131   7.869  11.467  0.1556 -0.0562 -0.1515
23257W        W39731   0.192   2.059   6.023  0.0271  0.0634  0.1905
23258W        W39732  17.457   7.970  11.584 -0.1658 -0.1951  0.0916
23259W        W39733  16.434   4.141  11.709 -0.2064  0.0878  0.2763
23260W        W39734  11.969   8.741   0.077  0.1396 -0.4293 -0.0506
23261W        W39735   9.484   0.063   3.374 -0.0726  0.0864  0.1669
23262W        W39736  13.086   9.994   2.893 -0.1339  0.3890 -0.0383
23263W        W39737   0.650  15.605  15.683 -0.3799  0.0396 -0.0835
23264W        W39738  12.759  10.597   0.718  0.1806 -0.0309 -0.0272
23265W        W39739   0.609   9.933  14.346  0.0287  0.1841  0.0955
23266W        W39740   6.380   3.737   3.988 -0.0380 -0.1634 -0.0127
23267W        W39741  17.102  13.464  16.543 -0.1968  0.0906  0.1710
23268W        W39742  13.237   5.173   0.860  0.0919  0.1377  0.3971
23269W        W39743  15.965   5.337  13.515 -0.1350  0.3255 -0.0781
23270W        W39744  14.802   8.534   3.965 -0.2834  0.1746  0.0478
23271W        W39745  14.189  16.239   2.411 -0.2096 -0.1365 -0.0095
23272W        W39746  13.565   3.706   1.827  0.1609 -0.1887 -0.2340
23273W        W39747   2.596   0.929  16.647  0.2245 -0.2940 -0.2389
23274W        W39748  10.781  15.295   5.308  0.2293 -0.0477  0.1990
23275W        W39749  11.816  16.450  16.264 -0.0337 -0.1205  0.0581
23276W        W39750   2.677  16.421  15.682  0.0174  0.3629  0.1570
23277W        W39751  10.349  14.092  13.804 -0.1069 -0.0658  0.0569
23278W        W39752   6.919  17.391  11.298 -0.0909  0.1169  0.4503
23279W        W39753  13.868   7.648   4.900  0.3629 -0.0550 -0.2133
23280W        W39754  15.875   7.137  13.927  0.1421  0.0270  0.0612
23281W        W39755   0.519   2.455   3.487 -0.1209 -0.0491  0.1439
23282W        W39756   5.658  14.599  15.833 -0.0123  0.0037 -0.0808
23283W        W39757   0.206  16.524   3.521  0.3573 -0.1106  0.1278
23284W        W39758   2.203  11.747  13.515  0.0015  0.1122  0.1353
23285W        W39759   9.568  13.484  12.645  0.0058 -0.4220  0.1384
23286W        W39760  15.446   1.463   5.120  0.1596 -0.3802 -0.0069
23287W        W39761  10.587   8.458   3.369  0.1311  0.0535 -0.1689
23288W        W39762  14.763   1.352   0.777  0.1054 -0.0999 -0.2155
23289W        W39763   0.550  11.053  11.389 -0.0543 -0.1712  0.0990
23290W        W39764   4.553   2.828  11.363 -0.0536  0.2539 -0.0972
23291W        W39765   7.258  11.815   1.001 -0.3719  0.1641  0.1289
23292W        W39766  16.211  14.729   0.456  0.2533  0.1931  0.2345
23293W        W39767   7.086  11.480   1.814  0.1005 -0.1717  0.0989
23294W        W39768  10.812  16.111   5.432 -0.1223 -0.1309  0.0164
23295W        W39769  14.619   7.138   1.257 -0.2335 -0.0284  0.1702
23296W        W39770   4.593   5.915  13.472  0.1542  0.1245 -0.2217
23297W        W39771  12.226   5.810  14.517  0.0931 -0.0344  0.1147
23298W        W39772  13.151   7.724  14.436 -0.0555  0.0951  0.2244
23299W        W39773  16.829   0.534  14.925  0.1232 -0.1903  0.1725
23300W        W39774   1.521  16.141  11.504 -0.1946 -0.0417  0.0429
23301W        W39775  12.008  16.415   1.794 -0.1628 -0.0481  0.0029
23302W        W39776   8.180   4.611   3.141  0.0150  0.1364  0.0259
23303W        W39777  10.972  12.813   5.521 -0.2174  0.2764  0.1765
23304W        W39778  10.084  17.871  11.624  0.2392  0.0439  0.1264
23305W        W39779  12.220  11.014  11.618  0.0076  0.0784 -0.5230
23306W        W39780   7.423   8.392  12.518 -0.0077 -0.2000  0.0528
23307W        W39781  17.198   8.061   3.383 -0.1776 -0.1094  0.3986
23308W        W39782  16.420  14.960   0.861 -0.1434  0.0123  0.1312
23309W        W39783   7.788  14.388  14.226 -0.2059 -0.2946  0.0380
23310W        W39784   4.738   0.176  13.649 -0.0311 -0.0041  0.0104
23311W        W39785  14.265   2.889  12.425 -0.2435  0.0644  0.1533
23312W        W39786   6.867  14.528  12.286  0.0471  0.4285  0.0755
23313W        W39787   5.821   8.289   0.449 -0.1450 -0.1361 -0.3771
23314W        W39788  14.360  10.882   3.869  0.1786  0.0365  0.0405
23315W        W39789   4.608  14.901  13.378 -0.0380  0.0396  0.0672
23316W        W39790   1.717  16.719  12.278 -0.0703 -0.0430  0.2944
23317W        W39791  16.594   9.919  13.282  0.0694  0.0481 -0.1823
23318W        W39792   2.653  17.775  14.842 -0.0271  0.0601  0.0620
23319W        W39793  10.017  16.999  14.560  0.0939 -0.2562 -0.7238
23320W        W39794  14.818  14.232  13.684  0.1379  0.0842  0.0114
23321W        W39795   7.269   6.118   3.624 -0.0207 -0.1449 -0.3316
23322W        W39796  12.648   8.027  14.484 -0.0163 -0.0868 -0.0372
23323W        W39797  15.700  12.127  11.760 -0.1868  0.1492 -0.1925
23324W        W39798   7.517  16.043   1.744  0.1872  0.0029  0.2785
23325W        W39799   5.372  14.840   4.975 -0.0187  0.1931 -0.0693
23326W        W39800  13.828  12.652  14.430  0.1299 -0.0172  0.3634
23327W        W39801   6.920  17.865   2.401  0.4244 -0.3076  0.0732
23328W        W39802   7.837   8.338  14.454  0.2361 -0.3395 -0.2415
23329W        W39803   0.233  15.922  13.863  0.0669  0.2636 -0.0576
23330W        W39804   3.814  12.862  14.004  0.0005  0.0900 -0.1922
23331W        W39805   7.783   5.897   1.297 -0.2147 -0.0978  0.0928
23332W        W39806  17.602  16.646  12.252  0.1182  0.2808  0.0458
23333W        W39807  17.321  16.373   4.469  0.0556  0.2123 -0.1775
23334W        W39808  13.802   9.371  15.848  0.1149 -0.1431  0.0821
23335W        W39809  13.357   6.246   1.035 -0.0209 -0.1783 -0.1869
23336W        W39810  14.235   7.977  16.558  0.1780 -0.2473  0.0298
23337W        W39811  17.535  14.584   3.134  0.0777 -0.0065 -0.0770
23338W        W39812  17.918   4.275   0.178  0.1848 -0.0228 -0.0327
23339W        W39813  11.239  11.355   4.059  0.0306 -0.0609  0.1070
23340W        W39814  11.288   8.344   1.677  0.2793  0.1340 -0.1184
23341W        W39815   9.977  12.738  11.817 -0.0314  0.1884  0.0269
23342W        W39816   2.467  10.290  11.844 -0.0319  0.5538 -0.0772
23343W        W39817  17.059  17.503   2.724  0.2885 -0.1423 -0.0054
23344W        W39818  17.249   8.823  16.289 -0.2202  0.5405 -0.1471
23345W        W39819   0.487  12.338   2.222 -0.0090 -0.3086  0.1180
23346W        W39820  17.946   3.393   4.578  0.2354  0.0366  0.1445
23347W        W39821   9.391   9.601   4.029  0.1447  0.0874  0.1994
23348W        W39822   4.123   4.787  11.389  0.1267 -0.0675  0.1339
23349W        W39823   0.517   5.007   5.787 -0.2313 -0.0237 -0.0509
23350W        W39824  10.942   3.038   2.016  0.1899  0.1024 -0.0149
23351W        W39825  15.554   0.730   4.012  0.1128  0.2797 -0.0306
23352W        W39826   4.623  16.855  15.239  0.2343  0.0874  0.1917
23353W        W39827   9.012   8.607   0.746  0.3111  0.1663  0.1346
23354W        W39828   4.406   5.921   3.536  0.0610  0.2892 -0.1290
23355W        W39829   3.729  13.251  15.637  0.1936  0.0572  0.0960
23356W        W39830   6.781  16.810  15.713 -0.2606  0.2306 -0.1428
23357W        W39831  12.042   3.005   0.404 -0.2896 -0.1666 -0.0416
23358W        W39832  17.980   6.517   1.979  0.0505 -0.0824 -0.2883
23359W        W39833   4.710   5.099   2.246  0.3310 -0.1757  0.0150
23360W        W39834  15.656   8.055  15.129 -0.1602  0.3465 -0.0626
23361W        W39835  16.530  14.589  15.932  0.1531 -0.3592  0.2838
23362W        W39836  12.824  13.182   0.850 -0.1067 -0.0611 -0.0977
23363W        W39837  10.334  15.142   0.021 -0.0299  0.1083 -0.2797
23364W        W39838   5.788  11.437   0.160  0.2029  0.1857  0.3295
23365W        W39839   9.610   2.865   4.135 -0.0746  0.2716  0.0841
23366W        W39840   3.445   5.178  12.180 -0.0179 -0.1536  0.0529
23367W        W39841   0.063  13.240  11.026 -0.0225 -0.0581 -0.0013
23368W        W39842   6.259   1.097   0.883 -0.1109 -0.2206  0.3556
23369W        W39843  10.419  11.245  15.503  0.1350 -0.2985 -0.1544
23370W        W39844   7.041   0.234  13.884  0.2914 -0.0648  0.0938
23371W        W39845   6.118  16.337  15.798  0.0123 -0.4787 -0.0267
23372W        W39846  13.012  12.258   2.265  0.1151  0.0214  0.0983
23373W        W39847  13.400   9.044   3.235  0.3759 -0.0113 -0.0785
23374W        W39848  12.585   5.945  14.098  0.0692  0.1168  0.0338
23375W        W39849   7.227   4.642   5.400 -0.5226 -0.0335 -0.2038
23376W        W39850   5.049  14.979  15.132 -0.0283 -0.0801 -0.0763
23377W        W39851  14.824  13.635  12.734  0.0966 -0.0839  0.0802
23378W        W39852  15.939   5.778   4.653  0.5034  0.0227 -0.0069
23379W        W39853   6.406  10.861   0.601 -0.0461 -0.1915 -0.0385
23380W        W39854  12.803  13.694   0.570  0.1602  0.0379 -0.0504
23381W        W39855  10.578   0.676  12.740  0.1145 -0.0607  0.0688
23382W        W39856   9.518   8.288   4.248 -0.1333 -0.0381 -0.0136
23383W        W39857   6.284   1.918  15.982 -0.2802 -0.2866 -0.1843
23384W        W39858   3.836  12.646   0.200 -0.0072 -0.2352  0.2044
23385W        W39859  17.026   3.474   4.301  0.0365  0.1439  0.2896
23386W        W39860  10.889  13.137   4.657 -0.4106  0.1172 -0.1866
23387W        W39861  10.626   0.754   2.319  0.1509  0.1136  0.0959
23388W        W39862   6.340  12.048  14.088 -0.1649 -0.0020 -0.0309
23389W        W39863   4.596  13.018   3.788  0.1630 -0.0443 -0.3042
23390W        W39864  11.392  14.413  14.184 -0.0437 -0.0436  0.0299
23391W        W39865   8.122  17.354  15.383 -0.1245 -0.1296 -0.1654
23392W        W39866  15.911  13.239  15.676  0.0391 -0.3293 -0.0219
23393W        W39867  12.235  16.846  15.602  0.0412  0.0397 -0.0639
23394W        W39868   5.433  10.724  13.856  0.1334 -0.1058  0.3180
23395W        W39869  15.374   2.062  12.765  0.3066 -0.3334  0.0533
23396W        W39870  17.627  11.106  12.511 -0.2009 -0.0053 -0.2288
23397W        W39871   8.807  11.391   3.771  0.0468 -0.0438  0.2671
23398W        W39872   2.159   2.744   1.341 -0.2417 -0.1682  0.0616
23399W        W39873   2.819   3.589   0.381  0.3870  0.2946  0.1384
23400W        W39874   9.483  11.315  12.734 -0.0539 -0.0116 -0.6962
23401W        W39875   7.009   0.881  12.444 -0.0109 -0.0349  0.4497
23402W        W39876   2.086   1.275  13.290 -0.2894 -0.0103  0.0292
23403W        W39877  12.707  14.876  16.027 -0.1872 -0.0765  0.0280
23404W        W39878  17.998   2.076   2.652 -0.1316 -0.2401 -0.2789
23405W        W39879  16.749   1.458  14.295  0.2768 -0.1807 -0.1810
23406W        W39880   4.422   4.633   5.539  0.3763  0.0184 -0.1692
23407W        W39881  16.087   8.679   3.764  0.0207  0.1900  0.0604
23408W        W39882  14.652   3.980   5.430 -0.0974 -0.2916 -0.2846
23409W        W39883  12.472   6.978   1.554  0.0542  0.3191  0.0355
23410W        W39884   8.238  12.901   4.493 -0.1030 -0.2729 -0.1073
23411W        W39885  15.266   4.316   1.160 -0.1360 -0.3145  0.0806
23412W        W39886   0.010   1.503  14.229  0.3624 -0.0063 -0.0909
23413W        W39887  13.016  11.976   6.009 -0.1426 -0.1849 -0.1302
23414W        W39888   1.299   1.539  13.562  0.0264  0.0628 -0.0158
23415W        W39889   6.342   4.075   3.634 -0.2294 -0.0964  0.0318
23416W        W39890   7.626   8.526  15.055  0.0539 -0.2685 -0.1503
23417W        W39891  17.439  14.713   3.702 -0.0158  0.1703 -0.0925
23418W        W39892  17.268   5.100  12.099 -0.1846  0.0818 -0.2042
23419W        W39893   8.863   4.765  13.956  0.2938  0.2749  0.1093
23420W        W39894  17.775   5.859  13.750 -0.2457 -0.3271 -0.3080
23421W        W39895  17.408   3.524   4.790  0.0031 -0.0484  0.1160
23422W        W39896   5.623   1.583   5.208  0.1003  0.1855 -0.1722
23423W        W39897   1.446  17.227   1.819  0.1029 -0.4278 -0.1860
23424W        W39898   9.253   1.057  11.546 -0.0129 -0.0235  0.0750
23425W        W39899   9.340   4.051   2.015 -0.0738  0.0472 -0.0192
23426W        W39900   6.879  10.641   0.317 -0.5253 -0.1034 -0.0627
23427W        W39901   8.715   2.815   2.749 -0.1690 -0.1323  0.0625
23428W        W39902   9.904  12.529  14.704  0.4108  0.1616 -0.0054
23429W        W39903   3.980  17.691  12.102  0.0253 -0.1478  0.0966
23430W        W39904   3.487   2.276   4.946  0.0897  0.0913 -0.2168
23431W        W39905   2.058   9.982  11.810 -0.3022 -0.0485  0.1141
23432W        W39906  13.508   8.088   4.300 -0.0035 -0.2493  0.1641
23433W        W39907  16.040   9.618  14.101 -0.3109 -0.0286  0.3381
23434W        W39908   2.553   6.307  13.694 -0.0040 -0.1812  0.1307
23435W        W39909  17.258   0.985   0.176 -0.1342 -0.1236  0.1866
23436W        W39910  11.260  13.841   0.725  0.0119  0.2918  0.0406
23437W        W39911   7.195   9.041  16.171 -0.2011 -0.1021 -0.1395
23438W        W39912  11.505   0.986   5.002 -0.0534 -0.1801  0.0695
23439W        W39913  17.854   5.129  15.828  0.0993 -0.0308 -0.1413
23440W        W39914   7.951   4.874  13.644  0.1132 -0.2101  0.1211
23441W        W39915   5.027   4.970  14.064  0.1375 -0.0350  0.0057
23442W        W39916   6.898   4.340   2.956  0.2030 -0.0866 -0.0060
23443W        W39917  17.418  13.661   3.213 -0.1688  0.1680  0.1453
23444W        W39918  11.907   6.380   0.142  0.0667 -0.1317  0.0347
23445W        W39919  15.954  13.815  16.169  0.0534 -0.1698 -0.0370
23446W        W39920   2.520  14.122  11.996  0.0917  0.0078  0.1785
23447W        W39921  11.955   7.785  15.200 -0.0153  0.0882  0.2380
23448W        W39922   8.042   1.314  12.134  0.0091 -0.0114 -0.2213
23449W        W39923   8.723  12.184   4.114  0.2781  0.1400  0.0843
23450W        W39924  17.433   6.931   0.945 -0.1610  0.0394 -0.1031
23451W        W39925  12.905   5.859  15.899  0.3661 -0.3722  0.0211
23452W        W39926   2.325   6.011   6.357 -0.0395 -0.1485  0.2527
23453W        W39927  11.850   7.038  14.035  0.2369 -0.0310 -0.0082
23454W        W39928   6.562   3.138   4.821 -0.0396  0.4063 -0.1914
23455W        W39929  16.931   4.349  15.385  0.3049 -0.3477 -0.1749
23456W        W39930   1.239   7.907   0.640 -0.2502  0.0905 -0.0579
23457W        W39931   7.705   0.569  15.473 -0.1126  0.3412  0.1473
23458W        W39932  14.048   4.818   0.813 -0.0481  0.1711 -0.1943
23459W        W39933   3.508  13.980   4.476 -0.2603  0.2208  0.1844
23460W        W39934  16.637  13.428  13.755 -0.0608  0.0104  0.1701
23461W        W39935   9.192  10.647   0.187  0.1002  0.0848 -0.3577
23462W        W39936   0.879   9.167  15.787 -0.0544  0.2106  0.1240
23463W        W39937  15.054   3.763   5.300 -0.1456  0.0060 -0.0528
23464W        W39938  16.439  13.052   1.787 -0.0111  0.0306  0.1098
23465W        W39939   3.727  17.980   4.112  0.2782  0.1772 -0.1797
23466W        W39940   3.910  17.066   0.868  0.0009  0.0538 -0.0231
23467W        W39941  16.419   3.925   3.074  0.0503  0.1818  0.2785
23468W        W39942   7.988   3.022  16.530  0.1990 -0.0116 -0.2634
23469W        W39943   1.805  17.154   3.398  0.3105  0.0585 -0.3909
23470W        W39944   6.291  10.134   1.062  0.1623  0.1571  0.1805
23471W        W39945  16.820  16.103   1.750  0.0956  0.0505 -0.1066
23472W        W39946   3.677   3.364   4.542 -0.0142 -0.3109  0.1261
23473W        W39947   5.923   9.196   4.852 -0.0945  0.0124  0.4436
23474W        W39948  16.991  14.048   3.529 -0.0823 -0.0957  0.1603
23475W        W39949  11.263  15.000   1.313  0.0106  0.1876  0.1866
23476W        W39950   8.491   2.937  16.620  0.0798 -0.0926  0.0366
23477W        W39951   6.518  11.439  15.746  0.1540 -0.0305  0.0403
23478W        W39952  10.435  11.996  12.105  0.2253 -0.1970 -0.0710
23479W        W39953  14.145   9.012  16.567 -0.0336 -0.0235 -0.0877
23480W        W39954   9.565  14.096   5.476  0.0928  0.0014 -0.3620
23481W        W39955  16.797   3.632   1.177  0.2928  0.1300  0.3238
23482W        W39956  16.535   8.384  12.381  0.0619 -0.1293  0.0529
23483W        W39957   8.258  12.959  11.374 -0.0087 -0.0522  0.0714
23484W        W39958  14.817   3.308   2.877 -0.2701  0.1054  0.1053
23485W        W39959  10.379  11.658  15.225  0.0092  0.2349  0.1454
23486W        W39960  12.838  12.812  11.750  0.3588 -0.1558 -0.0776
23487W        W39961   3.002  10.964  10.794 -0.1501  0.3256  0.0985
23488W        W39962  11.497   1.664   4.561 -0.5360  0.0756  0.0128
23489W        W39963   9.979   4.824  15.472 -0.0219 -0.2442  0.0773
23490W        W39964   0.413  10.827   1.263 -0.0630  0.2939  0.1559
23491W        W39965  14.410   0.944  12.830 -0.1022  0.0372 -0.1763
23492W        W39966  14.222   6.518  16.369 -0.3022 -0.1832  0.1396
23493W        W39967   2.901  15.881   5.145 -0.1369  0.1870 -0.0499
23494W        W39968   9.993   8.642  11.447  0.1984 -0.3492 -0.1195
23495W        W39969   3.964   2.918   2.415 -0.1612  0.1005  0.1235
23496W        W39970  17.717  13.181   1.959 -0.0748  0.4339  0.3311
23497W        W39971  13.110  11.743   1.270  0.2171  0.4018 -0.0815
23498W        W39972  17.938  14.878  13.864 -0.3336  0.1275 -0.3963
23499W        W39973  15.636   1.988   0.866  0.1093  0.0217  0.0791
23500W        W39974   2.899   5.803  11.402  0.1305  0.3329 -0.0408
23501W        W39975   6.518  10.360   0.572  0.4232 -0.0998  0.2097
23502W        W39976  12.848  17.146   0.846  0.0675  0.1217 -0.1519
23503W        W39977  13.532   7.279   1.965  0.0370 -0.2139  0.0382
23504W        W39978   6.181  10.900   1.491  0.0160  0.0163  0.0473
23505W        W39979   3.141  12.615  13.617 -0.1781  0.0072 -0.0887
23506W        W39980  17.786   3.711  12.778  0.0230  0.4119  0.0731
23507W        W39981  17.708   4.971  13.033  0.0438  0.3228  0.1346
23508W        W39982  10.626   7.899   5.748  0.0464 -0.0874  0.1286
23509W        W39983   4.081   5.957  14.248  0.0118 -0.0557  0.0817
23510W        W39984  14.115  17.750  12.314  0.0152  0.2162  0.1507
23511W        W39985   7.719  10.913   4.643  0.2745  0.1013  0.3698
23512W        W39986   7.417  12.244   0.313  0.0214 -0.1655 -0.1803
23513W        W39987   9.882   1.271  11.736 -0.0488 -0.0228 -0.1173
23514W        W39988   4.296   5.419  13.827  0.2082 -0.0712  0.0263
23515W        W39989   9.040   0.826   4.485 -0.3120 -0.0233  0.0631
23516W        W39990  12.040  17.061   4.932  0.2058 -0.3117 -0.0129
23517W        W39991  16.487   5.333   4.918 -0.0496  0.0059 -0.2792
23518W        W39992   2.912   2.594   3.677  0.0637  0.1380  0.0668
23519W        W39993   5.536   6.396   4.275 -0.1141 -0.0263 -0.3034
23520W        W39994   1.614   3.806   3.271  0.2063 -0.1370 -0.0167
23521W        W39995   7.487   4.838   6.263  0.2969 -0.0277 -0.0178
23522W        W39996   9.737  14.661  14.960 -0.1829 -0.1920 -0.1800
23523W        W39997  10.908  11.551   2.580 -0.0755 -0.0533 -0.1235
23524W        W39998  14.426  17.362  13.633 -0.0984 -0.0629  0.0281
23525W        W39999   6.141   0.497   2.800 -0.1241 -0.0513  0.0070
23526W        W40000   2.498   8.343   4.186  0.0292 -0.1497 -0.2897
23527W        W40001   4.731   6.766   5.257  0.2458 -0.4766 -0.0957
23528W        W40002   1.947  12.196  13.844 -0.2415  0.0836 -0.1922
23529W        W40003  13.290   5.684   2.623  0.0049  0.1421  0.1176
23530W        W40004   9.603  12.798   3.036 -0.0820 -0.1309 -0.0862
23531W        W40005   7.468  12.229  14.253  0.0832  0.1222  0.1506
23532W        W40006  13.918   9.037  14.452 -0.3015 -0.1645 -0.0691
23533W        W40007   9.636   4.246  14.851 -0.1128 -0.4153 -0.2053
23534W        W40008  12.633   1.394  14.397 -0.1835 -0.1027 -0.0730
23535W        W40009  15.118   2.815   0.719 -0.4864  0.0993 -0.0251
23536W        W40010   2.211  17.385  13.080 -0.0072  0.0374  0.2273
23537W        W40011   6.591   0.296  13.647 -0.1154 -0.0055  0.0797
23538W        W40012  11.784   8.244  13.360  0.2517  0.4377  0.3168
23539W        W40013   3.539   6.259   2.752  0.4564 -0.1927 -0.1604
23540W        W40014  13.790  17.257  15.804 -0.2118 -0.0717  0.1121
23541W        W40015   2.243   7.833   3.679 -0.0807  0.2886 -0.1045
23542W        W40016   9.452  12.567   3.992 -0.3506 -0.2183 -0.0186
23543W        W40017   8.579   7.482   5.174 -0.2105  0.0607 -0.0706
23544W        W40018   8.258   1.062   2.457 -0.0359  0.1528 -0.4036
23545W        W40019   6.899   3.183   4.455 -0.1033  0.1996 -0.4046
23546W        W40020   4.052  15.044   3.817  0.0419  0.0705  0.3255
23547W        W40021  17.136   0.865   1.167  0.0287  0.2120 -0.1558
23548W        W40022  10.714   1.292  12.425 -0.1097 -0.0893 -0.1584
23549W        W40023  17.130   0.592   2.435 -0.1060 -0.0745 -0.1976
23550W        W40024   1.244  15.517   2.259 -0.1261 -0.1070  0.1064
23551W        W40025  17.843  16.278  15.130 -0.1051 -0.2224 -0.2850
23552W        W40026  15.350  13.833   5.286 -0.0758  0.0941 -0.0028
23553W        W40027  12.957   2.094   0.747 -0.0574  0.1473 -0.1107
23554W        W40028  12.326  14.616  15.848 -0.0317  0.3515  0.0877
23555W        W40029   6.587   2.889  11.817  0.1491 -0.0367  0.0994
23556W        W40030  12.779   2.852   1.281  0.1628  0.2135  0.0876
23557W        W40031   7.802  16.888  14.586 -0.0406 -0.3360  0.0875
23558W        W40032   0.892   0.734  16.191 -0.1981 -0.0910 -0.1412
23559W        W40033   4.570  15.669   1.281  0.1032  0.0440 -0.3289
23560W        W40034   2.439  14.358  15.234  0.0816 -0.1151 -0.0737
23561W        W40035   8.709   4.381   3.194  0.0676 -0.2851 -0.5142
23562W        W40036  13.866  17.694   5.103  0.0312 -0.0709 -0.1419
23563W        W40037  13.509   1.438  15.911  0.2454 -0.1058  0.0963
23564W        W40038   9.848   4.798  15.989 -0.1346 -0.1739 -0.2383
23565W        W40039   6.584   2.124   3.578  0.1130  0.1578 -0.2133
23566W        W40040   8.686  15.920  12.546  0.3323  0.2300 -0.3081
23567W        W40041  12.043  11.296  13.816  0.1842  0.0999  0.1231
23568W        W40042  14.068  17.847   1.160 -0.2818  0.0246 -0.0649
23569W        W40043  11.945  16.855   2.827 -0.1470  0.1420 -0.2550
23570W        W40044   0.934   9.654  15.523 -0.2062 -0.1066 -0.1791
23571W        W40045  17.651  13.953   1.493  0.5630  0.1128 -0.0499
23572W        W40046  15.852   5.053  15.622  0.3240 -0.1067 -0.2029
23573W        W40047  14.359   9.475   3.181  0.0338  0.0814 -0.1043
23574W        W40048   4.162   1.257  16.074  0.0094 -0.2937  0.1828
23575W        W40049   2.820  14.888  14.673  0.1149 -0.3475  0.2538
23576W        W40050  16.912   9.626   2.834  0.1870  0.0429  0.0232
23577W        W40051  11.181   3.697  15.456 -0.0594 -0.1666 -0.2549
23578W        W40052  15.674   3.485  13.532 -0.0338 -0.0746  0.2503
23579W        W40053  14.054  14.588  13.694 -0.0901 -0.2009  0.0691
23580W        W40054   6.651   7.971   0.443  0.3548  0.0380  0.2718
23581W        W40055   2.816   5.763  15.415 -0.2484  0.0040 -0.1472
23582W        W40056   3.171  10.217  13.980 -0.0716 -0.1196 -0.0292
23583W        W40057   7.671   1.049  15.834  0.1221  0.0885 -0.2272
23584W        W40058  11.342   9.552   1.488  0.2532  0.1464 -0.2634
23585W        W40059   5.206   7.551   5.395 -0.0284  0.0096 -0.0691
23586W        W40060  14.170  14.233   5.484 -0.1866 -0.1501  0.0269
23587W        W40061  10.357  12.737   4.319  0.1582 -0.3214 -0.1154
23588W        W40062   6.640  15.211   4.654 -0.2084  0.3180  0.0699
23589W        W40063   9.569   8.927   2.997  0.1120 -0.0083  0.3290
23590W        W40064   0.813   5.917  12.115  0.0702 -0.3089  0.1954
23591W        W40065   0.376   8.272   2.113  0.1371  0.1294  0.3756
23592W        W40066  16.325   9.672   4.435  0.0957  0.1207 -0.0265
23593W        W40067   1.354   3.880  16.569  0.2079 -0.0418 -0.0506
23594W        W40068  14.303   7.684  14.607  0.3145 -0.1252 -0.1971
23595W        W40069   0.178  10.024  13.855 -0.2918 -0.0442  0.4590
23596W        W40070   1.972  15.266   2.739  0.0329  0.2179  0.5085
23597W        W40071  12.932   5.618   0.406 -0.1632 -0.0242  0.1154
23598W        W40072   4.994  11.410  15.498  0.0163  0.2453 -0.0718
23599W        W40073   0.363  11.926  16.526  0.1795 -0.0045 -0.1418
23600W        W40074   8.072   9.944   3.644  0.2061 -0.2574  0.3423
23601W        W40075   1.035   2.794   4.788  0.0501  0.1997  0.1715
23602W        W40076  12.933   8.215   1.953 -0.2936  0.0245 -0.2033
23603W        W40077  16.851  14.246   2.281  0.2709  0.0585  0.2872
23604W        W40078   9.002   0.028  12.671 -0.0183  0.3424 -0.2141
23605W        W40079   6.966  15.735  12.429  0.1766  0.2222 -0.1505
23606W        W40080  17.069   0.873   4.981  0.0606  0.0258 -0.0306
23607W        W40081  14.617   9.450   1.292  0.6530 -0.1790  0.0429
23608W        W40082  12.142  14.797   5.184  0.1332 -0.2296 -0.0577
23609W        W40083   0.054   6.966   5.041  0.2703  0.0525 -0.0917
23610W        W40084  14.494   0.945   4.953 -0.3452 -0.1447  0.1621
23611W        W40085   6.027   5.056   2.929  0.1455  0.0583  0.1520
23612W        W40086   9.809  10.009  15.280  0.0054 -0.2879  0.0093
23613W        W40087  11.849  10.689   2.563 -0.4666 -0.4263 -0.1665
23614W        W40088   6.768   5.820   1.257 -0.1577  0.0547 -0.3283
23615W        W40089   1.621  14.844   5.766 -0.2381  0.1150  0.0645
23616W        W40090   4.259  17.625   2.953  0.0020  0.2450  0.1179
23617W        W40091   4.047   7.708   1.983  0.1709 -0.1529 -0.0276
23618W        W40092   1.780   5.227   1.077  0.0019  0.0628  0.0569
23619W        W40093  15.123  12.318  11.140 -0.1650  0.1077 -0.0825
23620W        W40094  17.420  12.153  16.785 -0.1800  0.0983 -0.0461
23621W        W40095   4.886   6.644   0.513  0.0360  0.2436  0.1452
23622W        W40096   3.599   8.518   0.122 -0.2565  0.1701  0.4168
23623W        W40097  15.506  17.895  16.561 -0.1440 -0.0845 -0.0248
23624W        W40098   6.783  11.976   0.072  0.0325  0.2084  0.1210
23625W        W40099  14.681  13.848  14.568 -0.0590  0.3279 -0.1322
23626W        W40100  16.058  13.768   4.832  0.0929  0.1537  0.0948
23627W        W40101   4.825   2.187  13.520 -0.0293 -0.0369 -0.2016
23628W        W40102   0.041  12.920   1.138  0.2149  0.2579  0.0701
23629W        W40103   8.673  13.603   4.320  0.1779 -0.2855 -0.0344
23630W        W40104  16.835  10.192  13.860  0.1900  0.0090  0.2542
23631W        W40105  15.793   1.365   2.938 -0.2523 -0.2531  0.0424
23632W        W40106  11.448   7.463   2.139  0.0770  0.0807  0.3696
23633W        W40107   0.817   5.662  11.602  0.0883  0.0698  0.0377
23634W        W40108   4.073   0.100   1.928  0.1360  0.3256 -0.0010
23635W        W40109  14.626  12.707  15.905  0.2632  0.0661  0.1256
23636W        W40110  11.126  13.769  14.711  0.1993 -0.0423 -0.0713
23637W        W40111  17.282   4.381   1.655  0.0888 -0.0788 -0.1694
23638W        W40112   8.691  11.561  13.719 -0.1195 -0.1008  0.2921
23639W        W40113   4.760   6.741  15.992  0.0240 -0.1926  0.1643
23640W        W40114   3.244   3.344  14.729 -0.0778  0.0727  0.0736
23641W        W40115   8.609   3.124   3.732 -0.1636 -0.3300 -0.0883
23642W        W40116   4.258   6.972   1.963  0.0875 -0.0093  0.0422
23643W        W40117  17.536  11.927  11.152 -0.0511  0.1197 -0.0163
23644W        W40118   3.403   6.882   5.892  0.0504 -0.0196  0.1151
23645W        W40119   9.906   6.218   3.212 -0.4269 -0.0574 -0.1539
23646W        W40120  15.642  11.838   4.305  0.0419  0.1679  0.1640
23647W        W40121  16.381   6.569  14.561  0.2606 -0.2032 -0.1605
23648W        W40122   7.921   4.111   3.354 -0.0286 -0.1547  0.1650
23649W        W40123  13.606  14.350  15.139  0.2079  0.3289 -0.1451
23650W        W40124  16.237   0.144   2.076  0.0675 -0.0772 -0.1989
23651W        W40125   0.730   7.169  14.940 -0.2796  0.0482 -0.2231
23652W        W40126  16.808  11.022   4.026 -0.0035  0.1919  0.1320
23653W        W40127  13.253  15.676  12.438 -0.0824  0.4195  0.1045
23654W        W40128  17.594   2.973  12.401 -0.2847  0.3464  0.0797
23655W        W40129  15.991   2.800   1.778 -0.0213 -0.1743  0.4414
23656W        W40130   6.877   3.379  16.369 -0.3423 -0.1351  0.3034
23657W        W40131   8.084   5.469   3.746 -0.0332 -0.4110  0.0241
23658W        W40132   5.774   0.836  13.113 -0.1379  0.2706 -0.3064
23659W        W40133  14.511  17.343  14.154 -0.0476 -0.0515 -0.3271
23660W        W40134   4.804   6.603  12.305  0.4399  0.2398  0.2285
23661W        W40135   0.429   5.357   1.430  0.0623  0.0960 -0.1664
23662W        W40136  15.322  16.867  13.167  0.0898  0.2308 -0.0817
23663W        W40137   0.874   9.348  12.465 -0.2976 -0.1801  0.0212
23664W        W40138  12.366   8.516  12.306  0.2852  0.1782  0.0869
23665W        W40139   2.162  13.771  15.887 -0.0954 -0.3976 -0.0304
23666W        W40140  11.616   5.244  14.603 -0.0764 -0.0273 -0.2705
23667W        W40141   2.955  12.312  10.185  0.0587 -0.0656 -0.0555
23668W        W40142   5.090   8.902  15.441  0.0494  0.0194 -0.0414
23669W        W40143   8.775  17.614   3.467 -0.0089  0.0650 -0.2816
23670W        W40144  13.205  12.568   3.629  0.0392 -0.1753  0.0897
23671W        W40145   6.280  14.053  12.403 -0.1122 -0.0687 -0.1347
23672W        W40146  11.236  11.523   4.829  0.2120  0.1640 -0.1271
23673W        W40147  13.863  13.783   3.498  0.0018 -0.2158  0.3098
23674W        W40148   3.143  13.136  13.546 -0.1137 -0.1512  0.1335
23675W        W40149   1.403   5.394   1.370 -0.1464  0.0008 -0.2378
23676W        W40150  11.156   6.558   5.139  0.1454 -0.1659  0.0708
23677W        W40151   6.590   2.710   5.737  0.1104  0.0698  0.1017
23678W        W40152   0.619   0.250   5.107  0.0067  0.2576 -0.1446
23679W        W40153  16.876  11.240  16.148 -0.0009  0.0627 -0.3201
23680W        W40154   2.438  13.768   1.086 -0.0522 -0.1720  0.1111
23681W        W40155   8.329  16.983  12.369  0.0083  0.0756  0.0047
23682W        W40156   3.902   7.704  16.600 -0.1632  0.2314  0.0715
23683W        W40157  14.435   9.367   1.818 -0.0104  0.1624  0.0392
23684W        W40158  15.960   2.568   5.123 -0.0685 -0.0900 -0.2458
23685W        W40159   6.483   8.988  15.630 -0.0277  0.0316  0.1858
23686W        W40160   0.991  14.622   0.055 -0.1011  0.2114  0.2576
23687W        W40161  12.384   3.397   1.223 -0.3515  0.1277  0.1117
23688W        W40162  14.410   4.455  12.773  0.0977 -0.2769  0.0491
23689W        W40163   0.234   7.985   0.803 -0.2260 -0.0362 -0.1185
23690W        W40164  12.200   5.613  12.293  0.0592 -0.1862 -0.0269
23691W        W40165   2.616   4.270   0.480 -0.1627  0.3890 -0.1482
23692W        W40166   8.805   6.824  14.006  0.4394  0.0759  0.0249
23693W        W40167   9.776   9.493  13.318 -0.0205  0.0151  0.0259
23694W        W40168   3.609   4.988   3.376 -0.0182  0.0911 -0.1606
23695W        W40169   0.724   3.398   3.182 -0.1767  0.0799  0.1775
23696W        W40170   0.998   7.036  15.829  0.0040  0.0643  0.1231
23697W        W40171   2.240   1.328  12.800 -0.0308 -0.2854 -0.0288
23698W        W40172  10.519   6.457  13.841  0.0222 -0.4180  0.0396
23699W        W40173   9.615  17.994  16.156 -0.1514  0.1779 -0.0876
23700W        W40174   1.461   3.551   1.670 -0.3047  0.1382  0.1439
23701W        W40175   0.616  15.684  13.662 -0.2784  0.0282  0.0534
23702W        W40176   9.695   7.019   2.963  0.2445 -0.1136 -0.1213
23703W        W40177  13.604  14.174   4.883 -0.0710  0.2306 -0.0685
23704W        W40178  17.123   4.776   2.363  0.3166 -0.0975  0.0936
23705W        W40179   9.266  12.128  11.640 -0.1163  0.0846  0.0844
23706W        W40180   9.892  13.784   0.185 -0.0424  0.2287  0.1422
23707W        W40181  15.478  13.670  11.660 -0.0098 -0.0141 -0.3468
23708W        W40182   7.071   9.520   0.160 -0.0225  0.2161  0.2409
23709W        W40183  12.014   4.752  13.802 -0.1914 -0.0374  0.1099
23710W        W40184  15.341   7.391   1.883 -0.0414 -0.3596 -0.1998
23711W        W40185   1.278  17.880   6.093  0.0085  0.1557 -0.0618
23712W        W40186   4.428   2.214  13.961  0.3828  0.2239  0.0010
23713W        W40187  11.765   1.349  12.868  0.3938  0.2417 -0.0034
23714W        W40188  10.895  16.022   1.291  0.1432 -0.1076  0.1556
23715W        W40189   5.585   6.584  12.711  0.3582  0.1897  0.1519
23716W        W40190  10.369  10.293   2.711  0.1217  0.0218  0.1893
23717W        W40191  17.559  12.611  15.652  0.0067  0.0300  0.1622
23718W        W40192   7.944   9.085   2.444 -0.2628 -0.2210  0.1012
23719W        W40193   9.736   0.566  14.424  0.1400  0.0999 -0.0453
23720W        W40194  17.408   6.607  14.402  0.4121 -0.1530 -0.1274
23721W        W40195   8.355  16.263   2.789  0.0234  0.0419 -0.1056
23722W        W40196   3.012  15.697   1.397  0.0395  0.5995  0.2671
23723W        W40197   0.302   6.827   1.762 -0.0845 -0.0909  0.0249
23724W        W40198   3.855  10.803   4.029 -0.1234 -0.2195 -0.2098
23725W        W40199  15.975   7.448   1.232  0.1349 -0.1920 -0.1493
23726W        W40200   8.571  13.853  11.650  0.0000 -0.0030 -0.3823
23727W        W40201  15.230  14.326   5.113 -0.0563 -0.0569  0.1630
23728W        W40202  10.987   0.399   3.000  0.1805 -0.4923 -0.1013
23729W        W40203  13.584  17.841  14.487 -0.2464  0.0088  0.2841
23730W        W40204   8.291  14.753  14.857  0.2522  0.6064 -0.0300
23731W        W40205   6.265  10.930   5.557  0.0688  0.0319 -0.0274
23732W        W40206   5.349   9.244   1.411  0.3560  0.0196  0.0931
23733W        W40207   7.979  11.362  12.454 -0.2094 -0.0823  0.1319
23734W        W40208  15.865   8.664   5.222  0.0321  0.0161 -0.3780
23735W        W40209   5.337  12.577   4.791  0.1375  0.0692  0.0742
23736W        W40210   4.222  14.570  12.074 -0.1476 -0.2122 -0.0916
23737W        W40211  14.165  12.151   4.151  0.2060  0.0071  0.1087
23738W        W40212   1.291   9.583   2.685 -0.3691  0.5771  0.2368
23739W        W40213  17.064   5.955  16.415 -0.0241 -0.0402  0.0661
23740W        W40214   4.425   8.905  13.685  0.1515  0.0534  0.0805
23741W        W40215   4.624  17.649   2.491  0.0974  0.0277 -0.1567
23742W        W40216  13.838  11.138  16.511 -0.0735  0.1103 -0.2036
23743W        W40217   5.432  11.509  16.180 -0.1807 -0.0154  0.1803
23744W        W40218  15.399   1.117  14.582 -0.0869  0.0145 -0.2597
23745W        W40219   2.681   0.222   6.006 -0.0635  0.0508  0.1755
23746W        W40220  17.205  16.660   3.485 -0.0697 -0.0941  0.0891
23747W        W40221   8.749  17.585  15.959  0.2541 -0.0201  0.2051
23748W        W40222  11.586   6.127  12.108  0.4048 -0.2994  0.1520
23749W        W40223  12.277  13.693   0.905 -0.3778 -0.0642 -0.1679
23750W        W40224   8.118   8.101   4.517 -0.0132  0.1335 -0.0644
23751W        W40225   2.135   5.592   4.209  0.1431  0.0363 -0.1470
23752W        W40226  16.169  11.177  12.840  0.1459  0.3560  0.1725
23753W        W40227  15.079  11.974   1.793 -0.1250 -0.3156 -0.1523
23754W        W40228   5.373  14.850  11.788  0.2589  0.0886 -0.4899
23755W        W40229  11.415  15.451   1.361 -0.0796 -0.0388 -0.0939
23756W        W40230   4.057  10.696   2.926 -0.2613 -0.1061  0.0030
23757W        W40231  12.071   1.080  14.978 -0.4879  0.3258  0.0178
23758W        W40232   3.264   3.322   3.145 -0.1482  0.0146 -0.2575
23759W        W40233   5.291   3.224   2.305  0.2634  0.0054 -0.2047
23760W        W40234  17.556   4.647  16.567  0.0631 -0.4363 -0.3662
23761W        W40235  16.743  10.799  11.117 -0.3415 -0.1579 -0.2713
23762W        W40236  12.199   7.379  15.440 -0.0994 -0.3592 -0.0819
23763W        W40237   8.677   9.734   0.108  0.2488 -0.1192  0.0562
23764W        W40238  12.337  14.200  11.451  0.0781  0.0546  0.0390
23765W        W40239  16.844  16.552   3.810 -0.0342  0.1185 -0.2657
23766W        W40240  12.264   0.134   5.793  0.0989 -0.0070 -0.0702
23767W        W40241  10.111  15.419  13.681  0.1103  0.2150  0.1237
23768W        W40242   7.278   4.088   1.587 -0.3683 -0.2301 -0.0640
23769W        W40243   9.203  10.446   1.365  0.0155 -0.1834  0.2034
23770W        W40244  15.804  14.056  15.279 -0.0512 -0.2651  0.0961
23771W        W40245   6.984  16.320   0.868  0.0163 -0.0555 -0.1162
23772W        W40246  12.358   6.303  14.511  0.1615 -0.1531 -0.2058
23773W        W40247   1.172   5.407   1.871 -0.2244 -0.1624  0.1313
23774W        W40248   6.784  10.135  12.413  0.1137 -0.0090 -0.2799
23775W        W40249   4.887  10.135   4.597 -0.2916  0.1366 -0.0640
23776W        W40250  10.733   0.105   2.681 -0.0645  0.2102 -0.2908
23777W        W40251   1.690  16.008  15.405 -0.2620  0.1212 -0.0837
23778W        W40252  12.969   9.905  13.157  0.0075  0.3284 -0.2832
23779W        W40253  16.902   9.523  12.068 -0.0704 -0.0319  0.0701
23780W        W40254   2.029   8.710   0.623  0.0356  0.0408 -0.0402
23781W        W40255   6.661  16.211  14.406 -0.1227 -0.0146  0.1199
23782W        W40256  15.150   6.876  13.533  0.1368  0.1652  0.0401
23783W        W40257  17.848  12.950  15.354  0.1462  0.0252  0.1698
23784W        W40258   4.667   4.195  14.489  0.0199  0.2665 -0.0307
23785W        W40259   9.880  15.238  16.038  0.1768 -0.1298  0.0694
23786W        W40260   9.958   2.955  15.891 -0.2918 -0.1267 -0.2006
23787W        W40261  10.055   8.163   5.077 -0.1059  0.0605  0.0585
23788W        W40262   2.557   2.469   2.058 -0.2801 -0.1300  0.0056
23789W        W40263   0.538  16.454  15.605  0.0775  0.0336  0.0082
23790W        W40264  15.904   9.321   2.139  0.2064 -0.2459  0.0878
23791W        W40265  16.391  15.082  13.500  0.2457 -0.2294 -0.0240
23792W        W40266   7.813   8.571   1.654 -0.1489  0.2010 -0.2456
23793W        W40267   0.342   6.660   0.744 -0.2778 -0.0854 -0.0968
23794W        W40268   3.661  13.320  13.804  0.1051 -0.0724 -0.1432
23795W        W40269   1.713  15.667   4.849  0.2133 -0.1029 -0.2794
23796W        W40270  10.106   4.826   2.782  0.0832  0.0961  0.2648
23797W        W40271   1.628   6.026   1.720  0.0372 -0.0110 -0.1144
23798W        W40272  14.105   6.909   2.765  0.2193  0.0683 -0.0503
23799W        W40273  15.995   5.137   1.998 -0.1037 -0.2058  0.2560
23800W        W40274   3.036   9.453  11.505 -0.2285 -0.1650  0.4843
23801W        W40275  11.964  14.154  13.182 -0.1850  0.2581  0.1048
23802W        W40276   1.819   7.716   3.354  0.0931  0.1550  0.0411
23803W        W40277   0.169  13.052   4.099 -0.2118 -0.1540 -0.2461
23804W        W40278  16.428  12.814   6.144  0.2372  0.3235 -0.3070
23805W        W40279   4.031  11.465   0.493  0.0173 -0.3157 -0.1009
23806W        W40280  11.047   4.094  15.052  0.4305 -0.2160 -0.0771
23807W        W40281   3.833   2.077  12.979  0.0022  0.2450 -0.1238
23808W        W40282  17.538  15.302  13.900  0.0674 -0.0047  0.2390
23809W        W40283   1.020   1.538  15.955  0.0004  0.0448 -0.0311
23810W        W40284   3.182  13.079   1.771 -0.0748  0.0362 -0.0321
23811W        W40285   7.742   5.028   2.064 -0.2838 -0.1576  0.0087
23812W        W40286   7.214   0.702  14.734 -0.0325  0.0793  0.0272
23813W        W40287   6.142   8.632  11.792 -0.1021  0.1609  0.0647
23814W        W40288   6.716  14.261   4.556 -0.2996  0.0652 -0.0137
23815W        W40289   7.626   3.873   2.823 -0.1381 -0.1569 -0.2418
23816W        W40290   3.623   1.462   4.748  0.2310  0.0112 -0.1780
23817W        W40291  16.971  16.216  15.149 -0.1164 -0.2559 -0.2515
23818W        W40292   5.470   8.788  11.404 -0.0546 -0.4146 -0.1809
23819W        W40293  16.595   7.979  16.417 -0.0867 -0.0966  0.0959
23820W        W40294  15.887   7.304  11.876  0.2609 -0.0352  0.0739
23821W        W40295  16.789  16.181   1.107 -0.3460  0.1143  0.0983
23822W        W40296  10.343   3.373   3.148 -0.1033 -0.1068 -0.0101
23823W        W40297   9.858  13.697  14.271 -0.2612 -0.1475 -0.1450
23824W        W40298   5.736  10.534  11.808  0.2671  0.1436 -0.0542
23825W        W40299  13.259   1.240   5.519 -0.1641  0.0255 -0.1904
23826W        W40300   6.101   9.402  13.261  0.1130 -0.0929 -0.0091
23827W        W40301  11.341  12.272  15.179 -0.0793 -0.1332 -0.4312
23828W        W40302  17.099   4.873   3.938  0.1708 -0.1370  0.1610
23829W        W40303  17.952  10.555  16.235 -0.1499 -0.0681  0.4117
23830W        W40304   1.282  15.302   5.063 -0.1088 -0.0209 -0.2554
23831W        W40305   8.775   9.205  14.703  0.0829  0.0724  0.1620
23832W        W40306   9.493   8.595   3.869  0.0812 -0.0475  0.2552
23833W        W40307  16.847   8.945  14.873  0.1373  0.0761  0.3545
23834W        W40308  10.762   5.198  14.881 -0.3496 -0.2268  0.0947
23835W        W40309  15.905  14.415  11.490  0.0160 -0.0858  0.1451
23836W        W40310   9.647   5.954  14.121 -0.1341 -0.3384  0.2880
23837W        W40311   5.232   9.052   0.086 -0.0135  0.0893 -0.0952
23838W        W40312   7.422   8.107  15.575 -0.0239 -0.1247 -0.1401
23839W        W40313   8.815  15.198  12.885  0.1091  0.5668 -0.1021
23840W        W40314   5.633   6.540   2.431 -0.0593  0.2857 -0.0261
23841W        W40315   5.523   8.234  14.249  0.3416  0.0574  0.1981
23842W        W40316   2.659  12.727  14.789  0.1424 -0.0494 -0.2719
23843W        W40317  13.829  14.308   4.099 -0.2958 -0.2346 -0.0510
23844W        W40318   7.786  13.419  15.018  0.2665 -0.0490 -0.4415
23845W        W40319  11.648  14.797   1.057  0.3118 -0.0572 -0.3150
23846W        W40320   0.385  11.109  11.887 -0.0493  0.1537  0.1912
23847W        W40321   4.087   7.066   0.804 -0.1387 -0.2519  0.0834
23848W        W40322   9.336   2.577  16.212  0.1655 -0.5305  0.1845
23849W        W40323   8.879   1.317   3.298  0.2096 -0.1500 -0.1299
23850W        W40324   7.773  15.551   5.350 -0.1004  0.0747  0.0353
23851W        W40325  14.707   3.533  13.303  0.3233  0.5324  0.1618
23852W        W40326   3.031  17.622  12.034 -0.2069  0.1220 -0.0756
23853W        W40327  16.994   2.421   5.766  0.0287  0.1485  0.0950
23854W        W40328   4.625   1.744   4.353 -0.1751 -0.1061 -0.0017
23855W        W40329  10.547   1.670   3.280 -0.0682  0.2892  0.0056
23856W        W40330   3.536  14.630   0.592 -0.1889  0.1256 -0.2775
23857W        W40331   5.161  10.236  14.631 -0.0074 -0.2957  0.1284
23858W        W40332   4.233  17.673   1.678 -0.0977  0.0816 -0.0149
23859W        W40333  13.128   1.235   1.792 -0.0779  0.0337  0.1433
23860W        W40334  12.335   9.244  14.723  0.1169  0.0361  0.1009
23861W        W40335  11.855  11.717   3.872  0.1753 -0.0240  0.0387
23862W        W40336  11.526   3.635  15.983 -0.1169 -0.0379  0.1006
23863W        W40337   4.265   0.820  16.405 -0.0661 -0.0563  0.0694
23864W        W40338   1.394  11.004  15.220  0.0280 -0.0230  0.2668
23865W        W40339   5.907  14.831   2.481  0.0840 -0.0085 -0.2299
23866W        W40340   8.015   8.000  16.721  0.1224  0.0167  0.1059
23867W        W40341  11.174  11.417  13.170 -0.1321  0.3370  0.1726
23868W        W40342  14.953  16.479   4.354  0.0711 -0.2958  0.0764
23869W        W40343   9.183   1.365   1.505  0.2426  0.4918  0.0867
23870W        W40344  12.573   4.441  12.324 -0.0933  0.0081 -0.0541
23871W        W40345   0.076   7.744  16.041  0.2425 -0.0757 -0.2467
23872W        W40346   5.697  15.668   3.785  0.3346  0.1776  0.1508
23873W        W40347  17.069   0.689  12.246 -0.0197  0.0739 -0.0902
23874W        W40348   6.336  10.499   4.109  0.1158 -0.0984  0.1552
23875W        W40349   5.811  15.287   4.238 -0.0589 -0.1430  0.1822
23876W        W40350   9.989   5.797  15.593 -0.1824 -0.1350  0.3910
23877W        W40351  16.062  14.743  16.061 -0.0914 -0.1429  0.2623
23878W        W40352   5.427   1.290   1.300 -0.3832 -0.0795 -0.1380
23879W        W40353  15.016  16.049   5.688 -0.1587  0.0961  0.4141
23880W        W40354  12.682   7.108  11.884 -0.2002 -0.0591 -0.3301
23881W        W40355  12.600  12.628   2.859  0.1182  0.3204  0.2638
23882W        W40356  12.304  15.341  12.791 -0.1641 -0.1559  0.1919
23883W        W40357  14.987   0.330  16.202  0.0262  0.2127 -0.1171
23884W        W40358  14.931   8.443   0.875 -0.0402  0.1003 -0.1477
23885W        W40359   9.417  11.091  13.632  0.1885  0.0070  0.4458
23886W        W40360   3.416   4.785   4.346 -0.1797 -0.1108 -0.3729
23887W        W40361   5.830   1.556  16.328 -0.0533 -0.0895  0.3831
23888W        W40362  13.360   2.341   0.600 -0.2861 -0.0278 -0.1618
23889W        W40363   6.294   0.964   2.931 -0.0223 -0.1139 -0.0967
23890W        W40364  17.551  10.554  13.765  0.2625  0.1076  0.0508
23891W        W40365  16.997   6.509  16.269 -0.1355  0.0867  0.0888
23892W        W40366   3.118  13.015  12.588 -0.2441  0.2164  0.0217
23893W        W40367   7.221   5.800   4.824  0.4340  0.2117 -0.0649
23894W        W40368   5.649  14.620  13.040  0.0837  0.0903 -0.1010
23895W        W40369   3.622   5.969   6.140 -0.0867  0.2299 -0.1676
23896W        W40370   0.188   6.185  14.051 -0.0239 -0.0799  0.0462
23897W        W40371   7.343  17.839  11.975  0.1616  0.0421 -0.0967
23898W        W40372  10.304   4.873  12.022 -0.0710 -0.1320  0.2184
23899W        W40373   1.140  13.760   5.443  0.1081 -0.3668 -0.3427
23900W        W40374  10.708  10.032   1.279 -0.2845  0.2111 -0.1029
23901W        W40375   0.186   6.201  15.779  0.1445  0.0626  0.2901
23902W        W40376  11.775   1.121  16.282  0.0443 -0.1697  0.2067
23903W        W40377   5.000  10.700  15.452  0.0813  0.0726  0.0105
23904W        W40378   6.178  15.084   4.588 -0.1325 -0.0813  0.0388
23905W        W40379  12.241   3.924   2.185 -0.0219  0.2392  0.1939
23906W        W40380  14.415   6.737   1.701  0.2441 -0.2322  0.2352
23907W        W40381  10.891   3.192   4.807  0.2994 -0.1407 -0.3250
23908W        W40382  15.729  13.534  15.243  0.0425  0.2972  0.0286
23909W        W40383   5.356   6.593   0.391 -0.3019  0.0060 -0.2594
23910W        W40384   5.470  11.741  11.710  0.1247 -0.0147  0.0717
23911W        W40385   9.374  17.230   5.787  0.2235 -0.1508  0.0532
23912W        W40386   5.044   7.839   2.620 -0.0056 -0.0188  0.2813
23913W        W40387  16.280  12.177  12.110  0.1176  0.0310 -0.1424
23914W        W40388   7.332   1.451   4.895  0.0348  0.0624 -0.0368
23915W        W40389   9.743   9.721   2.024  0.2912 -0.0972  0.1844
23916W        W40390  10.309   9.206  13.426  0.0369 -0.0669  0.0992
23917W        W40391  12.669   6.635  12.015  0.4150 -0.2635  0.2264
23918W        W40392   2.444   1.378  11.662 -0.1534  0.1750 -0.0754
23919W        W40393  16.859   7.804  15.958  0.0711  0.3576  0.1413
23920W        W40394   8.278  14.950  14.442 -0.3016 -0.1378  0.3785
23921W        W40395  12.162  11.971  15.744  0.2636 -0.0867  0.2268
23922W        W40396  14.090   7.447   4.369 -0.0665  0.0393  0.3532
23923W        W40397   3.758   0.584   2.139  0.0626 -0.1484  0.1441
23924W        W40398  14.748  17.182   0.476  0.2523 -0.1108  0.1646
23925W        W40399  12.643   5.644  16.762 -0.2506  0.2406 -0.2298
23926W        W40400   1.124  12.145   1.121  0.1911  0.0334 -0.0418
23927W        W40401   9.007   8.082   0.701  0.0052 -0.0464  0.0643
23928W        W40402  12.972   9.236  13.748  0.5007 -0.0237  0.1329
23929W        W40403  11.274  10.647  16.331  0.1761 -0.1207  0.1470
23930W        W40404   9.006  14.252   4.632 -0.0608 -0.0695 -0.0829
23931W        W40405  17.909  16.400   3.024  0.0449 -0.3588  0.0783
23932W        W40406   4.997  10.929   3.384  0.3717 -0.0240  0.2966
23933W        W40407   1.749   0.810  14.369 -0.2471 -0.0114  0.1742
23934W        W40408   9.793   9.242   5.809 -0.1197 -0.1388 -0.5476
23935W        W40409   0.277   7.515   3.811 -0.0097  0.0843  0.0699
23936W        W40410   8.696   3.699  12.379  0.0023 -0.3532  0.0581
23937W        W40411  12.918   2.249   5.358  0.2910  0.4842 -0.0091
23938W        W40412   1.932   8.762  15.987 -0.0161  0.0073  0.0395
23939W        W40413  12.189   6.654   6.348  0.1907 -0.1641  0.1718
23940W        W40414  10.068   0.834  16.223  0.2196  0.2764  0.0505
23941W        W40415  16.234   3.146   4.744 -0.0804  0.0798  0.0284
23942W        W40416   1.861   2.292   2.486 -0.0033 -0.2841 -0.0786
23943W        W40417   3.483   1.697   1.272 -0.0848 -0.1316  0.0195
23944W        W40418  11.112   3.193   2.648 -0.0824  0.2667  0.2162
23945W        W40419  17.764  10.243  14.915  0.0029 -0.2195  0.2446
23946W        W40420  10.075   2.660   2.356  0.1431 -0.2509  0.1438
23947W        W40421  17.429  15.810  16.696  0.2542  0.1565  0.0421
23948W        W40422  10.575   5.697  15.559 -0.1307  0.0781 -0.0164
23949W        W40423   8.979   0.347   4.510 -0.0644  0.0866  0.0423
23950W        W40424   9.978   0.615   2.665  0.0463  0.1110 -0.2115
23951W        W40425  15.291   0.480  12.029  0.1066  0.0309 -0.0236
23952W        W40426   1.142   5.305  14.965  0.1113 -0.1682 -0.1440
23953W        W40427  10.272  14.190   4.104  0.0681 -0.0831  0.1900
23954W        W40428   8.388  17.645  13.358  0.0587 -0.0064 -0.3565
23955W        W40429  12.456   4.045   3.179  0.4539 -0.0389  0.0082
23956W        W40430   9.325   9.059  15.387 -0.1512 -0.3073  0.1372
23957W        W40431  15.680   6.797   0.683  0.0215 -0.0781 -0.1175
23958W        W40432   4.275  14.144   1.518 -0.1499 -0.2050  0.2100
23959W        W40433   0.543   0.691   1.421  0.2256 -0.1715 -0.0759
23960W        W40434   3.683   8.929   1.005 -0.1817  0.2911 -0.0768
23961W        W40435  16.984  14.432   0.377 -0.3503 -0.0621 -0.0285
23962W        W40436  12.072   2.403   3.589 -0.0524  0.0895  0.0396
23963W        W40437   1.253  15.132  14.024  0.0899  0.3934  0.1101
23964W        W40438  17.530   3.111  16.046  0.3593  0.1037 -0.1164
23965W        W40439   1.015   2.692   3.107  0.0583  0.0660  0.4566
23966W        W40440  15.931   6.672  12.835  0.0748 -0.2660 -0.0937
23967W        W40441   0.895  11.718   0.275 -0.0791  0.2354  0.2884
23968W        W40442  10.992   0.728   3.589 -0.3946 -0.0928  0.0416
23969W        W40443   5.173  16.031  14.132 -0.2293 -0.2774 -0.0052
23970W        W40444   2.357   5.779   2.180  0.0124 -0.0831 -0.1094
23971W        W40445   4.419   7.384   1.723  0.0449  0.1379  0.0149
23972W        W40446   7.531  14.375   3.017  0.3163  0.2592  0.1023
23973W        W40447  17.547   3.303   4.266 -0.0869 -0.1078 -0.1038
23974W        W40448  10.995  17.347  13.686 -0.0212 -0.0919  0.2439
23975W        W40449   7.572  17.155  13.704 -0.0370 -0.1767 -0.3537
23976W        W40450   3.544   1.811  12.066  0.2381  0.1288  0.1403
23977W        W40451   0.771   8.036  11.837 -0.1826 -0.1031  0.4348
23978W        W40452   0.918   5.699   6.289 -0.1021 -0.0422 -0.0753
23979W        W40453   4.712   8.944  15.061  0.2986 -0.1174  0.0299
23980W        W40454  14.152   5.604   2.195  0.0237 -0.2672  0.0064
23981W        W40455   6.744   2.955   4.079  0.1079 -0.0183  0.0760
23982W        W40456  16.482   4.227   4.014  0.1541  0.1150 -0.2044
23983W        W40457   2.938  14.053  16.347  0.3225 -0.0169  0.1248
23984W        W40458  10.844  11.937   4.437  0.0152  0.1713  0.2644
23985W        W40459  14.947   7.030  14.749 -0.1410  0.0385  0.1539
23986W        W40460   8.901   8.815   0.300 -0.3785 -0.0657  0.0666
23987W        W40461  14.353  14.207  15.442 -0.0184 -0.1042  0.2404
23988W        W40462  13.295  15.060  16.309 -0.0368 -0.0796  0.2326
23989W        W40463   0.579   9.158   0.836  0.1060 -0.2797  0.1459
23990W        W40464   0.929  12.984  10.622 -0.1328 -0.0203  0.2912
23991W        W40465   3.710  17.047  14.722 -0.0525  0.0991 -0.0238
23992W        W40466  13.969   4.441   3.112 -0.1656 -0.2712 -0.3871
23993W        W40467   2.728  15.928   3.247  0.1323 -0.2035  0.1818
23994W        W40468  13.151   1.920   0.327 -0.0370  0.2246 -0.1593
23995W        W40469   8.151  17.996   4.997  0.1607 -0.0119 -0.0216
23996W        W40470  11.964   5.224   2.460 -0.1903  0.1841  0.1308
23997W        W40471   1.915  17.448   3.763  0.1411  0.2487  0.1978
23998W        W40472   8.406   9.149  15.388 -0.0525 -0.2100  0.4950
23999W        W40473  14.568   9.739  13.843  0.0498 -0.1287 -0.2956
24000W        W40474   5.757   3.467   0.457  0.3678  0.0100  0.0838
24001W        W40475  10.189  13.257   1.061  0.1853  0.2262 -0.3597
24002W        W40476   0.456   4.363   5.256  0.4217 -0.2005  0.0037
24003W        W40477   2.543   3.135   0.363 -0.1177  0.1537 -0.3628
24004W        W40478  15.001   9.055   0.589 -0.1693  0.0225  0.2088
24005W        W40479   9.991  14.737   1.645  0.0127 -0.2381 -0.1969
24006W        W40480  15.932   2.080  11.556 -0.3961  0.2613 -0.2627
24007W        W40481   0.688   5.573  14.300  0.0735  0.0174  0.1929
24008W        W40482  14.726   1.284   2.828 -0.1857  0.3970 -0.3024
24009W        W40483  17.395   2.598  11.960 -0.0413  0.2884 -0.1400
24010W        W40484  16.332  15.824   2.843 -0.0964  0.0082  0.2646
24011W        W40485   5.483   3.296   4.842 -0.0852  0.0823  0.0235
24012W        W40486   7.428  14.845   4.374  0.0210 -0.0520 -0.1960
24013W        W40487  17.889   8.544  13.404  0.2098  0.1091  0.0833
24014W        W40488   6.574   2.910  15.161 -0.1285  0.0162 -0.0659
24015W        W40489  12.045  13.789   3.107  0.3221 -0.0873  0.0512
24016W        W40490  16.163   4.496   5.885  0.0318 -0.2400 -0.1831
24017W        W40491   5.115   4.825   6.136  0.1652  0.0923 -0.2370
24018W        W40492  12.583  12.769   1.179  0.2220  0.2028 -0.0658
24019W        W40493  11.686   1.840  16.691  0.2318 -0.0975 -0.1354
24020W        W40494   3.064   0.183   1.612 -0.0444 -0.1002 -0.1966
24021W        W40495   1.145  14.976   3.358 -0.1009  0.0446 -0.2111
24022W        W40496   5.953   5.313   2.505 -0.0435 -0.2417  0.0306
24023W        W40497   6.247   0.590  13.064  0.0617  0.0498  0.1544
24024W        W40498   3.594   2.533   4.363 -0.1062 -0.0721  0.0221
24025W        W40499   2.011  17.401   5.218  0.0075  0.0639  0.2680
24026W        W40500   3.691   1.928  15.926  0.1404  0.0656  0.3133
24027W        W40501  15.179   7.052   0.815  0.3575  0.1491 -0.1236
24028W        W40502   9.800   6.786  14.509  0.1217 -0.0640  0.0316
24029W        W40503  13.774   6.008   1.307  0.2326 -0.1302 -0.0020
24030W        W40504   0.682   8.045  12.358  0.1629  0.2882 -0.3088
24031W        W40505  14.925   3.118   0.358  0.0164  0.0368 -0.1572
24032W        W40506   1.449  11.125   4.703 -0.1627  0.0576  0.3336
24033W        W40507   2.641   4.762   1.099  0.0485  0.0616  0.0854
24034W        W40508   7.266   4.629  15.084 -0.5673  0.1917  0.1220
24035W        W40509   9.065   6.151  11.851  0.1072 -0.0680 -0.0171
24036W        W40510   3.303  13.120   4.197  0.2510  0.1795  0.0641
24037W        W40511   2.463  15.220   2.651  0.0311 -0.0945  0.0005
24038W        W40512   4.889  14.488  15.275 -0.1614 -0.0877  0.1931
24039W        W40513   8.354   7.099   1.298 -0.0443 -0.1226 -0.1254
24040W        W40514  12.018  10.433   1.141 -0.0795  0.3541  0.0393
24041W        W40515   0.619  12.466  13.440 -0.2717  0.0918  0.0959
24042W        W40516  13.931  17.097   1.676  0.0657  0.0174 -0.3164
24043W        W40517   5.236  14.189   5.450  0.1110  0.0399  0.0211
24044W        W40518  17.492  11.202   2.465 -0.3084 -0.3209 -0.0085
24045W        W40519   6.319   2.847   1.445 -0.0985  0.2193 -0.0639
24046W        W40520  11.851   9.549  13.265  0.1390 -0.0884  0.2532
24047W        W40521  11.174  12.349   1.914 -0.2663  0.0089  0.4411
24048W        W40522  15.231  11.548  13.006 -0.0199  0.0975 -0.0289
24049W        W40523  14.434   5.060  14.645  0.0733 -0.1166  0.0678
24050W        W40524  10.242  16.267   0.649  0.4648  0.1017  0.0742
24051W        W40525   4.794   4.950  16.288  0.0705 -0.0649 -0.0954
24052W        W40526   1.623  11.969   4.829  0.0662 -0.3594  0.1895
24053W        W40527  16.650   2.396  14.323 -0.1429  0.3948  0.0400
24054W        W40528   9.968  17.257  15.636  0.1237 -0.2039  0.0177
24055W        W40529   1.541   9.829   4.521 -0.0241  0.0444  0.2713
24056W        W40530   0.999  13.755   3.146  0.1375  0.3576  0.0544
24057W        W40531   5.327   5.734   0.422  0.1416  0.2654  0.1627
24058W        W40532  16.100  10.469  11.573 -0.0566 -0.1969  0.2482
24059W        W40533   3.225   2.163  13.334 -0.0787 -0.0997 -0.2743
24060W        W40534  13.852   0.525  13.816 -0.1020  0.2855  0.1849
24061W        W40535  11.002  10.388  12.106 -0.3048  0.1101 -0.1725
24062W        W40536   8.276  17.663  15.005 -0.2695 -0.1359  0.0822
24063W        W40537  12.513   7.162  14.656 -0.0454 -0.1600  0.1979
24064W        W40538   9.165   1.280  13.097 -0.0330 -0.1465 -0.0615
24065W        W40539  11.542   2.887   5.288  0.0827 -0.1549  0.0607
24066W        W40540   8.444  15.863  14.595  0.1655  0.2804 -0.0799
24067W        W40541   5.585  11.889  15.820  0.1066 -0.0495  0.1044
24068W        W40542   3.538  14.927   3.866  0.1050  0.2062  0.2020
24069W        W40543   7.538  10.285   1.921  0.1289  0.1978  0.1140
24070W        W40544   7.397  17.448  14.075  0.5624  0.1070  0.0983
24071W        W40545   9.133  16.939  16.456 -0.0005  0.0521 -0.0393
24072W        W40546   6.234  10.168   0.249 -0.1879  0.0326 -0.0736
24073W        W40547   9.423   4.791  12.576  0.0127  0.0905  0.1869
24074W        W40548   7.110  16.004  13.559  0.2506 -0.2834 -0.0475
24075W        W40549   7.530  12.358  12.210  0.1414 -0.1502 -0.0354
24076W        W40550  11.342  16.914  12.956 -0.1991  0.1252 -0.1431
24077W        W40551  17.836  10.020   0.887  0.2646  0.0848 -0.2715
24078W        W40552   1.683   2.182  15.756  0.2076 -0.0761 -0.1172
24079W        W40553   7.379   2.892  15.686  0.3508 -0.0294 -0.3383
24080W        W40554   1.349   3.543   4.422  0.0528  0.0529 -0.1930
24081W        W40555  10.755  10.525   1.874  0.0615  0.3329 -0.2178
24082W        W40556  11.284   2.838   4.834 -0.3104  0.1533 -0.0627
24083W        W40557   6.003   6.993  15.231 -0.1450 -0.1296  0.4285
24084W        W40558   1.986   1.427   4.765 -0.0208 -0.1441  0.0390
24085W        W40559  11.817   5.769   3.722  0.1009 -0.0757 -0.0162
24086W        W40560   9.754   4.892   4.385  0.2919 -0.1269  0.0584
24087W        W40561  13.842   7.350  11.782 -0.0303 -0.0124 -0.1539
24088W        W40562  14.649   0.998   1.736  0.0350 -0.1048 -0.0432
24089W        W40563   2.291  17.618   0.153 -0.1153 -0.2594  0.0516
24090W        W40564   6.005   2.455   3.111 -0.1738 -0.1226  0.0052
24091W        W40565  11.458   4.170   5.451  0.0042 -0.0062  0.0090
24092W        W40566  13.319  15.895  14.506 -0.0612  0.1169 -0.1055
24093W        W40567  15.446   8.721  16.508 -0.1219 -0.0760  0.1482
24094W        W40568  14.022   5.592  13.629  0.1670  0.3224 -0.1926
24095W        W40569   9.235   8.812  16.665  0.1236  0.1340 -0.1742
24096W        W40570   7.582   0.189  11.426 -0.0901 -0.0373  0.1206
24097W        W40571   2.845  17.187   1.841 -0.4126  0.1132 -0.0227
24098W        W40572   4.724  11.273  13.216  0.0483 -0.0244  0.0073
24099W        W40573  14.964   9.778   2.577  0.0097 -0.3465 -0.0779
24100W        W40574  12.201  13.361  12.562 -0.3034 -0.2025  0.2509
24101W        W40575   1.360   2.187   1.554  0.3052 -0.1342 -0.0885
24102W        W40576   6.149   6.678   1.655 -0.2754  0.0238  0.2470
24103W        W40577   9.656  17.377   5.363 -0.0546  0.1503  0.1315
24104W        W40578   5.781   3.815   5.570 -0.2628 -0.1376  0.1881
24105W        W40579   4.637   4.764  12.958 -0.1021  0.3073  0.0578
24106W        W40580  11.087  16.428   1.621 -0.0330  0.0418  0.2362
24107W        W40581   3.234   9.849  12.529 -0.1393 -0.1531  0.0460
24108W        W40582   4.811   4.842   0.391 -0.0046  0.1073  0.3963
24109W        W40583  12.959   5.612  14.069  0.1234  0.3740  0.2911
24110W        W40584   8.086  12.646   4.871  0.0786  0.0282  0.0815
24111W        W40585  15.489   0.329   0.646 -0.0897  0.2173 -0.1185
24112W        W40586   6.406  10.748   3.169  0.1384  0.4353 -0.1703
24113W        W40587  13.690   6.146   1.849  0.0164 -0.0568 -0.0492
24114W        W40588   0.865   2.314  15.760 -0.2354  0.4230 -0.2482
24115W        W40589  11.555   1.813   3.008  0.1206  0.0571 -0.0511
24116W        W40590   6.347  14.639  14.045 -0.0361  0.1720 -0.0075
24117W        W40591  12.456   3.884   1.058  0.0495 -0.0676  0.0309
24118W        W40592   2.600   7.598  13.724 -0.0112 -0.2885 -0.0509
24119W        W40593   8.152  17.844  13.770 -0.2794  0.2248  0.0472
24120W        W40594   4.235   4.041  13.452 -0.1966 -0.1148  0.0805
24121W        W40595  17.732  12.454   3.591 -0.1990  0.2244  0.2907
24122W        W40596   2.574   8.593  15.540  0.2066  0.0980 -0.0775
24123W        W40597   6.773  10.310   1.095 -0.1049  0.3398 -0.0397
24124W        W40598   4.274  15.724   0.096 -0.1073  0.0134  0.0073
24125W        W40599  12.817  16.664   3.325  0.1938 -0.0276 -0.0955
24126W        W40600  15.108   7.565  11.619  0.0707 -0.0302  0.4106
24127W        W40601  11.162  16.974   1.424  0.0192 -0.4570 -0.1831
24128W        W40602   0.717   7.500   6.182  0.0197  0.1317  0.2170
24129W        W40603  17.923  14.398   0.842 -0.2951  0.1189 -0.1504
24130W        W40604  15.078  16.345   1.339 -0.1055 -0.0470 -0.1978
24131W        W40605   3.170  14.670  15.858 -0.1814 -0.2236 -0.0539
24132W        W40606   7.848   8.060  15.919 -0.0900  0.0573 -0.2839
24133W        W40607  11.077  17.837  16.563 -0.1871  0.0711  0.1180
24134W        W40608  13.058  14.699   5.259  0.0995  0.1515 -0.0374
24135W        W40609   5.962   8.874  14.722 -0.0367  0.0829 -0.0938
24136W        W40610  10.154   3.312   1.329  0.2658 -0.1998  0.1948
24137W        W40611   2.510  13.259   5.251  0.0956  0.2855  0.1111
24138W        W40612   3.277  17.244  14.491 -0.1788 -0.0360  0.1463
24139W        W40613  14.940   9.174   3.752 -0.0218  0.1008  0.0990
24140W        W40614  10.690   1.023   0.308 -0.1344  0.3431  0.0184
24141W        W40615  10.016   7.198   3.301 -0.4006 -0.0490  0.2255
24142W        W40616  11.220  16.484  15.161 -0.0897  0.0741  0.0235
24143W        W40617  17.353   8.146  15.360  0.1848  0.0591 -0.3339
24144W        W40618  12.716  16.408  12.909  0.0411 -0.3024 -0.2958
24145W        W40619  17.488  13.596  14.801 -0.1283 -0.0675 -0.4229
24146W        W40620   3.373   7.209   1.750  0.1466 -0.3930 -0.1589
24147W        W40621  17.030   7.012   5.486 -0.0268  0.0363  0.0851
24148W        W40622   1.281  16.818  16.507 -0.0459  0.1093  0.0810
24149W        W40623  13.396   7.026   1.532 -0.2766  0.0186  0.1095
24150W        W40624   2.799  15.686   2.817  0.2036  0.0727 -0.1132
24151W        W40625  11.910   3.542   1.381  0.0172 -0.1025  0.0746
24152W        W40626  17.858  16.396   5.157  0.1195 -0.0639 -0.0552
24153W        W40627  10.915   1.366  11.484 -0.1125  0.1697  0.0804
24154W        W40628  16.127   3.626   4.744  0.0279  0.0192 -0.0550
24155W        W40629  16.406  14.254   0.374  0.3216  0.2221  0.1330
24156W        W40630  14.285   4.830  12.431  0.2002  0.2364 -0.1502
24157W        W40631   2.508  12.007   2.628 -0.3747  0.3491  0.0010
24158W        W40632   7.919  10.298   3.209  0.0128  0.0356  0.2311
24159W        W40633  17.278   8.629   4.695  0.0036  0.0060 -0.1600
24160W        W40634  15.484  12.823  16.105 -0.1356  0.0433 -0.0793
24161W        W40635   5.684  17.410   1.054 -0.0053 -0.0974  0.0747
24162W        W40636   3.128  15.244   4.276  0.1071 -0.2902  0.1909
24163W        W40637   4.661   7.545   2.738 -0.0057 -0.3172 -0.0776
24164W        W40638   5.728   0.311   1.284  0.1206  0.0035  0.1839
24165W        W40639   6.567  16.204  13.588  0.1457 -0.0184  0.0185
24166W        W40640  13.148   1.953  13.028  0.0360 -0.1086  0.0539
24167W        W40641  14.322   6.716  14.291  0.0614 -0.2182  0.0423
24168W        W40642   1.044   7.906  12.958  0.1480  0.0172 -0.0836
24169W        W40643   3.871   8.184  13.267 -0.1748 -0.2328  0.0178
24170W        W40644   2.728  11.141   3.225 -0.0835  0.0596  0.0883
24171W        W40645   0.814  17.652   2.369 -0.1370 -0.1816 -0.1651
24172W        W40646   8.790   3.270  14.282  0.3550 -0.0223  0.2960
24173W        W40647   2.517   0.853  13.983 -0.1239 -0.0158  0.0054
24174W        W40648  12.957  11.083   5.244  0.1443  0.0454 -0.1386
24175W        W40649  15.127   4.991   5.831  0.3274  0.0425  0.0985
24176W        W40650   0.287   2.052   4.168 -0.1357 -0.1733  0.3012
24177W        W40651   7.284  11.878   0.031  0.1457 -0.1746 -0.3953
24178W        W40652   2.459  10.931  13.484  0.1102 -0.1069  0.2131
24179W        W40653   0.018   1.293   1.365 -0.1670 -0.1921  0.2035
24180W        W40654   8.438  14.862   4.315  0.0675  0.2098 -0.1818
24181W        W40655  16.421  17.239   5.827  0.1167  0.0041  0.1909
24182W        W40656   6.200  16.468  11.644 -0.2618 -0.4183 -0.3415
24183W        W40657  11.587  12.461   1.647  0.1668  0.0126 -0.0316
24184W        W40658   5.483  12.288   3.818 -0.2271  0.2563  0.1106
24185W        W40659  15.998  16.267   5.154  0.2147  0.3439  0.3182
24186W        W40660  17.519   6.268   5.204  0.0083 -0.3301 -0.0923
24187W        W40661   5.254  15.215   1.173 -0.0163 -0.2914  0.0841
24188W        W40662   4.035  16.866  14.303 -0.1087 -0.0527  0.1374
24189W        W40663   2.454   7.139  14.462  0.0343  0.1993 -0.1129
24190W        W40664   6.246   4.133   0.675  0.1710 -0.0597  0.1666
24191W        W40665   4.371  11.498  16.373 -0.1422  0.0358 -0.3025
24192W        W40666  13.121   0.943   5.061  0.0635 -0.1598  0.1076
24193W        W40667  15.257  12.843  12.348  0.0928  0.0918 -0.1296
24194W        W40668   5.711  13.019  15.251  0.0131 -0.2301 -0.1650
24195W        W40669   5.871   0.711  12.603 -0.2252  0.3068 -0.1253
24196W        W40670   8.807   5.497   2.058  0.0651 -0.1084 -0.0472
24197W        W40671   2.331  12.658   3.280 -0.1533  0.0140  0.1732
24198W        W40672   2.235  17.301  13.635  0.2986 -0.0908 -0.0163
24199W        W40673   2.003   1.652   1.111  0.1783  0.0743  0.1039
24200W        W40674   8.278   8.673   2.536  0.3265 -0.1588 -0.4534
24201W        W40675  15.040   9.547  16.345  0.2515  0.0609 -0.1498
24202W        W40676   5.849  10.908  13.941  0.3722  0.1971 -0.1164
24203W        W40677  10.218  11.882   3.097  0.1656  0.0362 -0.0446
24204W        W40678   4.272   1.530  14.958 -0.0424  0.2622  0.0956
24205W        W40679   5.512   4.521   1.667  0.0381 -0.2841 -0.0965
24206W        W40680   0.136   1.804   5.158 -0.0371  0.0426  0.3139
24207W        W40681   3.137  12.026  11.512 -0.1819  0.1303  0.0567
24208W        W40682  11.278   1.446   5.361  0.1199  0.3465  0.2659
24209W        W40683  15.630  10.372   3.577  0.1032  0.0455  0.0748
24210W        W40684   8.522  16.949  13.761 -0.1360 -0.1919  0.0896
24211W        W40685   2.952   4.699   0.670  0.1031  0.4308  0.2527
24212W        W40686   6.173   8.175   0.825 -0.1559 -0.0542  0.0766
24213W        W40687  13.186  14.663  15.946  0.0729 -0.1904 -0.0664
24214W        W40688   5.875   2.682   2.239  0.1144  0.1251 -0.0422
24215W        W40689  15.786   8.667   5.984 -0.0508  0.1289  0.1922
24216W        W40690  17.985   9.262  12.142  0.2942 -0.2207 -0.4604
24217W        W40691  11.388   0.804  14.520 -0.2228  0.0605  0.0474
24218W        W40692   6.167   0.626   1.265  0.3934 -0.1600  0.1067
24219W        W40693  12.512   1.502  12.494 -0.3993 -0.3744 -0.0215
24220W        W40694   4.195  12.037   0.357  0.1547 -0.1437 -0.0480
24221W        W40695   1.376  17.274  16.722  0.0948 -0.0461 -0.0609
24222W        W40696  12.654  16.095   3.012 -0.1477  0.2300  0.0353
24223W        W40697   3.850  15.274  11.450 -0.2417  0.1860 -0.1740
24224W        W40698  17.677   3.454  13.708  0.1080  0.2126 -0.0281
24225W        W40699   4.067   6.307   2.700  0.0743 -0.0668 -0.2633
24226W        W40700  13.379  11.411   1.072  0.1678 -0.0361  0.0621
24227W        W40701   6.966   2.667  15.379  0.0191  0.0697 -0.0456
24228W        W40702  15.105   1.364   5.443  0.0879 -0.1443 -0.0929
24229W        W40703  11.720   0.057   4.067  0.2035 -0.1367 -0.0136
24230W        W40704  15.122  10.120   5.987 -0.0741  0.1324 -0.0624
24231W        W40705  15.155  13.926  13.053  0.1944  0.0840  0.1689
24232W        W40706   6.749  14.501  15.757  0.0583 -0.2642 -0.4072
24233W        W40707   7.060  14.539  15.413 -0.2137 -0.0713  0.0230
24234W        W40708   5.862   0.807   0.378  0.0613 -0.0173 -0.4642
24235W        W40709  14.999   1.701   1.189 -0.2762  0.1577 -0.1101
24236W        W40710   8.180   3.058   1.659 -0.1796 -0.1744 -0.0238
24237W        W40711   6.395  17.559   2.459  0.0750  0.0078 -0.1918
24238W        W40712   9.874  14.700  14.463 -0.4189 -0.0990  0.0440
24239W        W40713   6.898   0.954   2.969  0.2094 -0.1714  0.1559
24240W        W40714   4.417   5.168   4.634 -0.0649  0.1548 -0.3878
24241W        W40715   8.830  17.246   1.734 -0.0878  0.2744 -0.0040
24242W        W40716   1.596  13.320  15.783 -0.2276 -0.1042  0.1273
24243W        W40717   6.901   9.351  16.511 -0.0610 -0.1560 -0.1765
24244W        W40718   1.904  15.314  12.551  0.1400  0.0412  0.0094
24245W        W40719   0.745   2.374   0.705  0.1728  0.2427 -0.2833
24246W        W40720  13.730   0.846  12.905  0.1344 -0.0777  0.5424
24247W        W40721   8.507   0.860   5.159 -0.1343  0.0360  0.1278
24248W        W40722   4.563   8.239  15.782  0.3044 -0.1384  0.0471
24249W        W40723  12.024  17.875  16.125 -0.1189 -0.1492 -0.2383
24250W        W40724   5.358   4.718  16.324  0.2413 -0.0478  0.1789
24251W        W40725  14.957   0.474  15.339  0.1381  0.0223 -0.1899
24252W        W40726  11.617   9.973  16.536 -0.0982 -0.1273 -0.1147
24253W        W40727   6.652  14.466   3.489 -0.2008 -0.1597 -0.0280
24254W        W40728  12.193  13.924  12.448 -0.0492 -0.1631  0.1282
24255W        W40729   5.949   7.847   3.257 -0.0563 -0.3380  0.2511
24256W        W40730   6.137   2.126  14.986 -0.0255  0.2049 -0.1207
24257W        W40731   0.018   9.475   3.891 -0.0435  0.0275  0.1316
24258W        W40732   8.174  11.529  13.804  0.1591  0.0205  0.3213
24259W        W40733   0.252   3.847   3.539 -0.1997  0.2369  0.3223
24260W        W40734  14.523  13.761   1.438 -0.1675 -0.1090 -0.0498
24261W        W40735   1.407   9.427  12.597 -0.0223  0.0319  0.0361
24262W        W40736   2.275   2.299   0.671  0.1226 -0.1305 -0.0573
24263W        W40737   6.285   7.452  13.254  0.1764  0.4025  0.0387
24264W        W40738   4.130  17.296   3.311 -0.3086  0.2003 -0.2889
24265W        W40739   2.153  17.986   1.801  0.0228 -0.0248  0.0132
24266W        W40740   8.861  17.935  13.267 -0.1384  0.0329  0.0658
24267W        W40741  10.692  15.429  11.622  0.0856  0.0176 -0.3376
24268W        W40742   5.178  10.744   3.789  0.2226  0.1348  0.3834
24269W        W40743  17.371   6.871   4.505  0.0771  0.2327 -0.1274
24270W        W40744   5.620  14.746  13.519 -0.1727 -0.0104 -0.0781
24271W        W40745   6.953  15.789  15.834 -0.0776  0.1057 -0.3798
24272W        W40746  17.583   0.333   2.721 -0.0595  0.1969  0.2755
24273W        W40747  12.704   8.797   5.417 -0.3558 -0.0260 -0.0403
24274W        W40748   8.459   6.445   5.420 -0.2570  0.1266 -0.2210
24275W        W40749   7.912   9.800  13.824 -0.0034  0.1070 -0.0327
24276W        W40750   8.639   0.888   1.072 -0.1844  0.2466 -0.1071
24277W        W40751   1.048  16.018  11.727  0.0706  0.2549  0.2648
24278W        W40752   8.798  17.473  13.132  0.1855 -0.0279  0.0069
24279W        W40753  11.014  11.423  14.904  0.1463  0.0653 -0.1592
24280W        W40754  17.644   0.824   4.513  0.3217  0.0499 -0.1018
24281W        W40755   4.913  10.848  11.307  0.1501 -0.2696 -0.0241
24282W        W40756  11.646  13.083  13.831 -0.0777  0.2215  0.0057
24283W        W40757  16.947   7.509   5.441  0.0206 -0.2979  0.1306
24284W        W40758   8.241  12.826   2.225 -0.0852 -0.2564  0.1172
24285W        W40759  16.664  17.037   2.174  0.3503 -0.0773  0.2340
24286W        W40760  12.090   7.139  13.529 -0.0856  0.2496  0.1647
24287W        W40761   4.575  15.801  12.610 -0.0387 -0.1850  0.0489
24288W        W40762  12.055   0.694   1.513 -0.2044  0.2415 -0.2036
24289W        W40763   1.095  16.343   4.111  0.0886  0.1467 -0.0646
24290W        W40764   5.077   1.784  12.739 -0.0483 -0.0014 -0.1345
24291W        W40765  12.475  15.595   0.355  0.1457 -0.1495  0.1207
24292W        W40766  17.501  17.623   2.072 -0.2210 -0.0056 -0.0466
24293W        W40767  17.226   3.865   1.359 -0.0908 -0.2809 -0.0460
24294W        W40768   9.614  12.682   0.876 -0.1806 -0.1191 -0.0485
24295W        W40769   9.346   9.652  16.228 -0.1197 -0.0381 -0.1787
24296W        W40770   2.187   2.130   2.088  0.0592 -0.0276 -0.0227
24297W        W40771  16.064   4.281  13.710  0.0777 -0.0677  0.3574
24298W        W40772  15.396   3.347  12.644  0.4026  0.0114  0.0086
24299W        W40773  10.910  16.296   2.436  0.3133  0.0555 -0.2391
24300W        W40774   9.566   8.756  12.689 -0.4198 -0.1996  0.4294
24301W        W40775  16.348  15.439   5.526  0.0154  0.0796  0.0054
24302W        W40776   0.894  10.877  15.878 -0.2804  0.1470 -0.0008
24303W        W40777   5.730  15.758  13.632 -0.0091  0.1351 -0.1809
24304W        W40778  11.365  14.579   5.856 -0.1369 -0.0511 -0.2653
24305W        W40779   4.508  17.190   1.709  0.2044  0.0772 -0.0992
24306W        W40780  12.313   4.757  14.623 -0.1392 -0.0654 -0.0705
24307W        W40781  11.330   5.412   1.711  0.1892  0.1527  0.1037
24308W        W40782   0.665   9.614  15.974 -0.3112 -0.0032 -0.1550
24309W        W40783   9.327   9.309  13.531  0.0521 -0.1842 -0.1751
24310W        W40784  17.890  16.659  14.303  0.0474 -0.1302  0.1590
24311W        W40785   1.803   8.869   4.651  0.2735  0.2114 -0.3137
24312W        W40786  14.794   3.106  16.595 -0.0040 -0.1956 -0.0275
24313W        W40787   6.644   0.528   2.931  0.0051  0.1058 -0.0465
24314W        W40788  11.560  15.242   3.127  0.1779  0.0271  0.0217
24315W        W40789  11.057  17.512   6.435  0.0414 -0.0497 -0.0619
24316W        W40790  13.713  10.269  15.691 -0.0435  0.1518  0.4628
24317W        W40791  12.436  11.338  16.211 -0.0161  0.3268  0.0086
24318W        W40792   5.597  11.649   5.879  0.1621  0.2147 -0.1079
24319W        W40793   0.503  13.660  12.078  0.0645  0.2127  0.0299
24320W        W40794   9.162  10.418   2.986 -0.0966  0.0736 -0.1245
24321W        W40795   6.306  12.933   1.229  0.3315 -0.0401 -0.2038
24322W        W40796  13.273   8.444  13.975 -0.3708  0.0181  0.1300
24323W        W40797  13.116  12.574   4.113  0.0665 -0.1521  0.2048
24324W        W40798   1.756  14.126   3.259  0.2002  0.0428 -0.0466
24325W        W40799  13.127  13.243  11.913  0.1185 -0.2080  0.1517
24326W        W40800  16.051  12.936  15.316 -0.3175 -0.0758  0.1191
24327W        W40801   6.896   9.899  16.470  0.0165 -0.0849 -0.1928
24328W        W40802   6.020   8.588  12.270  0.3738 -0.0364  0.1303
24329W        W40803  12.610  13.563  16.647 -0.2600  0.0492 -0.1190
24330W        W40804   8.238  13.198   5.643  0.2269 -0.1117  0.3609
24331W        W40805   7.398   4.400  14.633 -0.1433  0.0590 -0.1175
24332W        W40806  11.222   2.728  13.457 -0.0305 -0.0646 -0.0308
24333W        W40807  10.816  15.443   4.768  0.0550  0.0707  0.1079
24334W        W40808   4.465   0.335   1.729 -0.0867  0.1432  0.2434
24335W        W40809   4.518   2.023   4.802  0.1577  0.1060  0.1366
24336W        W40810   6.136   1.186   1.666 -0.0471 -0.1177  0.0657
24337W        W40811   2.743   4.496   5.805  0.2859 -0.1184  0.0094
24338W        W40812  14.551  13.953   3.433  0.1586 -0.0645  0.1174
24339W        W40813   9.403   5.657   1.614  0.0495 -0.4204 -0.3197
24340W        W40814  11.636  14.126   5.499 -0.1419 -0.2207 -0.1226
24341W        W40815   1.901  12.703  13.679  0.0936  0.0535 -0.2017
24342W        W40816   7.233   8.965   4.887  0.3077 -0.1504  0.3559
24343W        W40817   7.196  15.872   0.844  0.3329 -0.0161  0.2083
24344W        W40818   1.090  14.459  13.258  0.0696  0.2362  0.1188
24345W        W40819   1.806   9.154  13.933 -0.1377  0.0543 -0.0259
24346W        W40820   8.712   7.514  13.313 -0.0477  0.1852 -0.1169
24347W        W40821  13.035  14.298  15.005  0.3604  0.0522  0.3513
24348W        W40822  11.471  11.140  11.750  0.0236 -0.2622 -0.0006
24349W        W40823  17.854   4.615   1.795 -0.2130  0.1251  0.3061
24350W        W40824  10.013  17.688  12.612 -0.0733 -0.1312  0.3782
24351W        W40825  14.562  15.644  15.571 -0.2749 -0.0378  0.0218
24352W        W40826  10.855   6.158  13.627 -0.0156 -0.2089 -0.0475
24353W        W40827   1.067   2.830  12.857  0.3098  0.1521 -0.3339
24354W        W40828  14.343  15.946  13.322  0.1877 -0.0846  0.0221
24355W        W40829  12.941   2.000  14.364  0.0815 -0.0286  0.1198
24356W        W40830  12.150  14.798  13.802  0.0467 -0.1159  0.0209
24357W        W40831  10.276   2.943  15.019 -0.3340 -0.0807  0.2515
24358W        W40832   2.560   5.327   0.122 -0.0168  0.1102  0.0315
24359W        W40833  10.485   8.457  15.280 -0.1099  0.3599  0.2690
24360W        W40834   4.155   7.038  14.582  0.1225 -0.2692  0.0299
24361W        W40835  15.839  12.572   0.524  0.1502  0.1058  0.0862
24362W        W40836   8.973   1.385   0.974 -0.0835 -0.1234 -0.0998
24363W        W40837   9.169   8.475   2.901  0.0466  0.2157  0.0689
24364W        W40838  10.872  11.425  13.536 -0.6001 -0.1938  0.2928
24365W        W40839   0.395  15.635   0.305  0.2303  0.0093 -0.2243
24366W        W40840   1.601   5.636  16.110 -0.3372  0.0795 -0.0300
24367W        W40841  11.456  16.489  13.208  0.0355  0.1148 -0.0483
24368W        W40842   5.926  17.889   0.153 -0.2109  0.0467 -0.0798
24369W        W40843   1.967   9.292  10.516  0.2159  0.0430  0.0497
24370W        W40844   2.662   7.890  13.295  0.1093 -0.2699  0.0054
24371W        W40845   8.593   4.542  15.452 -0.2192  0.1868 -0.0321
24372W        W40846  13.583   2.619  15.217  0.0976 -0.2147  0.1194
24373W        W40847  15.714   7.334   4.537  0.0532  0.0302 -0.1243
24374W        W40848   8.635   2.944   4.215 -0.1228  0.0343  0.2741
24375W        W40849   8.218  13.405   4.316  0.2853 -0.0309 -0.0211
24376W        W40850   6.409   8.234  12.486  0.2184  0.3098 -0.0233
24377W        W40851   3.701  16.540  16.052  0.0933 -0.2159 -0.2303
24378W        W40852   9.879   9.340  13.791 -0.1148  0.0386 -0.2329
24379W        W40853  10.791  12.951  16.228 -0.3051 -0.1182 -0.1630
24380W        W40854   4.323  16.210   0.126 -0.0341  0.1592 -0.2226
24381W        W40855   8.943   2.949  16.353 -0.0048 -0.1156  0.2920
24382W        W40856  14.720   9.015   5.282 -0.1262  0.0076 -0.3129
24383W        W40857  17.189   0.611   4.527 -0.0863 -0.0847  0.0853
24384W        W40858  13.696   0.796   2.985  0.1970 -0.1371 -0.0266
24385W        W40859   8.528   6.864   0.687 -0.1462 -0.2470 -0.0683
24386W        W40860   7.491  14.764  14.080 -0.1375  0.6531 -0.2648
24387W        W40861  11.206  15.240  13.338  0.0083  0.3818 -0.0453
24388W        W40862   4.046  11.245  10.185 -0.0424  0.2148 -0.1246
24389W        W40863  10.314  12.273  13.114  0.0799  0.0292  0.0011
24390W        W40864  14.153  17.925   2.844 -0.1332 -0.0609 -0.2482
24391W        W40865  12.799  12.233   3.487 -0.1383  0.4065  0.0069
24392W        W40866   8.046  15.278   0.570 -0.1750  0.1705 -0.0864
24393W        W40867  15.277  17.960   0.210  0.3455 -0.0467 -0.1174
24394W        W40868   8.760   8.764  16.587  0.0540  0.0760  0.1101
24395W        W40869  16.452   3.991   1.472 -0.0171 -0.3476  0.0049
24396W        W40870   9.842  12.605   2.593 -0.0241  0.0191 -0.0226
24397W        W40871  15.803  12.851   4.278  0.0606  0.0735 -0.4160
24398W        W40872   6.018   5.026   0.567 -0.0938 -0.0182  0.0102
24399W        W40873   8.411   6.378  15.637 -0.1411  0.1650  0.4018
24400W        W40874   2.733   4.434  12.903  0.1193 -0.0649 -0.1540
24401W        W40875   3.678  13.530   4.311 -0.2490  0.0466  0.0070
24402W        W40876  13.231   4.777  13.882  0.0602 -0.2024  0.0211
24403W        W40877   9.661   0.003  16.659 -0.1792 -0.0493  0.0015
24404W        W40878   1.818  16.495  15.353 -0.1198  0.2682  0.2099
24405W        W40879   9.043   6.068   1.715  0.0293 -0.0786 -0.0379
24406W        W40880   3.071  10.733   1.897  0.2607  0.0702 -0.0853
24407W        W40881  12.677   4.106   5.700 -0.0235 -0.1202 -0.1968
24408W        W40882  14.970   0.026   0.924  0.0571  0.0475  0.1085
24409W        W40883   8.365   3.318   2.945  0.0476  0.1622 -0.0025
24410W        W40884  10.350   3.405   6.284 -0.0643 -0.1365 -0.1002
24411W        W40885   5.948  17.076  16.618  0.2105  0.3964  0.3370
24412W        W40886   9.554   2.150   5.030 -0.2814 -0.0259  0.1613
24413W        W40887   9.363   2.850  12.499 -0.1767 -0.0016 -0.0667
24414W        W40888  11.996  17.354   1.023  0.0011 -0.0744 -0.0767
24415W        W40889   7.676   8.224   0.237 -0.2511 -0.1971  0.0961
24416W        W40890  15.915  11.262  15.590 -0.1757 -0.1668 -0.1077
24417W        W40891   6.260   0.366   5.074  0.3886 -0.0216 -0.1562
24418W        W40892  15.638  14.024   4.889  0.1176  0.2614 -0.2107
24419W        W40893  15.326  10.254  13.663 -0.0204 -0.0829 -0.2237
24420W        W40894   1.039   3.312   0.346  0.1619 -0.0541 -0.2937
24421W        W40895  15.976   1.624   3.978 -0.0270 -0.0108  0.1884
24422W        W40896   3.724   0.981   1.759 -0.0310  0.3783 -0.0597
24423W        W40897   1.322  13.199   1.547  0.2450 -0.0453 -0.2577
24424W        W40898   0.956   5.236   2.931 -0.0261 -0.0378 -0.3431
24425W        W40899   7.431  14.740   1.592  0.0380 -0.0606  0.3900
24426W        W40900   6.014  14.388   3.336  0.1718  0.0707  0.2415
24427W        W40901   7.379   9.425  14.623  0.1177  0.0353  0.0956
24428W        W40902  16.927   1.468   3.554  0.2401  0.1617  0.2642
24429W        W40903  15.831   8.332   0.580 -0.2115 -0.0479 -0.3054
24430W        W40904  10.906   0.506  11.580  0.0333  0.1962 -0.1249
24431W        W40905  11.435  17.295  12.687 -0.1468  0.0382  0.0550
24432W        W40906   6.879   7.481   4.933  0.1717  0.0786 -0.1208
24433W        W40907   6.597  12.751   3.726  0.0983  0.0884  0.2977
24434W        W40908   1.820  13.108  10.797 -0.1285 -0.0270 -0.0970
24435W        W40909   2.840   6.581  15.474  0.2086 -0.0113 -0.1711
24436W        W40910  10.001   6.467   1.678  0.1001 -0.3544 -0.4933
24437W        W40911  14.120   8.666   5.008 -0.0801  0.2145 -0.0119
24438W        W40912   6.483  10.921   2.366 -0.3504  0.0372  0.0006
24439W        W40913  17.750  15.463  16.488 -0.2467 -0.2179 -0.2198
24440W        W40914   2.659  17.986  11.859  0.0613 -0.1118  0.1413
24441W        W40915   5.361  15.696  14.407 -0.2905 -0.0328 -0.2119
24442W        W40916  17.286   9.848  11.933  0.0768 -0.0865  0.3454
24443W        W40917   4.859  10.455   4.095  0.1192 -0.2940  0.0675
24444W        W40918  14.128   0.341   0.453  0.0953 -0.0563  0.2102
24445W        W40919  15.142   4.200   1.761  0.0731  0.0064 -0.1411
24446W        W40920   5.326  12.825  15.617  0.0683  0.2139  0.0340
24447W        W40921  12.643   9.285   0.572  0.2088 -0.4986  0.0125
24448W        W40922   0.525  17.542   1.914  0.0645  0.1219 -0.1746
24449W        W40923  17.672  11.599   3.685  0.2640  0.0191 -0.0179
24450W        W40924   9.343  17.473   2.790  0.3231  0.1148 -0.0470
24451W        W40925   2.838   1.943   2.834  0.1686  0.3139  0.1737
24452W        W40926   0.766   3.777   1.051  0.0348 -0.1363 -0.3859
24453W        W40927  13.435   0.666   1.068  0.3722  0.0205  0.1965
24454W        W40928   6.902   6.646  13.154  0.0421  0.1490  0.2503
24455W        W40929   3.495   5.817   0.788 -0.4401  0.1259  0.1250
24456W        W40930   9.720   2.602  13.819 -0.0734 -0.2043 -0.0023
24457W        W40931  15.743   3.385  16.421  0.0278 -0.1199  0.1420
24458W        W40932   2.499   3.167  16.243 -0.2116  0.1682 -0.3828
24459W        W40933   4.255   8.635  12.083 -0.0789  0.1533 -0.0492
24460W        W40934   7.095  14.202   2.796  0.1006 -0.0583  0.0649
24461W        W40935   8.632  12.591  13.845  0.0856  0.0918  0.0993
24462W        W40936   2.140  17.645   1.394  0.2722  0.3210 -0.2253
24463W        W40937  10.411   5.027   3.648 -0.0556 -0.0367  0.1017
24464W        W40938   9.717  11.619   3.805  0.4518 -0.2192  0.0478
24465W        W40939  10.510   0.674  11.259 -0.2780  0.0213  0.0375
24466W        W40940   9.907  16.458   2.361 -0.2064 -0.0279  0.1354
24467W        W40941  10.800  12.312  12.325  0.0307  0.1969 -0.0682
24468W        W40942  10.173  17.690   6.070 -0.1843  0.0857  0.4404
24469W        W40943   5.140  17.680   1.255  0.1036  0.2716 -0.1257
24470W        W40944   7.808   1.433  13.172  0.2213 -0.2792 -0.0306
24471W        W40945  14.879   4.117  13.117  0.0919  0.0276 -0.0128
24472W        W40946  14.613  17.661   3.637 -0.1547 -0.1589  0.0619
24473W        W40947   4.255  15.773   4.994 -0.0708 -0.2143  0.2371
24474W        W40948   4.821  12.419   3.069  0.1802  0.2247  0.0478
24475W        W40949   6.811  10.177   3.070 -0.0747 -0.1411 -0.1410
24476W        W40950  16.079  12.078   4.247  0.1566 -0.0300  0.1959
24477W        W40951   5.794  11.450   4.258 -0.0323  0.3744  0.2399
24478W        W40952   6.366   6.367  13.210 -0.1221  0.1382  0.1496
24479W        W40953   1.842   0.859  12.017  0.0021  0.1170  0.0137
24480W        W40954  16.157   6.910   0.232 -0.0404  0.0543 -0.2668
24481W        W40955   2.478   9.879   2.537 -0.2613  0.0373  0.2461
24482W        W40956   1.539   6.335  14.162 -0.1500 -0.0893 -0.1128
24483W        W40957   2.208  14.897   4.113 -0.0796 -0.0049 -0.0089
24484W        W40958   9.047  15.618   4.833  0.1049  0.0756  0.0244
24485W        W40959   5.776   9.092  12.088  0.1911  0.1184 -0.2727
24486W        W40960   3.172   2.085   1.497  0.0026 -0.3313  0.0418
24487W        W40961   4.967   8.667   3.115  0.2695  0.0332 -0.0068
24488W        W40962   4.071   4.359  15.932 -0.1351 -0.0614  0.2073
24489W        W40963  17.998   3.229   1.691 -0.0429 -0.0662 -0.0176
24490W        W40964   6.718   9.133   3.816 -0.3455 -0.0879  0.1605
24491W        W40965  14.861   3.804  15.080 -0.1072  0.2287  0.0909
24492W        W40966  10.387  13.656   5.253  0.0015  0.2091  0.0692
24493W        W40967  10.301   7.286  13.983 -0.2983  0.0558  0.0020
24494W        W40968  10.142   4.694   5.404 -0.0472  0.3538 -0.0981
24495W        W40969   7.167   1.364   3.470  0.1426 -0.1527  0.2337
24496W        W40970   4.456   2.142   1.991 -0.1980 -0.1961  0.1076
24497W        W40971  11.263   4.476   3.639 -0.0161  0.0516  0.1551
24498W        W40972  16.435   8.314  13.371 -0.1621 -0.0802  0.2641
24499W        W40973  10.576   7.980  13.378 -0.0803 -0.1925 -0.1554
24500W        W40974   9.083  15.789   0.067  0.0178  0.1607  0.0156
24501W        W40975   2.967   2.293   4.858  0.1325  0.2288 -0.0485
24502W        W40976   5.630   6.001  15.470  0.1198  0.0995 -0.3155
24503W        W40977  11.070   2.058  12.183  0.2107  0.3912 -0.4723
24504W        W40978   4.398  13.206  16.538 -0.1267  0.3516  0.0687
24505W        W40979   2.135   0.136   1.237 -0.0133  0.1205  0.2497
24506W        W40980  16.014  11.020   1.776 -0.3684 -0.1271  0.0729
24507W        W40981   4.158  12.485   3.098  0.0005  0.0842 -0.0372
24508W        W40982  16.464   1.460  13.337 -0.2386  0.1714 -0.0960
24509W        W40983  10.202   3.614   5.221 -0.0345  0.0863 -0.0768
24510W        W40984   5.596   0.052   3.794 -0.0673  0.1423 -0.0357
24511W        W40985   8.818  12.158  15.287 -0.0588  0.0580 -0.2540
24512W        W40986   9.584   7.014  16.660 -0.2772 -0.0556 -0.0642
24513W        W40987  14.857  16.042  15.293 -0.1732  0.1975 -0.0345
24514W        W40988  16.844   1.723  13.491 -0.2048  0.0002  0.2543
24515W        W40989  15.547   7.516   3.255 -0.0452  0.1770  0.1254
24516W        W40990   9.890   7.342   6.194  0.1783 -0.0614  0.0534
24517W        W40991   8.772  16.087   3.861  0.1563 -0.1903 -0.1568
24518W        W40992  13.127  17.752   1.438  0.2209  0.1206  0.4219
24519W        W40993  10.259   1.626  11.720 -0.2175  0.0977  0.0823
24520W        W40994   2.754   5.542   4.786  0.0960 -0.1351  0.1344
24521W        W40995   1.543  12.465  13.978 -0.1136  0.1661 -0.1237
24522W        W40996   1.640  11.385  13.756  0.0743 -0.1439 -0.0388
24523W        W40997   3.320  10.179  14.439 -0.1504  0.2473  0.0535
24524W        W40998  13.826   1.520   1.403 -0.0788 -0.1887  0.0892
24525W        W40999   9.341   1.379  12.419 -0.3277 -0.1927  0.0111
24526W        W41000  15.509   4.063  14.965 -0.0983  0.1524 -0.2565
24527W        W41001  17.450   9.716   3.820 -0.0428 -0.2176 -0.0164
24528W        W41002   3.252  11.612  13.453 -0.1104  0.0499  0.0515
24529W        W41003   8.188   3.916  16.348  0.2133  0.1812 -0.0331
24530W        W41004   8.032  12.660  15.710  0.2703  0.0064 -0.1152
24531W        W41005  15.716  16.464   3.799 -0.0939  0.3140 -0.1302
24532W        W41006   6.996  10.398   5.819 -0.0070  0.0336  0.0868
24533W        W41007   3.577   2.299   3.009  0.1103  0.2271 -0.1438
24534W        W41008   3.648  14.126  14.679  0.3019 -0.1599 -0.1125
24535W        W41009   5.075   2.290  12.148 -0.2584  0.3479 -0.1566
24536W        W41010   8.829   5.946  14.900 -0.1036 -0.1352  0.2603
24537W        W41011   6.655   9.520  15.490  0.1347 -0.0343 -0.0470
24538W        W41012  11.601  17.721  15.723 -0.1839  0.1211 -0.0803
24539W        W41013   3.506  14.236   2.959  0.2398 -0.0637  0.1273
24540W        W41014  10.602   5.873  14.520  0.2074 -0.0002  0.0298
24541W        W41015  11.507   2.659   2.829  0.1699 -0.1637 -0.1357
24542W        W41016   9.878   5.126  15.099  0.1157  0.0357  0.1641
24543W        W41017  17.697  14.981  14.345  0.0855 -0.5415  0.2795
24544W        W41018  12.730  17.962  13.730  0.0863  0.0924 -0.0384
24545W        W41019   1.813   1.833  10.678  0.1113  0.0293  0.2114
24546W        W41020  12.302   1.710  10.738  0.1412 -0.0120  0.1553
24547W        W41021   1.746  15.177   4.806  0.1433  0.1720 -0.1608
24548W        W41022   8.920  11.408  12.853 -0.0016  0.2576 -0.1480
24549W        W41023  13.692   5.501  12.773  0.0763 -0.1991  0.2558
24550W        W41024  17.219  14.588   4.445  0.2431 -0.0824  0.2081
24551W        W41025   7.436   7.507   3.929 -0.0492 -0.0538  0.2355
24552W        W41026   0.661   2.295   3.911 -0.0594  0.2352  0.0724
24553W        W41027   2.784  14.567   2.132  0.0217  0.0769 -0.2195
24554W        W41028  16.421   9.876  16.188  0.0559  0.0233  0.0061
24555W        W41029  14.722   8.555  12.508 -0.4451 -0.2791 -0.0379
24556W        W41030   1.704  15.913   1.196  0.1349 -0.4444  0.2677
24557W        W41031  15.804   2.263  13.864  0.1869  0.0076  0.2785
24558W        W41032  13.423   7.197  16.248  0.0547  0.3316  0.0619
24559W        W41033  10.624  12.976  11.741 -0.3995  0.0425 -0.0742
24560W        W41034   7.586   9.382   0.683 -0.0582  0.2111 -0.0011
24561W        W41035   7.816   6.384  13.939 -0.0036 -0.1721 -0.0213
24562W        W41036   0.686  16.372  13.836  0.0774  0.1847  0.0982
24563W        W41037   2.469  15.655   5.295  0.0779 -0.3024  0.0188
24564W        W41038  11.875   4.108   1.392 -0.1754 -0.1602  0.0465
24565W        W41039   4.624  14.734   4.356 -0.1371 -0.1020  0.1057
24566W        W41040   0.544   3.600  13.355  0.0093  0.2363 -0.3751
24567W        W41041   4.214  17.895   2.508  0.1079 -0.0431  0.2922
24568W        W41042  10.095  13.801   4.395 -0.1955 -0.0397 -0.0982
24569W        W41043   2.441   4.902  14.230  0.1880  0.0305 -0.0964
24570W        W41044  13.331  14.765  15.023  0.0853  0.2897  0.1157
24571W        W41045  17.197  11.286  12.823  0.0140 -0.2538  0.1015
24572W        W41046  14.801   5.742  15.666  0.2065 -0.1660 -0.2648
24573W        W41047   2.213  17.833  13.534 -0.1332  0.1355  0.1197
24574W        W41048  11.606  10.804   3.919 -0.2668  0.0799 -0.2176
24575W        W41049  16.851   8.678  12.722  0.0303  0.0844 -0.3708
24576W        W41050   1.230  15.135   0.966  0.0666 -0.0079  0.0690
24577W        W41051   5.615  14.963   5.970  0.0283  0.0681 -0.2526
24578W        W41052   2.200  15.485   1.967  0.1421 -0.0150  0.3856
24579W        W41053  12.122  17.934   0.434  0.0548 -0.2304  0.1370
24580W        W41054   0.144   6.727  15.901  0.2443  0.1545  0.1542
24581W        W41055  16.927  17.030   2.638 -0.2081 -0.2209 -0.0309
24582W        W41056   1.014   1.128   5.515 -0.4035  0.2055 -0.1725
24583W        W41057   6.068  17.817  12.741 -0.0288  0.1867  0.0137
24584W        W41058   0.476  13.794  16.529 -0.0750  0.2171  0.0067
24585W        W41059  15.916   1.293   0.003  0.3643  0.2653 -0.0252
24586W        W41060   0.407   3.218  14.206  0.0414 -0.2836 -0.0737
24587W        W41061   3.551  14.076   2.018 -0.0153  0.0235  0.3567
24588W        W41062  10.561  14.092   4.526  0.2171 -0.1463 -0.3016
24589W        W41063   5.348  13.001  14.074 -0.1062  0.0880  0.0313
24590W        W41064  10.899   7.974  16.561 -0.2625  0.1362 -0.0842
24591W        W41065   0.507   4.497  11.813 -0.0946 -0.1685  0.2065
24592W        W41066   4.085  10.956  10.584  0.0992 -0.3218 -0.1164
24593W        W41067   7.650   0.694  14.958  0.0598  0.2496  0.0146
24594W        W41068   8.128  16.580  14.170  0.0915  0.1387 -0.3185
24595W        W41069   9.701   6.029   0.652 -0.1309 -0.1004 -0.0296
24596W        W41070   9.953  13.375   4.933 -0.2870 -0.0196  0.1491
24597W        W41071   6.856   4.765  11.708  0.0784  0.1973  0.1125
24598W        W41072  17.128   6.541  12.359 -0.1430 -0.2116 -0.2478
24599W        W41073   6.041   0.727   4.642  0.0902 -0.2339 -0.0565
24600W        W41074   8.821   7.797  14.404  0.2754 -0.1099  0.1936
24601W        W41075  16.366  16.636   3.132  0.0843  0.1312 -0.0569
24602W        W41076   8.626  16.952   4.542  0.1652  0.2370 -0.0974
24603W        W41077  15.425  15.835   1.509  0.2493  0.0905  0.0923
24604W        W41078  15.115   8.817  12.781 -0.1598  0.0219  0.0286
24605W        W41079   5.587   7.743   1.264 -0.0927 -0.1778  0.0936
24606W        W41080  16.443  17.935  15.828  0.1797  0.2204  0.2048
24607W        W41081  11.939  15.513  16.258 -0.3510  0.2317  0.1449
24608W        W41082   3.194  10.762  11.364 -0.2017  0.1582  0.0756
24609W        W41083  13.366  11.432   1.649 -0.1165  0.1764 -0.3751
24610W        W41084   0.764   3.319   3.875  0.0363 -0.1329  0.4597
24611W        W41085   6.468   8.931  14.638 -0.1380  0.0742 -0.1742
24612W        W41086   1.833  14.842  12.885 -0.0612 -0.2017 -0.1485
24613W        W41087  11.853   4.035   4.686 -0.2261 -0.0029  0.1041
24614W        W41088   2.019  15.785  13.919  0.2169  0.2116  0.0970
24615W        W41089   0.607   3.922   4.846 -0.0777 -0.1954  0.0262
24616W        W41090   9.818   3.733  11.691  0.1147 -0.1156  0.0650
24617W        W41091  16.089   8.384   3.327 -0.0793 -0.3334  0.1258
24618W        W41092  11.240   7.539  16.495  0.1644  0.2016 -0.0114
24619W        W41093   7.548   5.755  12.993  0.1673  0.0980  0.0842
24620W        W41094   9.880   5.140  12.674  0.1561  0.2341 -0.1667
24621W        W41095   5.745  16.606   2.064 -0.0204 -0.0880 -0.2812
24622W        W41096   7.485   8.430   2.076 -0.0882 -0.3445  0.1110
24623W        W41097   7.237   8.876   1.981 -0.1966  0.1291  0.4234
24624W        W41098   0.841   7.523   0.241 -0.0246  0.0047  0.0928
24625W        W41099  13.237  16.811   2.642  0.2069 -0.1260  0.0996
24626W        W41100  13.735   1.935  14.942  0.0920 -0.2397 -0.1438
24627W        W41101   9.147  11.206   1.112  0.0498 -0.0141 -0.1019
24628W        W41102   9.583  15.432  13.819  0.3534 -0.1936 -0.1542
24629W        W41103  12.884  17.802  12.435  0.0046  0.2338 -0.0036
24630W        W41104   8.308  10.196   5.424  0.0496 -0.3609  0.1584
24631W        W41105  11.974  17.151  14.458  0.1429 -0.2226 -0.0650
24632W        W41106   2.031   3.740  14.317  0.1983  0.0528  0.1875
24633W        W41107   2.098  12.302  12.375 -0.1010 -0.4100  0.0355
24634W        W41108   7.167  13.691   5.129  0.0438 -0.0475 -0.1325
24635W        W41109   3.447  16.316   2.657 -0.1704 -0.0376  0.1181
24636W        W41110   6.994   2.613  15.878 -0.1297 -0.0842  0.0402
24637W        W41111  12.223   6.138   0.949  0.4057 -0.0888  0.0273
24638W        W41112   5.726   5.538  16.338  0.3196 -0.0966  0.0082
24639W        W41113   7.384   3.000  13.365 -0.1012 -0.0972 -0.2278
24640W        W41114  14.981   5.918  16.589 -0.0572 -0.1002  0.1819
24641W        W41115   4.574   8.588  11.676  0.1991 -0.0090  0.0261
24642W        W41116  14.964  12.322   3.345  0.0275 -0.0206  0.1565
24643W        W41117  11.878   2.989   2.661 -0.0849 -0.1731 -0.2620
24644W        W41118   7.972   7.461  14.666  0.0975 -0.4433 -0.2188
24645W        W41119   5.503  15.548  12.473  0.2272  0.1088  0.0827
24646W        W41120   5.885  12.266   0.145 -0.2591  0.1003 -0.3732
24647W        W41121  13.685   4.313   2.661 -0.0259 -0.3101  0.0371
24648W        W41122   7.866  17.639   2.308 -0.0244 -0.2220 -0.2276
24649W        W41123  12.828  17.638  14.280 -0.1957 -0.0160 -0.0669
24650W        W41124   5.864  10.700   2.300  0.0882  0.0891 -0.1130
24651W        W41125   8.994   0.187   3.498 -0.0443 -0.0412 -0.2796
24652W        W41126   2.472  15.478  13.985 -0.2241 -0.1637  0.1839
24653W        W41127  16.170   9.672  13.099 -0.0594 -0.1711  0.2376
24654W        W41128   5.257  12.556   5.390 -0.1036 -0.0883  0.0449
24655W        W41129   2.563   9.490  11.321 -0.0685 -0.1128 -0.1515
24656W        W41130  10.431  17.970  14.576  0.0248 -0.0049  0.2529
24657W        W41131   4.633   7.041   0.712  0.2465 -0.0589  0.2285
24658W        W41132  17.110  16.613   1.521 -0.0442  0.0722 -0.3236
24659W        W41133  12.273  14.363   0.302  0.3051  0.0558 -0.0714
24660W        W41134   4.478   2.675  12.611 -0.0724 -0.0988 -0.0339
24661W        W41135  17.606   9.208  16.350  0.1519  0.3323  0.1570
24662W        W41136  12.259   7.689  12.455  0.1632  0.0667 -0.1328
24663W        W41137  11.180   9.133   0.414 -0.1813 -0.0366 -0.0998
24664W        W41138   8.038   6.642  13.114 -0.3953  0.1906 -0.0980
24665W        W41139   2.968  12.024   3.522  0.0672 -0.2054  0.2954
24666W        W41140   5.254   1.880   5.071  0.1040 -0.1941  0.0202
24667W        W41141   3.572   8.842   5.251 -0.1117  0.0857  0.1094
24668W        W41142   4.579  10.148  11.834 -0.0169 -0.3117 -0.2862
24669W        W41143   9.303  15.841  13.223  0.3274  0.0647 -0.3191
24670W        W41144   9.351   2.554   0.374 -0.3178 -0.1068 -0.0678
24671W        W41145  15.231  16.977   5.134 -0.2046  0.0166  0.1091
24672W        W41146   4.769   5.253  13.815  0.3536 -0.1133 -0.0827
24673W        W41147  11.331   8.788   2.166 -0.0495  0.0809 -0.2925
24674W        W41148  14.721  10.772  13.011 -0.3505  0.0376 -0.0445
24675W        W41149  14.445   0.949  13.354 -0.2198 -0.0655 -0.1964
24676W        W41150   5.453  16.110  15.836  0.0598  0.1274 -0.0554
24677W        W41151  14.722   7.663  13.285 -0.0630  0.0855  0.3782
24678W        W41152  16.837   9.433  16.733  0.0454  0.3410 -0.1874
24679W        W41153  12.460   5.504  15.320 -0.0229  0.2576 -0.1496
24680W        W41154   6.113  15.099   5.216 -0.0013  0.1565  0.0303
24681W        W41155   7.130  16.914   1.885 -0.0105 -0.0706  0.1049
24682W        W41156  15.755  15.375   4.328  0.0008 -0.2937 -0.0892
24683W        W41157  16.283  10.803   0.562  0.0268 -0.1868  0.0242
24684W        W41158   5.010   0.797  16.449  0.0604  0.0833 -0.0782
24685W        W41159   4.272  14.583   4.663 -0.1654 -0.1771  0.2283
24686W        W41160  12.322   5.775  13.644 -0.2381 -0.1892 -0.1202
24687W        W41161   7.448   9.652   2.746 -0.0040  0.0965 -0.0036
24688W        W41162  13.295   8.173  15.388  0.1318  0.1405 -0.2261
24689W        W41163  14.557  14.310  15.900  0.0163  0.0631 -0.0410
24690W        W41164   2.322  17.086   4.532 -0.0562 -0.0327 -0.2447
24691W        W41165   4.796  12.361   1.801  0.0564 -0.1738  0.0596
24692W        W41166  16.081  14.259   2.178  0.1474  0.1289 -0.0009
24693W        W41167   3.004   0.173   1.087  0.0767 -0.1207 -0.0309
24694W        W41168  12.990  14.827  13.292  0.1320 -0.0260  0.3655
24695W        W41169   7.399   9.306  15.681  0.2232  0.3435  0.1311
24696W        W41170   8.322   7.681   5.585 -0.1565 -0.1294 -0.0670
24697W        W41171   5.911   1.840   5.574 -0.1242  0.1239  0.1842
24698W        W41172   7.537  14.136  13.228  0.1454  0.0229  0.1370
24699W        W41173  13.363   8.156   3.838 -0.1507 -0.4532  0.0161
24700W        W41174   5.775  14.158  11.372 -0.0033  0.0608  0.1317
24701W        W41175   0.268   8.366  11.556  0.1466  0.0381  0.2480
24702W        W41176   9.845  14.009  12.308 -0.0062  0.0972 -0.0126
24703W        W41177   5.096  15.440  12.847 -0.0809  0.1430  0.0537
24704W        W41178   1.801  13.932   5.172 -0.3970  0.2398  0.0193
24705W        W41179  16.764   5.532  16.526 -0.1241 -0.0801 -0.0425
24706W        W41180  17.806   7.810  14.348 -0.0193 -0.2124  0.1882
24707W        W41181   9.934   2.476   3.318 -0.0872  0.0158  0.0008
24708W        W41182   3.327   3.027   3.622 -0.2179 -0.1252  0.1060
24709W        W41183   2.251  11.911   3.555  0.1671 -0.1121  0.0036
24710W        W41184   8.091   4.247   4.617  0.0938  0.0513 -0.0466
24711W        W41185  14.685   3.136  16.069 -0.1591  0.0633  0.1631
24712W        W41186   6.157  15.105   1.705 -0.2303  0.0348 -0.2016
24713W        W41187   5.771  12.743  11.264 -0.1435 -0.1837  0.1366
24714W        W41188   9.756  14.142   0.669  0.0049  0.3522 -0.4259
24715W        W41189  10.880   7.252  16.765 -0.0160  0.0912  0.0565
24716W        W41190  15.575   5.157   3.770 -0.2263  0.1735  0.0904
24717W        W41191  12.845  11.692  13.551  0.2277  0.0553 -0.2300
24718W        W41192   1.189  17.487  12.767 -0.0703  0.0698  0.0422
24719W        W41193   1.431   4.575  12.944  0.3806  0.0003  0.0264
24720W        W41194   8.195  16.416  13.017  0.0701 -0.2395 -0.4340
24721W        W41195   9.278   2.122  13.203 -0.1242 -0.1613  0.0504
24722W        W41196   2.177   9.745   0.054 -0.2770  0.1668 -0.1840
24723W        W41197  10.981   0.042  15.881 -0.2171 -0.1423  0.0843
24724W        W41198   3.686  14.645  13.855 -0.0907 -0.1973 -0.0542
24725W        W41199  12.631  12.023  13.896  0.1827  0.0732  0.2978
24726W        W41200   3.837   5.828   2.700  0.0133  0.3193  0.0177
24727W        W41201  12.902   5.275  15.914 -0.2364 -0.0822 -0.1584
24728W        W41202  12.030   6.707   3.107 -0.2857  0.2870  0.3171
24729W        W41203  15.024   7.364  13.996 -0.0913 -0.1699 -0.1385
24730W        W41204  16.426   9.165   2.091 -0.2458  0.2275 -0.1767
24731W        W41205  13.837  11.023  13.065  0.1429  0.0754 -0.1811
24732W        W41206   5.028  17.760   2.218  0.1893  0.1431  0.2732
24733W        W41207   5.557   8.039  15.727 -0.1864 -0.1619 -0.3277
24734W        W41208  15.738  17.786  13.489  0.2808  0.1136  0.2406
24735W        W41209  16.362   7.269  11.618 -0.2294 -0.1829 -0.1447
24736W        W41210  12.706   4.614   0.144  0.1821 -0.0451  0.0111
24737W        W41211   5.475   5.595   5.627  0.0045 -0.1466  0.1405
24738W        W41212   1.740  10.225  16.474  0.1672  0.0699 -0.0193
24739W        W41213   3.617  11.816  13.710  0.1226 -0.0543  0.0597
24740W        W41214  10.598   4.345   4.307  0.1720 -0.2685  0.2750
24741W        W41215   0.302  15.089  14.894  0.0615  0.1317  0.1406
24742W        W41216  11.513   3.286  14.557 -0.2081 -0.0321  0.1691
24743W        W41217   3.393  17.026  12.631 -0.1035 -0.2110 -0.0917
24744W        W41218   6.551   9.371   0.686  0.0841 -0.0185  0.1161
24745W        W41219  10.991  14.088   1.851  0.0050  0.1754  0.0144
24746W        W41220  16.175  16.572  13.254 -0.1534  0.1683  0.0727
24747W        W41221  12.621   9.704  12.791  0.0037 -0.0140  0.1556
24748W        W41222   7.553  14.219   3.512  0.1530  0.0206  0.1561
24749W        W41223  12.641   0.219   3.874  0.1614 -0.0800 -0.0130
24750W        W41224  12.529  15.700  14.052  0.0828  0.2556 -0.4507
24751W        W41225   7.351  13.012  12.820 -0.0088 -0.2291 -0.2293
24752W        W41226  11.378  17.414  13.319  0.0197  0.0144 -0.0729
24753W        W41227   6.540   6.042   2.392  0.0311 -0.2016 -0.1122
24754W        W41228  10.305   0.141  13.396  0.2643 -0.0253  0.1160
24755W        W41229  13.842   9.134  11.598  0.1076 -0.5200  0.1681
24756W        W41230  16.370  12.859   3.507 -0.0847 -0.2752  0.1134
24757W        W41231   5.907   9.886   3.510 -0.0827 -0.0996 -0.0176
24758W        W41232  10.541   2.556  15.147  0.2024 -0.2490 -0.2281
24759W        W41233   7.160   0.242  12.870  0.0557 -0.1548 -0.4238
24760W        W41234   7.789  16.700  13.780 -0.1708 -0.0935 -0.0254
24761W        W41235   8.938   8.443  13.448  0.1473 -0.1717 -0.0658
24762W        W41236   6.815   0.083   1.419  0.1228 -0.0758 -0.0330
24763W        W41237   1.242   5.185   0.199  0.1247 -0.4084  0.2780
24764W        W41238   4.368   6.108   5.734 -0.0431 -0.1295  0.1029
24765W        W41239   0.482  17.247   3.244  0.1520 -0.1553 -0.1128
24766W        W41240   1.240  12.102  12.190 -0.3172 -0.1156  0.2096
24767W        W41241   5.005   2.524   6.086  0.0661 -0.1132 -0.1059
24768W        W41242  15.679   2.911  16.388 -0.0459  0.1675 -0.1993
24769W        W41243  11.682   5.790   5.233  0.0040 -0.1768 -0.3981
24770W        W41244   6.845   6.277  12.514  0.0390 -0.2145 -0.5189
24771W        W41245  13.906   4.579   1.267 -0.0422 -0.2046  0.0015
24772W        W41246   5.767   9.233  15.756 -0.1755  0.1420  0.2616
24773W        W41247   2.198   4.056   2.293 -0.1468  0.1183 -0.2698
24774W        W41248   7.216  15.046  13.775 -0.0529 -0.2650  0.4081
24775W        W41249  13.267   1.287  12.266 -0.0596 -0.1523 -0.0390
24776W        W41250   8.524   8.983   2.152  0.2155  0.0357  0.0420
24777W        W41251   2.776  15.486  12.963  0.0230  0.2805  0.3938
24778W        W41252  10.388   0.056   1.730  0.0768 -0.0022 -0.1844
24779W        W41253   4.057   7.914   5.021  0.2572  0.2152 -0.1786
24780W        W41254   5.451   5.117   5.268 -0.1411  0.1348  0.1270
24781W        W41255  10.719  14.200   2.900 -0.3139 -0.0364  0.1517
24782W        W41256   9.845   6.864  12.684  0.1628  0.0107  0.2388
24783W        W41257   7.924  10.710   1.848 -0.1062  0.0886  0.1157
24784W        W41258  17.885  13.327  14.991  0.0650  0.1525 -0.1970
24785W        W41259  17.661  11.964  14.544 -0.1240  0.0713 -0.1648
24786W        W41260  16.518   5.205  15.177 -0.3506  0.1294  0.0311
24787W        W41261   7.591  11.897  11.195  0.0469 -0.1448  0.3503
24788W        W41262  15.475   6.332   0.610 -0.0939  0.1417  0.1673
24789W        W41263   7.254  14.164  15.090 -0.0484  0.2013 -0.0352
24790W        W41264   7.121  17.614  13.639  0.0291  0.2091  0.2693
24791W        W41265   2.647   8.523  12.712  0.2011  0.1480  0.0285
24792W        W41266  15.633   7.550  13.150 -0.2189 -0.0941 -0.1191
24793W        W41267   4.883   2.253  14.280  0.0384  0.0164  0.0479
24794W        W41268  13.299  10.189   2.366  0.4403 -0.3518  0.0606
24795W        W41269  13.473  14.881   2.133  0.0846 -0.1902  0.1161
24796W        W41270   2.248  16.858  14.602 -0.0132 -0.3370  0.0302
24797W        W41271  17.842   5.589  11.814 -0.3409  0.3659  0.0744
24798W        W41272   4.487   7.770   1.163  0.2116  0.0198  0.0241
24799W        W41273   6.847  15.612  11.989 -0.2838  0.2551  0.1954
24800W        W41274   5.584  16.921  16.302  0.3746 -0.0785 -0.0752
24801W        W41275   2.331   9.935  15.557 -0.0617  0.0720 -0.0057
24802W        W41276  16.615   8.593   0.390  0.1287  0.0743  0.1870
24803W        W41277   1.163  17.915  13.610 -0.1574 -0.0869  0.0655
24804W        W41278   1.269  11.352   4.295  0.0068  0.1391  0.1283
24805W        W41279   3.998  14.180   3.212 -0.0596  0.3506 -0.1071
24806W        W41280   2.189   6.330  12.882  0.2941  0.2631 -0.0445
24807W        W41281   7.625   9.310  16.175  0.2021  0.2826 -0.0659
24808W        W41282   5.189   5.166   2.005  0.3227  0.0854 -0.1758
24809W        W41283   9.586   9.430   1.648 -0.1726  0.0184  0.2211
24810W        W41284   9.946   3.494   4.481  0.2180  0.1029 -0.2341
24811W        W41285   8.470   0.533  16.417 -0.1183  0.0083  0.0172
24812W        W41286   9.151  11.692   5.500  0.0609 -0.1798  0.1756
24813W        W41287  14.220   8.823   4.471 -0.0036  0.0748  0.3495
24814W        W41288   4.683  10.416  11.356  0.0174  0.0788  0.1130
24815W        W41289   5.122  12.243  12.926 -0.0336 -0.2000 -0.1544
24816W        W41290  12.370   8.996  15.983 -0.0756 -0.3404  0.1751
24817W        W41291   8.486  11.898   1.930 -0.0029  0.1572 -0.1469
24818W        W41292  13.991  15.759   0.007  0.1274 -0.4968 -0.2021
24819W        W41293  15.354   0.289   4.729  0.3666  0.2463  0.0531
24820W        W41294   6.944  13.267  15.090  0.1057 -0.0968 -0.0852
24821W        W41295   4.388  14.099  15.759 -0.0119 -0.3407  0.1608
24822W        W41296  15.525   1.446  15.737  0.2747  0.2376 -0.0577
24823W        W41297  17.717   3.595  14.636 -0.1744  0.1951 -0.1362
24824W        W41298   1.533   1.517  16.625 -0.1776  0.1788 -0.3006
24825W        W41299  12.097   4.111  13.994 -0.1275  0.0991  0.0512
24826W        W41300  11.381  12.042  11.315  0.1341 -0.2604 -0.1480
24827W        W41301   2.369  17.823  14.382 -0.2650  0.0277  0.0643
24828W        W41302  12.472  10.145  13.617 -0.0434  0.0230 -0.2973
24829W        W41303   2.749  12.370  15.560  0.0501 -0.1037  0.2765
24830W        W41304  14.918  11.756  12.142  0.3156  0.2790  0.3251
24831W        W41305   3.651   0.246   5.455 -0.0792  0.0411  0.0765
24832W        W41306   7.450   3.636  15.492 -0.1395  0.1099 -0.0151
24833W        W41307  11.190   6.509   2.108  0.2141 -0.4053  0.2559
24834W        W41308   3.955   9.932  13.670 -0.0755  0.0788  0.2871
24835W        W41309  15.381   7.855   1.655 -0.1873  0.0026 -0.2901
24836W        W41310  16.049   7.288  13.359 -0.2998 -0.1327 -0.0999
24837W        W41311  17.497   5.056  16.191  0.4456 -0.0004 -0.0533
24838W        W41312   5.249  12.372   3.382  0.1635 -0.2670  0.0538
24839W        W41313   2.865   4.897  14.553  0.0216  0.0332  0.0034
24840W        W41314  12.075   9.047  13.516 -0.1084 -0.0861 -0.0643
24841W        W41315   7.539  16.442  10.521  0.0025 -0.1930 -0.1336
24842W        W41316  17.305   4.221  13.789  0.3242 -0.0107  0.1039
24843W        W41317   6.998  15.500   1.788 -0.1396 -0.3106 -0.1541
24844W        W41318   8.559   2.809  14.491 -0.1080 -0.0796  0.0776
24845W        W41319  14.910  17.017  16.069  0.0488  0.3322 -0.0789
24846W        W41320  13.608   2.002   4.321  0.0331 -0.0500 -0.3440
24847W        W41321  12.384   6.056   4.519 -0.0812  0.2546  0.1760
24848W        W41322   3.650  12.327   2.253  0.1359  0.1202  0.3222
24849W        W41323   8.936   2.714  13.949  0.1018  0.0986  0.0878
24850W        W41324   8.482   0.755   0.254  0.0775 -0.2392 -0.1633
24851W        W41325   5.566  13.034  14.534 -0.2785 -0.4090 -0.1964
24852W        W41326  10.801   7.877   1.113  0.0330  0.1144  0.2702
24853W        W41327   4.341   4.433  14.202 -0.0869 -0.0781 -0.0315
24854W        W41328   8.761   0.455   5.408 -0.1679  0.1195  0.3826
24855W        W41329  16.747  11.248   5.375  0.2089 -0.2897 -0.0009
24856W        W41330  14.401   2.255  12.141 -0.2433 -0.0335 -0.3173
24857W        W41331  15.279   1.927   0.327 -0.1035  0.0072 -0.4514
24858W        W41332   7.625   5.450   1.181 -0.2491  0.1649  0.0804
24859W        W41333   3.115  15.284  14.382 -0.0313 -0.1016 -0.3091
24860W        W41334  11.977   9.980  13.862 -0.3114 -0.1092 -0.0317
24861W        W41335   3.614   7.237  14.459 -0.1263 -0.0197  0.3150
24862W        W41336   6.153   3.630   3.508 -0.2816  0.0433  0.1224
24863W        W41337  12.837   1.100  15.344  0.2028  0.1953 -0.2606
24864W        W41338  11.506   5.988  13.056  0.2731  0.2077 -0.1078
24865W        W41339  11.902   4.157   5.217  0.4579 -0.2931 -0.1997
24866W        W41340   4.425   9.069  12.858 -0.0081 -0.0139 -0.0952
24867W        W41341  16.267  17.225   3.912 -0.1424 -0.0294  0.0042
24868W        W41342  13.757   9.822   1.504 -0.1809 -0.2512 -0.1439
24869W        W41343   5.767   4.521  12.509  0.1190  0.4028  0.0957
24870W        W41344   4.455   3.079  14.146  0.0990 -0.1758  0.0699
24871W        W41345  10.496  13.199   5.018  0.4324  0.0536 -0.1962
24872W        W41346  17.620  11.721   2.314 -0.0209  0.1309  0.1515
24873W        W41347   0.961   7.444  13.238  0.0794  0.3335  0.1591
24874W        W41348  15.427  11.011  15.185 -0.3949  0.3896  0.2496
24875W        W41349   2.466   6.132   0.490  0.0246 -0.1779  0.4030
24876W        W41350  15.376   8.991   5.844  0.0677 -0.1610  0.0625
24877W        W41351   7.332  12.943  15.963 -0.0030 -0.0473  0.1642
24878W        W41352  16.497  10.975   2.717  0.0657  0.1737 -0.2853
24879W        W41353   1.735   6.176   4.961 -0.1827 -0.0857 -0.1979
24880W        W41354   5.020  16.115   1.976 -0.0053 -0.2438 -0.2749
24881W        W41355   7.342  15.935  15.547 -0.3005 -0.0760  0.0673
24882W        W41356   2.206  12.601  11.990 -0.1025  0.3209 -0.0609
24883W        W41357   4.213   7.602  13.240  0.0181  0.1480  0.0947
24884W        W41358   1.012   1.496   0.970 -0.2118 -0.2114 -0.3455
24885W        W41359  11.517  11.653  16.329  0.1749  0.1702 -0.0553
24886W        W41360  14.212  10.380   1.009 -0.1124 -0.2141 -0.2766
24887W        W41361   6.907   4.885   4.145 -0.0524 -0.1047 -0.3188
24888W        W41362   9.150  14.146  13.538 -0.0238 -0.0230  0.1404
24889W        W41363   0.434   2.829   4.031  0.1916 -0.0128 -0.1329
24890W        W41364  10.716  14.538   4.396 -0.1241  0.2642 -0.0523
24891W        W41365  11.645   0.135  12.776  0.0231 -0.1785  0.0509
24892W        W41366  17.477  15.950  11.823  0.3135  0.0061 -0.1289
24893W        W41367   8.250  12.234   2.849  0.1979 -0.0332  0.0562
24894W        W41368  14.274  11.865   1.009 -0.0544  0.1208 -0.0521
24895W        W41369   2.027   8.768   0.053 -0.0420  0.0531  0.1460
24896W        W41370  12.401  11.332   5.142  0.1078 -0.3280 -0.0727
24897W        W41371   4.781  14.032  14.937 -0.1291  0.1679 -0.2929
24898W        W41372  11.573   9.849  13.536 -0.0669  0.0764  0.4910
24899W        W41373   1.206   9.957  13.157  0.0832 -0.2241 -0.3490
24900W        W41374   7.938   4.179   4.064 -0.0233 -0.1012 -0.1383
24901W        W41375   8.694   6.204   5.007 -0.0989 -0.1754 -0.1408
24902W        W41376   0.831   0.909  11.680 -0.0797  0.2567  0.1859
24903W        W41377   0.560   6.413   4.557  0.3103 -0.0681  0.6018
24904W        W41378   7.088  13.770  12.459  0.0702  0.1504  0.0832
24905W        W41379  17.828   9.209  11.655  0.2142  0.1502 -0.2613
24906W        W41380   7.607   3.887  16.414 -0.0392  0.1093 -0.1446
24907W        W41381   6.766  12.933  16.277  0.1667 -0.3195 -0.2016
24908W        W41382  10.530  13.129   2.853 -0.0101 -0.1384  0.1748
24909W        W41383  17.149   7.542   0.477  0.0576 -0.1928 -0.3133
24910W        W41384   4.707   0.165   2.484  0.0191  0.2038  0.1914
24911W        W41385   9.850  16.911   3.587 -0.0592 -0.2680 -0.0740
24912W        W41386  17.819   1.028   0.249  0.0116 -0.0014  0.1660
24913W        W41387   9.840  11.167   1.002 -0.0050  0.0134 -0.1594
24914W        W41388   6.266  13.095   3.863  0.0881  0.0815 -0.2342
24915W        W41389  17.624   4.799   2.515 -0.1693 -0.1414 -0.1453
24916W        W41390  14.988  15.887   1.589 -0.0789 -0.0518 -0.3489
24917W        W41391   7.124   0.752   3.565 -0.0334  0.0232  0.0317
24918W        W41392   2.392  15.127   3.654 -0.2925 -0.0024  0.1166
24919W        W41393  10.559   2.660   1.953  0.1797  0.0262 -0.2722
24920W        W41394   3.278   0.332  14.832 -0.0776 -0.0152  0.2463
24921W        W41395  13.014   6.515  15.730 -0.3334 -0.0494 -0.2625
24922W        W41396  12.468   1.928  12.115  0.1242  0.0695 -0.0589
24923W        W41397  11.085   6.114  14.454  0.1022 -0.2318  0.0032
24924W        W41398   0.628  17.423  12.301 -0.2158 -0.0865  0.1523
24925W        W41399  15.643   2.009  14.913  0.3679 -0.0610 -0.0921
24926W        W41400   1.931   5.549  15.752 -0.0867  0.1939 -0.3162
24927W        W41401  14.344  15.929  15.217  0.1633  0.0474  0.1018
24928W        W41402  15.642   9.725   2.142 -0.2280 -0.1960  0.0348
24929W        W41403   1.421  14.773  16.529  0.0229  0.1556 -0.1250
24930W        W41404  17.263  16.326  14.689  0.3477 -0.0941  0.1063
24931W        W41405  16.762   2.997   4.961  0.0397 -0.0076 -0.0898
24932W        W41406  10.757   6.474   2.381  0.0920  0.2205  0.1776
24933W        W41407  14.800   9.624   3.078 -0.0469  0.2053  0.4448
24934W        W41408   8.747   9.991   4.693 -0.1287 -0.0440  0.2502
24935W        W41409   0.019   6.136  14.878  0.2282  0.0614  0.4062
24936W        W41410   9.921   0.219   0.844  0.3410 -0.2338 -0.1105
24937W        W41411   4.844  14.210  12.883 -0.0537 -0.3452 -0.3631
24938W        W41412   0.253   6.434   4.972 -0.3234 -0.1286 -0.0195
24939W        W41413   8.475   1.811   0.075  0.0297  0.1541 -0.3269
24940W        W41414   9.033  15.470  12.575  0.4238  0.3524 -0.1452
24941W        W41415   0.135   7.518   4.769  0.1132 -0.1690 -0.0683
24942W        W41416  13.977   5.396  11.956 -0.0636 -0.1786 -0.1086
24943W        W41417  13.466  16.245  12.703 -0.0587 -0.2534 -0.2026
24944W        W41418   3.401   3.431  13.144 -0.3333 -0.0048  0.0738
24945W        W41419   2.248   7.952   0.500  0.0350  0.1347  0.2858
24946W        W41420   3.361   3.003  11.987  0.1147  0.0349  0.0406
24947W        W41421   7.777   3.450   0.019 -0.1948 -0.1770  0.0984
24948W        W41422  12.469  12.363  15.881 -0.0404 -0.2565 -0.2630
24949W        W41423   2.648   3.740   0.841 -0.2510  0.0434 -0.2554
24950W        W41424   0.203   5.308   0.936  0.0844 -0.0123  0.0930
24951W        W41425   2.567   1.174  13.581  0.1046 -0.1261  0.1464
24952W        W41426   8.466   1.645  12.020  0.0200  0.2211  0.3290
24953W        W41427   7.261  10.489   0.071  0.1055 -0.1457  0.2684
24954W        W41428   0.530  14.951  13.536 -0.1565 -0.0716 -0.0383
24955W        W41429  16.445  15.366  15.232 -0.0421  0.0708 -0.0528
24956W        W41430  17.033   6.412  12.874  0.0622  0.1475 -0.1339
24957W        W41431  17.609   4.301   3.250  0.2355 -0.0786 -0.1228
24958W        W41432   7.140   4.671  16.746 -0.0224 -0.0383  0.3668
24959W        W41433  16.046   0.080   0.664  0.1073 -0.1096  0.0448
24960W        W41434   0.448  12.904  13.586  0.2511 -0.4780 -0.2465
24961W        W41435   4.247   9.568   4.292  0.1025 -0.0095  0.1011
24962W        W41436  12.103   9.008   3.681 -0.2589 -0.1253 -0.0645
24963W        W41437   4.484   1.957  15.085  0.1625  0.0964  0.1452
24964W        W41438   3.070   4.111   4.240 -0.0646  0.0996 -0.1785
24965W        W41439   0.853   1.083   0.368  0.1199 -0.2881 -0.0334
24966W        W41440   8.683  10.495  15.170  0.1700  0.0514 -0.0161
24967W        W41441  16.013   1.844   1.224  0.0042  0.0373 -0.2426
24968W        W41442  14.652   6.314  16.542 -0.1165 -0.0054  0.2986
24969W        W41443   9.669  14.308  11.992  0.3705 -0.1033  0.2317
24970W        W41444  16.027  11.984  12.568 -0.3195 -0.2877  0.1684
24971W        W41445   3.510  10.626   1.264  0.1088 -0.1126 -0.1006
24972W        W41446  10.339   4.441  13.405  0.1248 -0.1716 -0.0991
24973W        W41447   6.978   0.931   1.485 -0.1619 -0.0742  0.0733
24974W        W41448  14.981   3.025  13.019 -0.1039  0.0436 -0.1314
24975W        W41449   8.184   5.789   4.493  0.0165 -0.0457 -0.0901
24976W        W41450   7.665   7.554   1.521 -0.0791  0.0964 -0.2049
24977W        W41451   4.762   0.122  14.615 -0.0128 -0.0252  0.3223
24978W        W41452   5.917  12.969   0.880 -0.2709  0.1714  0.0191
24979W        W41453  14.796  11.318  15.992  0.3083 -0.1518  0.0971
24980W        W41454  15.037  16.542   3.036  0.2849 -0.1968  0.2767
24981W        W41455  14.527  13.239  14.824  0.0195  0.0796  0.1306
24982W        W41456  14.055   2.606   2.790  0.0424  0.1531  0.1982
24983W        W41457  11.293  11.976   0.583  0.2445 -0.1414 -0.2687
24984W        W41458   2.858   4.618   4.465  0.0389 -0.1331 -0.1817
24985W        W41459   4.384  12.787   4.397 -0.1066 -0.2737 -0.2534
24986W        W41460  10.142   4.505   4.400  0.1563 -0.0725  0.2492
24987W        W41461  13.790  11.602   1.828 -0.1417  0.1925  0.0949
24988W        W41462   3.038   4.869   3.371  0.1058  0.1739 -0.1420
24989W        W41463   5.795  14.664  11.509  0.0595 -0.0806 -0.0757
24990W        W41464   1.693  14.222   1.789  0.1834 -0.1968 -0.2218
24991W        W41465   3.778   6.935  11.549  0.4693  0.0744  0.5937
24992W        W41466   3.284  16.540  11.795 -0.0366 -0.4647  0.1272
24993W        W41467  13.589  11.445   2.321 -0.2183 -0.2439 -0.2909
24994W        W41468  13.488   6.743   4.027  0.2787  0.2882  0.0191
24995W        W41469  16.188   7.794  15.162  0.0570 -0.2269 -0.0079
24996W        W41470  10.537   7.561  16.595 -0.0879  0.1271 -0.1419
24997W        W41471  10.969   2.972  13.053 -0.2006  0.0086  0.1223
24998W        W41472  13.185   1.853  13.870 -0.0029  0.0229  0.0549
24999W        W41473   5.202   9.944   4.270  0.0397  0.3975  0.2478
25000W        W41474  15.323  11.728   0.128 -0.4020 -0.0427 -0.0852
25001W        W41475  13.360   9.274   5.173  0.1891  0.0252  0.4035
25002W        W41476   1.094   7.082  14.594 -0.0739  0.3884  0.0724
25003W        W41477   9.461   0.583   2.612 -0.1406 -0.2231 -0.1018
25004W        W41478  12.236   9.956   3.357  0.2375 -0.4070 -0.1175
25005W        W41479  15.850  14.976   4.696 -0.0165 -0.1953 -0.1506
25006W        W41480  14.794   1.376  16.704  0.1984  0.0428 -0.0883
25007W        W41481  13.041  12.190  15.369 -0.0781 -0.4833  0.0274
25008W        W41482   8.907  12.996  13.553 -0.0277 -0.3764  0.0729
25009W        W41483   1.953   6.369   3.254  0.2668  0.1755 -0.4447
25010W        W41484  17.835  14.723   0.378  0.0590 -0.2571  0.0385
25011W        W41485   8.862   9.214   4.512  0.0300 -0.3329  0.2602
25012W        W41486   1.612   3.633  12.958 -0.0016  0.3786  0.1155
25013W        W41487   8.400   3.511  15.616 -0.1873  0.3159  0.1165
25014W        W41488  10.354   2.394   4.673  0.2182  0.1618 -0.0574
25015W        W41489   6.121   8.966  12.998  0.0810 -0.0485  0.0371
25016W        W41490   3.091   3.866   4.762  0.1059  0.1618 -0.0019
25017W        W41491  14.595   0.581   0.502 -0.1764  0.0380  0.0529
25018W        W41492   3.325   3.934   2.302  0.4269 -0.0086  0.0189
25019W        W41493   5.557   1.638  11.488  0.0662 -0.4276  0.2540
25020W        W41494   1.021  10.017   1.407 -0.0522  0.0163 -0.2428
25021W        W41495   8.778   4.119   3.637  0.1535  0.2252 -0.2452
25022W        W41496  15.572   1.143   0.747 -0.0603 -0.0868 -0.0839
25023W        W41497   5.716  12.634   3.438  0.1368  0.0363 -0.0530
25024W        W41498   5.677   9.818  15.380 -0.0777 -0.1440  0.0999
25025W        W41499   6.678   7.118  13.088 -0.2726 -0.1712 -0.1782
25026W        W41500  10.433   4.711   1.688  0.2626 -0.0464  0.3784
25027W        W41501   5.982  12.313  13.317 -0.1377 -0.1764  0.4715
25028W        W41502   3.311  14.957  14.819 -0.0765 -0.2700 -0.1972
25029W        W41503   8.431   2.715  13.043  0.1814  0.0298 -0.0056
25030W        W41504   4.747   5.464  16.091 -0.0244  0.0321 -0.1084
25031W        W41505  14.481  12.940   3.158  0.1603 -0.1253 -0.0383
25032W        W41506   7.970  16.681   3.506  0.1030 -0.1821 -0.3246
25033W        W41507   7.608   3.112   1.735 -0.0072  0.0552  0.2244
25034W        W41508   5.978   3.416   3.917  0.0060 -0.0544 -0.0503
25035W        W41509  11.612   7.720  15.514 -0.1060 -0.1060  0.1253
25036W        W41510  14.211   8.640  13.770 -0.0491 -0.0897 -0.0801
25037W        W41511   6.707   2.777  16.266 -0.1113  0.4633 -0.6146
25038W        W41512   9.487  11.500  15.651  0.0531 -0.0714 -0.1044
25039W        W41513  16.701  12.177   3.233  0.1149  0.0010  0.0663
25040W        W41514   0.148  11.044  16.273 -0.3528 -0.0385  0.0689
25041W        W41515   0.827  11.595   4.494 -0.1418 -0.1472 -0.0085
25042W        W41516   3.385  10.028   1.304 -0.0598 -0.0071  0.1897
25043W        W41517  13.456   0.927   4.076  0.2025  0.2038 -0.0248
25044W        W41518   3.356   5.043   2.557  0.2215 -0.1749 -0.0090
25045W        W41519  11.863  15.928   5.507  0.0260 -0.0071 -0.1821
25046W        W41520   4.707   3.016   0.210 -0.2047 -0.3091  0.2401
25047W        W41521   0.922  14.923  11.670  0.1007 -0.2105  0.2062
25048W        W41522   5.236  14.431  12.049  0.0375  0.2761  0.2817
25049W        W41523  15.052  11.170   4.413  0.3989  0.1392 -0.0909
25050W        W41524   0.123  13.305  12.270  0.0344 -0.2231  0.2581
25051W        W41525  16.448   7.440  13.995 -0.0959 -0.0541  0.0798
25052W        W41526  15.130  13.077   5.572  0.0717  0.1885  0.2688
25053W        W41527   3.544   1.406  12.364  0.0825  0.0270  0.0161
25054W        W41528   3.009   2.369  15.557  0.1267 -0.0909  0.2538
25055W        W41529   1.350   2.288  13.738 -0.0366  0.0442 -0.0578
25056W        W41530  12.924  12.775  16.563  0.1103 -0.3149 -0.0849
25057W        W41531   9.342   7.444   6.332 -0.0705 -0.1320 -0.1438
25058W        W41532  11.730   5.928  11.050 -0.2716 -0.2735 -0.0773
25059W        W41533  10.734  16.846   4.011  0.1611 -0.2228 -0.1002
25060W        W41534   1.767   1.678  14.750  0.0876 -0.0834 -0.1705
25061W        W41535   6.316  14.271  14.409 -0.0222  0.1881  0.2900
25062W        W41536   6.982  16.608   4.544 -0.0292 -0.4640 -0.1046
25063W        W41537  11.773  12.438   4.603  0.1561 -0.1197  0.2646
25064W        W41538  16.061   9.710  13.570 -0.0793  0.2027  0.1001
25065W        W41539  16.163   0.344   4.545 -0.0224 -0.0315  0.2476
25066W        W41540  13.933  17.177  13.453 -0.1680 -0.3418 -0.1136
25067W        W41541   3.935   9.153  12.189  0.0742  0.3136 -0.2371
25068W        W41542   9.355  15.316   0.962  0.0915  0.2104  0.1387
25069W        W41543   7.714  10.955   0.961  0.1102 -0.3999 -0.0349
25070W        W41544   7.059   9.768   2.373 -0.1172 -0.2775 -0.1525
25071W        W41545   8.498   5.907  11.871 -0.1900 -0.2818 -0.1203
25072W        W41546  15.132  13.747  13.522  0.1773 -0.0317 -0.0618
25073W        W41547  10.620   4.426   1.181  0.0237  0.0613 -0.0742
25074W        W41548   8.116   8.890  15.771 -0.0993 -0.1956 -0.2893
25075W        W41549   4.343   5.549  15.860 -0.0767  0.0080  0.2171
25076W        W41550  17.853   4.392  12.176 -0.0894 -0.5351  0.1116
25077W        W41551   4.632   3.411  13.210 -0.2222  0.0310 -0.0102
25078W        W41552   8.565   1.952  16.289  0.1132 -0.1327 -0.2547
25079W        W41553   5.704  17.626   1.929  0.1054 -0.3681  0.0172
25080W        W41554  13.647   3.126   3.317  0.0724  0.1840 -0.0706
25081W        W41555  15.996   1.806  13.062  0.0669  0.1162  0.0019
25082W        W41556   9.829   1.228   4.990  0.0564 -0.0741  0.1914
25083W        W41557   1.029   8.832   0.826  0.2203 -0.3583  0.4322
25084W        W41558   7.832  13.597  14.540 -0.0249  0.1251  0.0191
25085W        W41559   1.652  13.252   4.772  0.0356 -0.1678 -0.1289
25086W        W41560  11.782   0.161  14.703 -0.0597  0.1887  0.1414
25087W        W41561  16.246  12.350  15.621  0.0287  0.1495  0.0535
25088W        W41562   8.521  11.389  14.499 -0.0713  0.1130 -0.2280
25089W        W41563   5.240  16.019  15.303 -0.1256  0.2907  0.0935
25090W        W41564  16.008   7.575  13.774  0.0443 -0.2146 -0.1391
25091W        W41565   9.082  12.675  14.963  0.1553  0.1087  0.2247
25092W        W41566   2.637   0.720   2.946 -0.1774 -0.2463 -0.1608
25093W        W41567   4.584   1.235   4.660 -0.2546 -0.1719  0.1853
25094W        W41568   8.514  12.535  11.142 -0.1484  0.0390 -0.0348
25095W        W41569   7.247   8.023   2.035  0.2284 -0.0746 -0.0576
25096W        W41570   3.311  15.783   4.097  0.0241 -0.1991 -0.0345
25097W        W41571   6.153  17.762   3.059  0.1938  0.1006  0.2118
25098W        W41572   4.113  10.478  12.489 -0.0147  0.0584 -0.3226
25099W        W41573  17.940  12.807  12.730 -0.0966  0.0857 -0.0387
25100W        W41574   5.692   5.403   0.479  0.0338 -0.0596 -0.0738
25101W        W41575  17.379  10.806   3.300 -0.1084  0.2631 -0.3295
25102W        W41576   0.086   2.139  16.132 -0.2097  0.0216 -0.0362
25103W        W41577  12.787   3.324  11.913  0.3155 -0.0690 -0.1444
25104W        W41578  13.261   9.805  15.470  0.2907 -0.1500  0.1577
25105W        W41579  14.480   8.627   5.435 -0.2014  0.1064 -0.0928
25106W        W41580  12.977   2.740   3.504 -0.0706  0.3101  0.0528
25107W        W41581   6.350   0.785  15.348 -0.0106  0.0611  0.1061
25108W        W41582   2.028  13.523   4.964  0.1534 -0.5104 -0.0699
25109W        W41583   4.617  16.333  13.707 -0.0752  0.0648 -0.1734
25110W        W41584   8.312   7.315  11.860  0.1178 -0.1619  0.1094
25111W        W41585   8.466   7.866   1.976 -0.3769  0.0624  0.1553
25112W        W41586  13.896  15.460   0.542 -0.0713 -0.0897 -0.1723
25113W        W41587  13.184  15.430   4.529  0.0943  0.0749  0.1675
25114W        W41588   5.751   5.526  15.820 -0.1802 -0.4060 -0.0609
25115W        W41589  13.485   0.784  16.548 -0.0227  0.1334  0.2981
25116W        W41590   7.023   7.976   2.940  0.0290 -0.1678  0.2460
25117W        W41591   8.845   4.527  15.870 -0.0803  0.3487 -0.0225
25118W        W41592   3.948  16.074   5.312  0.2307 -0.1595  0.0462
25119W        W41593   6.256   0.324  12.608  0.3977  0.2016 -0.2262
25120W        W41594  16.946  16.693  14.827  0.2875  0.0773  0.1534
25121W        W41595  15.070  15.133  13.881 -0.2443 -0.2662  0.1020
25122W        W41596  14.265   1.246   4.230 -0.2001  0.1238 -0.4923
25123W        W41597   5.875  16.002   0.490  0.0463  0.1470 -0.2934
25124W        W41598  16.047   5.768  15.028 -0.1530 -0.1631  0.1574
25125W        W41599   0.187  15.738   1.264 -0.0346  0.3516 -0.0573
25126W        W41600   8.649   2.655  11.556 -0.2465 -0.0142  0.0969
25127W        W41601  14.731   9.074   1.016  0.1299 -0.0790  0.1563
25128W        W41602  16.438  13.557  14.278  0.0399 -0.2020  0.1226
25129W        W41603   1.239  13.506  13.034  0.3024  0.2259 -0.1921
25130W        W41604   0.577  13.899   2.935 -0.1471  0.2440  0.0862
25131W        W41605   2.473   3.041  13.055  0.0488 -0.2405 -0.0519
25132W        W41606   5.057   8.151  14.084  0.0436  0.0874 -0.1915
25133W        W41607   1.986  14.864  16.540  0.0113 -0.2036 -0.2663
25134W        W41608   8.362  16.312   1.264 -0.0823 -0.0912  0.3047
25135W        W41609   2.004  11.613  12.503 -0.2552  0.3272 -0.1970
25136W        W41610  12.471  14.106  16.710 -0.2904 -0.0182  0.0321
25137W        W41611  12.633   8.513  16.308 -0.1651  0.2041 -0.2073
25138W        W41612  12.914  14.043   5.181  0.1997  0.2918  0.4129
25139W        W41613   9.611   6.185  11.668 -0.0657  0.0612  0.2773
25140W        W41614   3.554   3.984   4.523 -0.1228  0.1251  0.2382
25141W        W41615   4.179  14.394  16.711 -0.0927  0.1939  0.0385
25142W        W41616   2.400  16.508  13.157  0.0196  0.1305 -0.0055
25143W        W41617   3.481  10.828  11.878  0.1975 -0.5676 -0.2150
25144W        W41618   5.640   7.009  12.993  0.1010 -0.2227  0.0091
25145W        W41619   4.897   7.556  14.018 -0.0522 -0.0555  0.1423
25146W        W41620   7.547  11.103  13.074  0.2163 -0.0175  0.0760
25147W        W41621   1.445  14.082  12.760 -0.1288  0.0730  0.1018
25148W        W41622   6.011  12.392   3.882 -0.1370  0.2334  0.1728
25149W        W41623   4.412   8.013  14.444  0.0991 -0.1139  0.1090
25150W        W41624   8.026  14.638   3.730  0.2764 -0.1345  0.1598
25151W        W41625   2.359   6.882   2.465 -0.5074  0.2104 -0.1126
25152W        W41626   2.886  16.038   1.970 -0.3669  0.3888 -0.1806
25153W        W41627   5.269   3.419   0.453 -0.1109  0.2496  0.1521
25154W        W41628   6.619  16.745  12.233 -0.0344 -0.1863 -0.0710
25155W        W41629  17.299   4.986   5.254  0.0387  0.0005  0.0364
25156W        W41630  13.241   8.865   4.838  0.0848  0.2730  0.0389
25157W        W41631  16.050   3.559   3.252 -0.0750 -0.0818  0.2777
25158W        W41632  15.862  10.127   2.758  0.1760 -0.3223  0.0954
25159W        W41633  14.471  14.508   3.584  0.0105 -0.0337  0.0902
25160W        W41634   1.343   9.759   1.748  0.0590 -0.1074 -0.0896
25161W        W41635  11.616  13.847   2.762 -0.1732 -0.0219  0.1996
25162W        W41636  15.613   9.496  14.838  0.0774  0.4659  0.3524
25163W        W41637   7.152   1.958   0.064 -0.2167  0.1140  0.0957
25164W        W41638  12.355  17.186   1.304  0.1378 -0.0256 -0.1518
25165W        W41639   6.934   8.770  15.846  0.0709 -0.0115 -0.2094
25166W        W41640  17.267   6.765  16.679  0.0997 -0.1171 -0.1173
25167W        W41641  11.069   1.871   0.444  0.0841 -0.2500 -0.1319
25168W        W41642   2.722   2.037   1.333  0.3430 -0.0998 -0.2490
25169W        W41643   2.439   7.461  16.143  0.1117  0.0352  0.0964
25170W        W41644  16.658   5.317   0.167  0.1271 -0.2649  0.2892
25171W        W41645   9.822  11.387  16.054 -0.1219 -0.3920 -0.2555
25172W        W41646   3.889  16.165   1.215  0.0329  0.0027  0.2249
25173W        W41647   7.541  10.151   4.019  0.2321 -0.3258 -0.0843
25174W        W41648  12.321  11.110   3.437  0.0356  0.0237  0.2509
25175W        W41649   1.734   9.720   5.956  0.1996  0.1532  0.0847
25176W        W41650   9.318   8.865   2.528  0.1441 -0.1154  0.1797
25177W        W41651   9.448  10.868  16.171  0.3091 -0.1729  0.2262
25178W        W41652  12.966   0.956  11.990  0.1841 -0.1793  0.1078
25179W        W41653   0.740  12.813   2.840 -0.0355 -0.1565 -0.0727
25180W        W41654   2.775  16.048   1.041  0.0275 -0.0097  0.0651
25181W        W41655   1.036   9.856  13.684  0.1940 -0.1950 -0.1544
25182W        W41656   1.648   5.717   1.017  0.1886 -0.1893  0.0768
25183W        W41657   8.294   3.375  16.466  0.0589 -0.0267  0.1997
25184W        W41658   3.629   4.639  12.188  0.1305  0.1192  0.3431
25185W        W41659   7.893  14.509   2.694  0.0930  0.0405 -0.0047
25186W        W41660   7.319   2.585   3.143  0.0882  0.0893 -0.0683
25187W        W41661  14.557   4.582  14.716 -0.2439  0.0583  0.1192
25188W        W41662   6.836   9.118   5.464  0.1938  0.3133  0.1819
25189W        W41663  10.376   7.697   3.733  0.0184 -0.3007  0.0645
25190W        W41664   0.961  11.909  11.617 -0.0432  0.0530  0.0678
25191W        W41665  17.410   2.347   5.464 -0.2219  0.0984 -0.0131
25192W        W41666   5.528   6.831   1.465 -0.4691  0.2483  0.0442
25193W        W41667  12.086  13.335   0.065 -0.1214 -0.3411  0.0011
25194W        W41668  14.066  11.292   2.182  0.0413  0.1983  0.0287
25195W        W41669  13.749   4.846  15.417 -0.0572 -0.3727 -0.1050
25196W        W41670  10.377   1.157  16.714 -0.1526 -0.0145 -0.3497
25197W        W41671  16.872   3.004   4.221 -0.0138  0.1499 -0.1571
25198W        W41672  10.041   0.180  14.289  0.0577 -0.0197  0.2519
25199W        W41673  17.878  15.920   5.159 -0.2670 -0.1003  0.0958
25200W        W41674   6.861   2.203  15.564 -0.0463  0.4269 -0.1388
25201W        W41675   0.955   4.269  14.534  0.1151  0.3742  0.2330
25202W        W41676   0.862  13.137   4.108 -0.1018 -0.1022 -0.0037
25203W        W41677   4.981   1.116   1.290  0.0556 -0.1093  0.1512
25204W        W41678   0.182  14.223  14.691 -0.1238 -0.0115  0.0585
25205W        W41679   2.165  15.860   0.331 -0.0409 -0.0826 -0.0277
25206W        W41680   8.700  10.814   4.483  0.1296  0.1779 -0.1155
25207W        W41681   7.866   1.204   3.332  0.0940  0.2823  0.1972
25208W        W41682   7.466  11.883   5.644 -0.0598 -0.3326 -0.0860
25209W        W41683   8.673  14.182  13.445 -0.0788 -0.0975 -0.0794
25210W        W41684  15.948  13.755  15.647 -0.3088  0.1123  0.1159
25211W        W41685   2.658  12.382   2.181 -0.0951 -0.0669 -0.0482
25212W        W41686   2.665  11.510   5.067  0.5525  0.1480  0.0635
25213W        W41687   6.520   3.059   0.407 -0.1079  0.3835 -0.0025
25214W        W41688   6.290  10.638  15.092 -0.0446 -0.0299 -0.2746
25215W        W41689   4.939   0.132  12.740  0.2414 -0.0656  0.0067
25216W        W41690   6.539  12.570  15.065  0.1650  0.1260  0.2225
25217W        W41691   1.826   8.184  15.834  0.2057 -0.0121 -0.0807
25218W        W41692  16.391   2.534  16.043 -0.1022 -0.1873  0.0056
25219W        W41693   4.017   5.628   2.319  0.2495  0.2054  0.0871
25220W        W41694  13.372  14.678  14.144  0.2436  0.2138  0.0451
25221W        W41695   4.373  17.201  15.059  0.0294  0.1813 -0.1811
25222W        W41696   6.009   2.139   4.559 -0.1608  0.0392  0.0216
25223W        W41697   8.025   4.508  16.436 -0.1200 -0.1802 -0.2935
25224W        W41698  13.274  17.655  12.918  0.1616 -0.1841  0.1598
25225W        W41699  11.516   7.748   0.987  0.1341 -0.0129 -0.2294
25226W        W41700   4.041  14.443  14.244  0.1337 -0.0504  0.0198
25227W        W41701   1.139   1.533  12.817  0.2237 -0.0057  0.0831
25228W        W41702   8.371   9.629   3.840 -0.1464 -0.2723 -0.2055
25229W        W41703   6.624   9.684   3.975  0.1374  0.1693 -0.1639
25230W        W41704  12.780   6.472   3.907 -0.1133 -0.1233  0.2032
25231W        W41705  15.318   5.526  15.651 -0.3582  0.0061 -0.0060
25232W        W41706   5.179   4.075   0.536  0.0191  0.2285 -0.1988
25233W        W41707  10.523   5.623   2.639 -0.1628  0.0611 -0.0363
25234W        W41708  13.367  13.973   3.188 -0.1682 -0.0227 -0.0502
25235W        W41709   4.805   3.822   0.802  0.1145 -0.2542  0.1363
25236W        W41710  12.473   3.013   0.793  0.0062  0.2432 -0.4396
25237W        W41711  10.133   9.876   3.731 -0.1132 -0.1868  0.2542
25238W        W41712   2.603  17.517  15.865  0.2723  0.2734  0.1312
25239W        W41713   7.810  12.324  14.800 -0.0231  0.0437 -0.1961
25240W        W41714  14.309  10.257  13.859 -0.3348  0.0234 -0.3593
25241W        W41715   7.118  16.316   3.537  0.1571 -0.0469  0.3392
25242W        W41716   7.866  16.673   0.580 -0.1173  0.0114 -0.2419
25243W        W41717   1.217   6.901  13.195 -0.0190 -0.2810 -0.1480
25244W        W41718   7.796  14.975   2.940  0.0274 -0.3531  0.0437
25245W        W41719   1.731  10.633  12.586 -0.0436 -0.0144 -0.2250
25246W        W41720   6.697  10.602   4.470  0.1378  0.1551 -0.1805
25247W        W41721   4.041   6.578  15.424 -0.2959 -0.2930  0.0806
25248W        W41722   9.173   5.832   4.306  0.0241  0.2118 -0.0296
25249W        W41723   6.915   7.438  15.024 -0.3547 -0.2467  0.3650
25250W        W41724   3.029  13.833  12.003  0.0962  0.2797  0.2637
25251W        W41725   9.704   2.380  14.369 -0.1065 -0.0276 -0.2032
25252W        W41726  13.355  15.387   5.081  0.0343 -0.1141 -0.0830
25253W        W41727  17.368  14.432   5.851 -0.1163 -0.1086  0.4201
25254W        W41728   3.952  13.263  16.158  0.2405 -0.0214  0.0962
25255W        W41729  15.354  10.158   1.868  0.2127  0.1044 -0.0281
25256W        W41730   7.748  17.708  12.320 -0.2485  0.1066  0.1142
25257W        W41731  16.990   4.943  12.738 -0.0857  0.1305 -0.1124
25258W        W41732  11.488   5.571   2.259 -0.3013 -0.1651 -0.0798
25259W        W41733   7.828   4.127  15.528  0.0323  0.1949  0.0928
25260W        W41734  13.864   9.429   5.244  0.4681 -0.0916  0.0986
25261W        W41735   3.208   2.638   5.273  0.1070  0.0421 -0.1705
25262W        W41736   6.062   2.886   5.704 -0.2337 -0.2691 -0.5269
25263W        W41737   6.469  13.648   0.620  0.2796 -0.0568 -0.0351
25264W        W41738   5.996  11.314   2.965  0.1227  0.1506 -0.0232
25265W        W41739   0.035  17.818   5.449 -0.0314 -0.1467  0.0889
25266W        W41740  13.642   6.260  14.668  0.0169 -0.1477 -0.0846
25267W        W41741  12.805  14.076   4.173 -0.1869  0.1304  0.1110
25268W        W41742   0.796   8.848  16.283 -0.0823  0.4384  0.0387
25269W        W41743   8.028  16.800  12.713 -0.0931 -0.0392  0.2816
25270W        W41744   6.602   0.645   3.410 -0.1198  0.0486 -0.2218
25271W        W41745  13.408   9.572   3.119  0.1096 -0.2039 -0.1326
25272W        W41746  15.028  16.247   2.531  0.0738 -0.1374 -0.1232
25273W        W41747  16.543  15.914   4.485  0.2208  0.3044  0.0611
25274W        W41748  15.531   1.609   5.656 -0.1266  0.5344  0.0748
25275W        W41749   8.640   9.985  14.509  0.1464 -0.0411  0.3728
25276W        W41750  15.937   5.099   0.129 -0.2488 -0.1442  0.1589
25277W        W41751   8.404  11.902   1.428  0.0684 -0.1147 -0.1571
25278W        W41752   0.818   7.067  12.849 -0.2068  0.0784 -0.2206
25279W        W41753  15.527  10.958   2.059  0.1694 -0.0218 -0.1827
25280W        W41754   2.219  15.563   6.081  0.0640  0.1176 -0.1700
25281W        W41755  14.388  13.677  11.671  0.0308  0.0001 -0.0644
25282W        W41756   2.884   9.839   2.195 -0.1074 -0.0287 -0.1404
25283W        W41757  14.936   0.896   1.298  0.6583  0.1904 -0.0522
25284W        W41758   1.038   9.921   4.532  0.0704 -0.1085 -0.2012
25285W        W41759  11.547   2.770  14.471 -0.1780 -0.2554  0.2202
25286W        W41760  12.223  15.992  12.154  0.1152  0.0349  0.4128
25287W        W41761  13.737   9.317  12.051 -0.0537  0.0384  0.2342
25288W        W41762   9.721   8.104  14.931 -0.2951 -0.2218 -0.0922
25289W        W41763   3.867  11.661   4.995 -0.0098 -0.1048  0.4261
25290W        W41764  13.761   7.748   3.984 -0.2700  0.3828  0.0495
25291W        W41765  17.991   8.662  15.721  0.0677 -0.1648 -0.0698
25292W        W41766  13.616  13.122   0.382  0.1550  0.1249  0.1854
25293W        W41767   8.848  15.701  12.956 -0.2992 -0.0847 -0.1344
25294W        W41768  13.549   1.162   1.239  0.1589 -0.1364 -0.2794
25295W        W41769  13.294  16.954  14.187  0.3281  0.0311  0.1096
25296W        W41770   7.350   3.500  15.049  0.4452  0.1015  0.0336
25297W        W41771   7.857   2.106   3.610  0.0390  0.1723  0.0849
25298W        W41772   8.713  13.052  12.596 -0.1238 -0.0243  0.0509
25299W        W41773  10.645   2.319  14.125 -0.0666  0.0381  0.1685
25300W        W41774   2.905  12.334   3.954  0.0177  0.1389 -0.2307
25301W        W41775  12.085   8.676  16.273 -0.0000 -0.0924 -0.2369
25302W        W41776   4.832  12.388  14.316  0.1542  0.2559  0.3612
25303W        W41777   5.779  11.059   0.566 -0.1115  0.1054 -0.0425
25304W        W41778   4.110  17.428  12.724  0.0696  0.1442 -0.0161
25305W        W41779   2.617   5.313  12.836  0.2452 -0.1388  0.0456
25306W        W41780   3.830   5.932   5.634  0.0651  0.0241  0.0287
25307W        W41781  15.081  13.230  11.620 -0.1810  0.2332 -0.4712
25308W        W41782   8.937  10.251   0.937 -0.1964  0.1271  0.0935
25309W        W41783   1.080   4.247  16.420  0.0659  0.0967 -0.0538
25310W        W41784  11.332   9.896   0.171  0.0916 -0.4363  0.1179
25311W        W41785   1.366   9.309   3.080  0.3053 -0.3280 -0.2302
25312W        W41786  14.383   8.416  14.342  0.4027 -0.3131  0.0709
25313W        W41787   7.905   9.043   4.667 -0.1807 -0.0703 -0.0666
25314W        W41788   8.087  13.231  13.296  0.0142 -0.1010  0.1231
25315W        W41789  15.211  11.145   1.051 -0.0505  0.1164 -0.0663
25316W        W41790  13.520  11.419  14.885 -0.3566 -0.2151 -0.0432
25317W        W41791  10.235   9.605  10.854  0.1347 -0.2078  0.4364
25318W        W41792   5.357  14.393   2.715 -0.1250 -0.2419 -0.2405
25319W        W41793   7.767  16.656   2.365  0.0157  0.1069 -0.4192
25320W        W41794  11.867  17.875   1.802 -0.3897 -0.2621 -0.1291
25321W        W41795  11.349   0.704  13.987  0.0971 -0.3404  0.1290
25322W        W41796   5.626   5.477   3.502 -0.0019 -0.0885 -0.1938
25323W        W41797  11.935   5.556  15.430 -0.2770  0.3718 -0.2451
25324W        W41798   3.418   7.644  15.912 -0.1417  0.0385  0.0885
25325W        W41799   9.107   5.713  15.300 -0.2232  0.1218  0.0330
25326W        W41800   5.913   7.173   5.093  0.4946  0.1177 -0.5927
25327W        W41801  11.159   3.698   4.861  0.0595  0.4562  0.0878
25328W        W41802  17.073   8.254   1.579  0.3777  0.1969 -0.0881
25329W        W41803  15.131  14.785  15.591 -0.0069  0.1453 -0.0671
25330W        W41804  11.474  17.500   1.369 -0.1028 -0.0300  0.0919
25331W        W41805   7.894   6.119  13.071 -0.1599 -0.2613 -0.0282
25332W        W41806   0.272   5.508  13.093 -0.1426 -0.0305  0.3709
25333W        W41807  10.141   4.370  16.633  0.2645 -0.2553  0.2612
25334W        W41808  11.424   8.628   0.362  0.0884 -0.4215  0.0830
25335W        W41809  16.968   3.894  13.970  0.1590  0.2128  0.0627
25336W        W41810  17.414   8.123   4.309  0.1777 -0.0456  0.0305
25337W        W41811  12.999   9.213  12.538 -0.0491 -0.0536 -0.1320
25338W        W41812   6.149  12.502  11.468  0.0929 -0.1314 -0.0262
25339W        W41813   3.021   9.005  16.477 -0.3134  0.0941  0.1419
25340W        W41814  16.593  10.547  13.165 -0.1608 -0.1076 -0.3542
25341W        W41815   8.953   1.899  14.342 -0.1478  0.0776  0.1207
25342W        W41816   2.003   3.518  13.551 -0.1347 -0.2727  0.0046
25343W        W41817  11.062  15.934  12.755  0.3165 -0.1238 -0.2888
25344W        W41818  17.364  14.792  11.927  0.0088  0.3765  0.3291
25345W        W41819   6.466  13.448  15.011  0.0222  0.0886  0.0972
25346W        W41820   2.783   6.582   0.678  0.5250  0.1652  0.1967
25347W        W41821   4.139   0.286   3.740  0.2375 -0.0844  0.1105
25348W        W41822   3.238   0.878   3.498 -0.0338  0.1896 -0.0890
25349W        W41823  11.487  16.952   0.089  0.1463 -0.2358 -0.1308
25350W        W41824   0.946   1.878  12.278  0.3366 -0.3528 -0.0561
25351W        W41825  11.429   7.492  12.312  0.2332 -0.2966 -0.1366
25352W        W41826  11.255   1.301   2.645  0.3834  0.0724 -0.0647
25353W        W41827   9.726  16.138   5.238 -0.3018 -0.2537  0.2467
25354W        W41828   4.977  16.411  15.153  0.0632  0.0300  0.0011
25355W        W41829   3.694  12.550   2.982  0.3463 -0.5186  0.1573
25356W        W41830  15.869   6.436  15.625 -0.0013  0.2754 -0.1545
25357W        W41831   6.248   7.054  16.101  0.0915  0.1576 -0.0992
25358W        W41832  15.119   0.437   0.292  0.1690 -0.1848 -0.2251
25359W        W41833   6.810   1.533   4.694  0.0242  0.1313 -0.1554
25360W        W41834   8.630  10.313   5.044 -0.0452 -0.0149  0.0085
25361W        W41835   7.852   8.545   5.898  0.0872 -0.1648  0.1070
25362W        W41836   4.636   0.986  13.445  0.2338  0.1789  0.0830
25363W        W41837   0.675   1.672   1.285  0.0237 -0.2682 -0.0160
25364W        W41838  15.728   0.935  14.929  0.1533 -0.3483 -0.0391
25365W        W41839  10.546   2.682  12.900  0.0341  0.1508 -0.2455
25366W        W41840   0.401   5.836  15.521 -0.0374  0.2249  0.0803
25367W        W41841  17.833   2.055   0.016  0.1274 -0.0612 -0.3116
25368W        W41842  17.010   4.576  16.617 -0.1760  0.3564  0.0653
25369W        W41843  16.596   6.768  14.935 -0.0239 -0.0705  0.1296
25370W        W41844   2.526  12.938   5.892 -0.1909 -0.0597 -0.2051
25371W        W41845   3.508  15.324  15.738 -0.2250  0.3189  0.2502
25372W        W41846   0.568   3.330  15.894 -0.1531 -0.2705 -0.3277
25373W        W41847  13.118   0.965  13.080  0.1442  0.3940 -0.0740
25374W        W41848  13.795  16.199   5.048  0.1989  0.1186  0.0954
25375W        W41849   8.937   9.771   2.203 -0.0025 -0.2489 -0.4462
25376W        W41850  14.746   2.278   5.698  0.2299  0.3416 -0.0724
25377W        W41851  15.814   7.584   3.895  0.0174 -0.1683  0.0365
25378W        W41852  15.143  17.639  13.048  0.0726  0.4345  0.1565
25379W        W41853  15.227   1.145   5.879 -0.3449 -0.1362 -0.1086
25380W        W41854  16.652  17.844   2.666 -0.1141 -0.0782 -0.2119
25381W        W41855  17.564   6.004  14.609 -0.0632  0.2803 -0.0496
25382W        W41856   2.239   9.374  15.426  0.0701  0.2476  0.0585
25383W        W41857  15.591  14.172  11.816 -0.1333  0.2530 -0.2318
25384W        W41858   4.097  11.707  15.519 -0.0061 -0.0480 -0.1481
25385W        W41859   8.899  15.025  16.475  0.1784 -0.0583 -0.1411
25386W        W41860  13.585   9.459   4.186 -0.1164  0.1638  0.1804
25387W        W41861   6.419   1.141   4.095 -0.0618  0.1631 -0.2058
25388W        W41862  10.963   5.698   2.036  0.1695  0.0423  0.2503
25389W        W41863  13.600   0.657   2.496 -0.2260  0.2333  0.1465
25390W        W41864   4.650   0.914  12.371 -0.2531  0.1320 -0.4575
25391W        W41865  15.508   6.181   3.764  0.0046 -0.0690 -0.2315
25392W        W41866  14.132   3.542   3.646 -0.0551  0.0816  0.0415
25393W        W41867  12.030  10.841   4.359  0.1487 -0.2734  0.1088
25394W        W41868   5.277   6.655  13.285 -0.0558 -0.3082  0.0778
25395W        W41869  15.871   2.567  14.265 -0.0478  0.1488  0.0462
25396W        W41870   2.427   3.046  13.970  0.1293  0.0714 -0.0171
25397W        W41871   0.297  16.643   1.491 -0.1945  0.1562 -0.2102
25398W        W41872  13.811  13.825  14.364  0.2026 -0.1294  0.0380
25399W        W41873  10.292  14.810   3.303  0.0993  0.1248  0.2035
25400W        W41874   7.570  14.099  12.751 -0.1195 -0.1961 -0.0566
25401W        W41875   8.274  15.730   0.456  0.0592 -0.0208  0.2809
25402W        W41876  16.701  14.617  11.927 -0.1388 -0.1946 -0.0393
25403W        W41877   8.479   0.388   0.801 -0.1654  0.0466 -0.1049
25404W        W41878   8.837  14.814   2.366 -0.1250  0.0697 -0.0162
25405W        W41879   9.935   2.095  14.729  0.1887  0.1914  0.0511
25406W        W41880   9.183   0.447  13.108  0.0290  0.0831  0.0114
25407W        W41881   4.434   3.763   4.315 -0.1734  0.2151 -0.0278
25408W        W41882  15.371   9.296  16.607  0.1416  0.0602 -0.0799
25409W        W41883  10.939   2.687   4.025 -0.0563 -0.2028  0.3604
25410W        W41884   4.169  10.462  14.960  0.0876  0.2010 -0.1696
25411W        W41885   5.512   0.670   4.298  0.0381 -0.2673 -0.1887
25412W        W41886  17.818  12.903  11.238  0.1438  0.2643 -0.0334
25413W        W41887  11.787   1.269   5.324  0.0774  0.0117 -0.0168
25414W        W41888   3.605   2.414  16.057 -0.0165  0.0238 -0.1701
25415W        W41889   2.789  17.975  13.655  0.3845 -0.2302 -0.2815
25416W        W41890  11.328   1.887   1.279  0.1211  0.0983  0.1961
25417W        W41891  12.792  16.028   2.426  0.1463 -0.2461  0.3075
25418W        W41892   8.796  15.111  12.252 -0.0882  0.0052  0.1450
25419W        W41893   2.919   0.454   2.518  0.0917 -0.1817 -0.2138
25420W        W41894   5.177   9.522  11.466  0.1251  0.1134  0.0103
25421W        W41895   3.428   0.570  15.811  0.0198 -0.1286  0.1706
25422W        W41896  13.138  12.668   1.259 -0.1591 -0.1353  0.0032
25423W        W41897  17.103  13.213  12.299  0.2096  0.2250  0.0925
25424W        W41898   3.246   4.935   0.280  0.2033 -0.0195 -0.1182
25425W        W41899  16.819   3.761   5.435 -0.0410  0.1347 -0.1323
25426W        W41900  13.718   3.043  12.309  0.3253  0.2297 -0.1499
25427W        W41901   7.385   6.917  13.546  0.1089 -0.0939  0.0672
25428W        W41902   3.634   3.979   3.410 -0.0228  0.2312 -0.1615
25429W        W41903   2.294  10.583   1.409 -0.3747  0.2178  0.3733
25430W        W41904  11.014   2.799   0.379 -0.3223 -0.2575  0.1744
25431W        W41905   6.278  11.485  16.240  0.0515  0.0053 -0.1668
25432W        W41906  16.406   9.948  15.674 -0.4197  0.5266  0.1862
25433W        W41907   3.210   4.175  14.374 -0.1135  0.0904 -0.3352
25434W        W41908  15.250   4.411   2.155 -0.2169  0.1468  0.0750
25435W        W41909   2.574   8.866  13.636 -0.3141 -0.0993  0.1739
25436W        W41910  13.073  10.911   4.473 -0.0786 -0.0628 -0.2931
25437W        W41911  14.076  14.088   2.506 -0.0737  0.1292 -0.0999
25438W        W41912  15.732  11.209  13.115  0.0392  0.1568  0.0068
25439W        W41913  14.915   2.732  12.244  0.2040  0.0358  0.1070
25440W        W41914   4.675   0.878   1.693 -0.1278 -0.0589  0.1997
25441W        W41915   0.273  17.480  13.345  0.0239  0.0696  0.0565
25442W        W41916   5.453  14.479  12.509 -0.0363 -0.1219 -0.0853
25443W        W41917   9.640  12.407  13.506 -0.1746 -0.0054  0.2591
25444W        W41918   1.248   3.074  15.502 -0.0505  0.1732 -0.1778
25445W        W41919   5.118   6.150   3.075  0.0309  0.0956  0.1619
25446W        W41920   2.447  11.551  15.620  0.2680  0.1971 -0.3803
25447W        W41921  12.348  17.910   1.940  0.1367 -0.1125 -0.4654
25448W        W41922   8.393   5.600  14.629 -0.0387 -0.1287 -0.0080
25449W        W41923  12.101  15.023   1.043 -0.3351  0.1777  0.2995
25450W        W41924   9.338   5.165   5.690 -0.0736 -0.0782 -0.2649
25451W        W41925  15.689   1.600   0.445  0.0393  0.0849  0.0561
25452W        W41926   2.561  10.979  14.082 -0.0628 -0.2878  0.1534
25453W        W41927   0.772  10.889   5.040 -0.3525 -0.0021  0.0404
25454W        W41928   1.552   9.925   3.609  0.1007  0.3303  0.0072
25455W        W41929   4.553   6.752   6.056 -0.2282  0.0519 -0.1532
25456W        W41930  16.052  17.430  13.448  0.0118 -0.1178  0.2941
25457W        W41931   3.434  17.874  15.173 -0.0179 -0.2304  0.1616
25458W        W41932  12.443  16.922   4.543 -0.1510  0.5410  0.1344
25459W        W41933   1.148   7.138  15.330 -0.1569 -0.4366  0.0767
25460W        W41934  13.902  13.943   5.197  0.1669  0.1241 -0.0346
25461W        W41935  16.814  11.670  11.519  0.0702  0.0106 -0.1266
25462W        W41936  12.975  16.493   1.920  0.0215  0.1064  0.1412
25463W        W41937   4.720   2.838  15.301 -0.0396 -0.1213  0.2124
25464W        W41938   1.779   9.461  13.505 -0.0904 -0.1242  0.0860
25465W        W41939   4.075   2.725  14.817  0.0094  0.0077 -0.1025
25466W        W41940  13.153   4.507   1.481 -0.0054  0.4114 -0.1898
25467W        W41941   1.262   9.476   4.380  0.1440  0.1651  0.0191
25468W        W41942   1.571   0.006  16.449  0.0728 -0.2434  0.0001
25469W        W41943   4.467  13.044  12.508  0.1480  0.1118 -0.1890
25470W        W41944   0.378   5.712  11.764  0.0950 -0.1091  0.0197
25471W        W41945  13.522   3.696  13.945 -0.0646 -0.1640  0.0481
25472W        W41946   6.963  14.003  15.541  0.0041 -0.4780  0.2545
25473W        W41947   6.291  15.856  13.197 -0.0558 -0.0913  0.0143
25474W        W41948   0.939  11.517   3.961  0.0317  0.0202 -0.0481
25475W        W41949   5.519  15.536   1.452 -0.1578 -0.0104 -0.0193
25476W        W41950  15.858   2.712   6.379 -0.2318  0.1792 -0.1105
25477W        W41951  16.742   9.057  12.009 -0.0203  0.0119 -0.1665
25478W        W41952   8.703   1.626   0.435 -0.1811 -0.0326 -0.3375
25479W        W41953   2.245   4.704   1.750  0.1187  0.0328  0.0965
25480W        W41954  11.862  14.455   4.951  0.1533 -0.1143  0.0389
25481W        W41955   1.803   6.772  14.062 -0.0067 -0.1704  0.1348
25482W        W41956   8.979   2.257   0.888 -0.3306  0.0053 -0.1120
25483W        W41957   5.600  17.991  15.210 -0.1443 -0.3249  0.3598
25484W        W41958  17.826  11.172  15.109  0.1357 -0.0863 -0.1045
25485W        W41959   8.128   7.906  10.941 -0.1906  0.5612 -0.2806
25486W        W41960  11.442  16.259  12.427  0.0046  0.1557 -0.1804
25487W        W41961  15.043  17.681  16.060 -0.1541  0.0567  0.0437
25488W        W41962  12.192  13.153  14.216  0.0109  0.0064  0.0834
25489W        W41963  16.101  15.583   1.419  0.1616 -0.0247  0.1295
25490W        W41964  13.202  11.689  15.535  0.0577  0.0222 -0.1029
25491W        W41965  12.698   4.391   2.896 -0.3523 -0.0829 -0.0077
25492W        W41966  13.314   8.647   2.892  0.2774 -0.0562 -0.3762
25493W        W41967  16.248   6.134  11.545 -0.0338  0.1509 -0.0801
25494W        W41968   7.466  13.935   3.968 -0.0633  0.1047 -0.1754
25495W        W41969  10.703  11.023   5.382 -0.1019 -0.2765  0.0414
25496W        W41970  13.634   1.182   2.658 -0.1840 -0.2049 -0.0359
25497W        W41971   9.129   5.880   2.237 -0.1016  0.0340 -0.2254
25498W        W41972  10.471  13.715   4.127 -0.1057  0.0144 -0.2616
25499W        W41973   9.401   9.574   0.611  0.1191  0.2968  0.1348
25500W        W41974   8.015   5.504   3.103  0.2773 -0.0359 -0.4156
25501W        W41975   8.893   2.960  11.939  0.0341  0.2706  0.0086
25502W        W41976  15.660  15.621  16.332  0.2935  0.3012  0.1672
25503W        W41977   5.215   1.121  13.696  0.4452  0.0993  0.0596
25504W        W41978  17.943   9.181  13.469  0.3363 -0.2022 -0.1142
25505W        W41979  13.457  10.958   1.027 -0.2562  0.1352  0.0751
25506W        W41980  10.727   9.177  16.002  0.1325 -0.1055  0.1245
25507W        W41981   1.084   7.594  15.607 -0.1389  0.0638  0.0143
25508W        W41982   7.732  16.066   4.834  0.1277 -0.1869 -0.2663
25509W        W41983  17.073   7.478   4.967  0.0715 -0.0856 -0.1188
25510W        W41984   8.456  11.781   4.914 -0.1042 -0.1511  0.4887
25511W        W41985   6.517  16.064  15.768  0.3746  0.1996 -0.3070
25512W        W41986   9.145  10.548  16.481 -0.0771 -0.0971  0.2045
25513W        W41987   6.963  11.822  14.909 -0.0968  0.1172  0.0452
25514W        W41988   1.280  14.722  15.893 -0.3570 -0.1836  0.0674
25515W        W41989  13.220  14.680   2.468  0.1498  0.3555  0.1313
25516W        W41990  11.840  12.569   4.038 -0.0469 -0.0303  0.1766
25517W        W41991  16.003   8.604  11.589  0.0702 -0.0439 -0.3083
25518W        W41992   9.020  13.263   4.715  0.0887 -0.0380 -0.1468
25519W        W41993  10.355   5.235  15.528 -0.0728 -0.3352 -0.3089
25520W        W41994  10.017  16.364  11.546  0.1744  0.0597 -0.0109
25521W        W41995  15.814  17.195   5.192  0.0470 -0.1411 -0.0689
25522W        W41996  14.332  13.259   4.564 -0.2629  0.1756  0.0138
25523W        W41997   3.395   6.673  11.767  0.0261  0.0124  0.0300
25524W        W41998   4.020   6.200  13.327 -0.1086 -0.0470 -0.2013
25525W        W41999   4.968   6.483   1.851  0.3783 -0.2533 -0.0761
25526W        W42000  17.985  13.254   0.675 -0.0597 -0.1227  0.1340
25527W        W42001  13.238   6.420  16.173  0.0388  0.0640  0.0034
25528W        W42002  14.432   8.562   1.518  0.3268 -0.2487 -0.2921
25529W        W42003   5.669   8.879   5.175  0.1813 -0.2224 -0.1249
25530W        W42004  11.277  13.960  12.717  0.1237 -0.1292 -0.1367
25531W        W42005   2.409  11.578   1.555  0.0435 -0.3076  0.0195
25532W        W42006   6.939   1.083   4.872 -0.1029  0.1264  0.3289
25533W        W42007   4.853   8.403   4.418 -0.0548 -0.0293  0.1445
25534W        W42008  15.226   6.520   5.415  0.0626 -0.1779 -0.0990
25535W        W42009  14.930  15.981   3.552  0.0205 -0.1860  0.3423
25536W        W42010  15.678  10.383   5.914 -0.1731 -0.1405  0.1028
25537W        W42011  10.913  10.946  16.427 -0.3690 -0.3409 -0.1494
25538W        W42012  11.183   8.659  14.720 -0.0865 -0.3742 -0.2377
25539W        W42013   7.656   7.557  13.083  0.2454  0.0125  0.2640
25540W        W42014   4.574  14.622   2.742 -0.1586 -0.0832  0.3985
25541W        W42015   6.545  13.473  16.295 -0.1873 -0.0626 -0.1994
25542W        W42016  17.188  12.577  14.036 -0.1258  0.0147  0.1268
25543W        W42017   2.467   3.486  13.296 -0.0597  0.0457  0.1958
25544W        W42018  10.286   6.643  12.695 -0.1703  0.0298  0.1684
25545W        W42019   1.406   2.443  12.527 -0.0428 -0.2727  0.1113
25546W        W42020   1.338   6.977   5.698 -0.0413  0.0775  0.1780
25547W        W42021  12.591   7.452  12.805  0.2490 -0.2407 -0.0554
25548W        W42022  13.740  17.199  14.400  0.0435 -0.2899  0.0521
25549W        W42023   4.110   2.281  15.258  0.1113 -0.0124 -0.0162
25550W        W42024   4.432  12.030   1.525 -0.0576 -0.2561  0.0770
25551W        W42025  13.225   9.451   1.272 -0.1645  0.1065  0.0616
25552W        W42026   6.610   1.363  12.857  0.1473  0.2027  0.0599
25553W        W42027  10.850   7.352   0.980 -0.2287 -0.3295  0.1826
25554W        W42028   7.605   4.346   4.547  0.0416 -0.1262 -0.0106
25555W        W42029  14.109  13.274   3.307  0.2584 -0.0628 -0.1320
25556W        W42030   3.526   4.347   4.134  0.1677  0.2666 -0.2571
25557W        W42031  14.423  17.724  14.751 -0.0223  0.0712 -0.1615
25558W        W42032   9.040  12.309   4.851 -0.1921 -0.0746 -0.2482
25559W        W42033   9.421  15.278  12.910  0.0480 -0.0157  0.2455
25560W        W42034   7.159   7.344   2.425  0.4004  0.0401  0.2764
25561W        W42035  16.214   4.828  13.315 -0.2063 -0.2565  0.1307
25562W        W42036   8.416  11.282  15.669  0.1168  0.0288  0.3004
25563W        W42037  10.566   2.755   0.242  0.0036  0.1350 -0.0073
25564W        W42038   1.699  13.487  12.868  0.1279 -0.0115  0.0627
25565W        W42039  10.579   2.216  13.492  0.0136 -0.0620 -0.1157
25566W        W42040   3.761   0.731  13.087  0.3374 -0.1449  0.0109
25567W        W42041  13.903   1.114  14.865 -0.0423  0.0352 -0.0938
25568W        W42042   8.049   9.034   3.277 -0.0506 -0.2707 -0.2482
25569W        W42043  13.812   7.534  16.266  0.0123 -0.2166 -0.3499
25570W        W42044   6.443   5.183  14.988 -0.1818  0.6337 -0.0513
25571W        W42045  12.342   2.383   2.260  0.3987 -0.1160  0.1150
25572W        W42046   9.888  12.838  16.628 -0.0885 -0.0758 -0.0852
25573W        W42047  13.162  14.413  15.449  0.2898  0.1725  0.2481
25574W        W42048   7.987   5.913   1.767 -0.1517  0.0375 -0.0131
25575W        W42049   0.946   3.417  14.232 -0.0539 -0.2277  0.0039
25576W        W42050   0.423   9.561  14.659 -0.1763 -0.1514 -0.2878
25577W        W42051   9.576  14.625   5.574  0.1812  0.0427 -0.1063
25578W        W42052   6.676  10.053  14.706  0.0290 -0.0348  0.1528
25579W        W42053  10.973  13.270   2.665 -0.0194  0.0555 -0.1478
25580W        W42054  11.143   5.809   3.765  0.1194  0.4038 -0.0422
25581W        W42055  13.573  10.717  15.848  0.0442 -0.0681  0.2632
25582W        W42056   3.352  13.926  16.005  0.1257  0.0492  0.1211
25583W        W42057   9.505  14.761  11.551 -0.0459  0.1319 -0.1606
25584W        W42058   0.995  11.145  13.177  0.2433 -0.1064  0.1136
25585W        W42059   2.130  10.742   5.109  0.0830 -0.2969 -0.2970
25586W        W42060  16.431  15.022   4.549 -0.2183  0.4017 -0.1179
25587W        W42061  11.583   6.080  15.689  0.2532  0.3784  0.2164
25588W        W42062  11.335   8.786  14.255  0.1675 -0.1929  0.0146
25589W        W42063  10.883   8.297   0.651 -0.0270 -0.3247  0.1564
25590W        W42064   9.936  13.303   3.725  0.1557  0.1284 -0.1046
25591W        W42065   1.748   2.588  16.104 -0.2069  0.0595  0.0490
25592W        W42066   6.641   7.597   5.405 -0.0200  0.0091  0.1837
25593W        W42067   4.540  13.230  13.611 -0.1017  0.0343 -0.1931
25594W        W42068  14.604  12.350   5.273 -0.1912 -0.0145 -0.0627
25595W        W42069  10.837   4.867   2.064  0.3367 -0.1090  0.2021
25596W        W42070   8.886   0.736  16.777  0.0525  0.0172  0.2485
25597W        W42071   3.098   2.380   1.053 -0.0900 -0.0161  0.0744
25598W        W42072   7.628   3.058  16.155 -0.2734  0.3185 -0.0425
25599W        W42073  17.012  11.888  16.743  0.1490  0.0479  0.1506
25600W        W42074   9.359   4.751  16.135 -0.2343  0.0526  0.3709
25601W        W42075  13.616   4.741   0.286  0.2121  0.0097 -0.0327
25602W        W42076  15.057   5.644   1.017 -0.0126 -0.1974  0.0074
25603W        W42077   9.737  11.977  11.525 -0.1462  0.3457  0.1212
25604W        W42078   4.039   4.800   1.587  0.1608 -0.0889  0.1733
25605W        W42079  11.915   2.008  14.087 -0.1544 -0.2880  0.0231
25606W        W42080  10.999   1.937   1.684  0.1492  0.0413  0.2291
25607W        W42081   1.257  12.495   3.192 -0.1786  0.0567 -0.1202
25608W        W42082   4.199  14.660  13.769 -0.0148  0.0173 -0.3509
25609W        W42083   0.074   9.532   0.643  0.0504 -0.2235 -0.1618
25610W        W42084   7.832  12.645   5.305  0.0472 -0.3211  0.1121
25611W        W42085   4.719   8.748   4.854  0.1103  0.1701 -0.0010
25612W        W42086   2.627  17.935   5.451  0.0335  0.1427 -0.2059
25613W        W42087   2.416  10.176   1.666  0.0148  0.1112  0.1220
25614W        W42088  16.000  15.302   2.414 -0.1294  0.0054  0.1207
25615W        W42089   8.548   2.281   0.213  0.1712 -0.0813 -0.1358
25616W        W42090   5.520   7.488   5.025 -0.0920  0.0475 -0.0631
25617W        W42091   0.386  14.602  12.507 -0.2852  0.0637  0.4040
25618W        W42092   2.763   3.216  15.441 -0.1479 -0.2862  0.3173
25619W        W42093  15.679   8.965   0.617 -0.0855 -0.3671  0.0150
25620W        W42094  10.395  11.794  12.912 -0.1555 -0.2202 -0.1816
25621W        W42095  13.895  11.299  12.082  0.2607 -0.1003 -0.1512
25622W        W42096   6.751   4.796  15.859  0.3304  0.2540  0.1957
25623W        W42097   6.764  15.276  13.257  0.2192 -0.1672  0.1309
25624W        W42098  13.703  11.557   3.674 -0.0003 -0.2592 -0.2651
25625W        W42099   4.242  14.565  13.254  0.0940  0.0001  0.0101
25626W        W42100   7.203   4.969  15.463  0.0424 -0.2279 -0.2934
25627W        W42101   2.029   3.216  14.937  0.0369 -0.0563  0.2450
25628W        W42102   5.683  12.709  16.030 -0.2717 -0.2288 -0.2268
25629W        W42103   5.148   7.946  10.610 -0.0766  0.2099  0.1118
25630W        W42104  16.073  15.896  16.108  0.0710 -0.1956 -0.1116
25631W        W42105  12.746   5.748  12.388  0.1692 -0.0917  0.1858
25632W        W42106   9.543   4.454  15.742  0.1430 -0.0656  0.0170
25633W        W42107  12.569  12.437   1.542 -0.1221  0.0782 -0.2266
25634W        W42108   8.737  17.371  12.259 -0.2079 -0.0910  0.3076
25635W        W42109  15.235   3.425   4.502  0.2720  0.0308  0.2449
25636W        W42110   2.547   7.575   1.821 -0.0011  0.1058  0.3163
25637W        W42111   0.133   1.295   5.331 -0.1273 -0.1372 -0.0714
25638W        W42112   7.298   6.033  12.645 -0.3398 -0.2603 -0.0372
25639W        W42113   6.332   5.663  10.825 -0.2777 -0.1808 -0.1966
25640W        W42114   0.515  15.502   6.115 -0.0486 -0.0905 -0.1074
25641W        W42115  13.318   9.097  15.733 -0.2235 -0.1080 -0.1073
25642W        W42116   6.175   5.466   5.729 -0.0882 -0.2819 -0.1580
25643W        W42117   2.391  12.341   1.192 -0.1948  0.1162 -0.0079
25644W        W42118  16.322   5.927   4.256  0.1791  0.0987 -0.1453
25645W        W42119  12.293  16.431  15.986 -0.0085 -0.1787  0.0744
25646W        W42120   6.010   6.893   3.882  0.3815  0.0128 -0.0695
25647W        W42121   4.393   9.095  16.075 -0.0345 -0.4464  0.0768
25648W        W42122  15.465  14.676   5.456  0.1990 -0.5322 -0.1401
25649W        W42123  11.360   8.537  13.237 -0.1348  0.0615 -0.0102
25650W        W42124   3.799   0.162  12.040  0.3158  0.1444 -0.2030
25651W        W42125  16.070   9.149   1.615 -0.4704  0.1101  0.3247
25652W        W42126   1.844   4.511   4.668  0.2333  0.1520  0.1354
25653W        W42127  15.057   6.483   2.065  0.0520 -0.3001 -0.3004
25654W        W42128  15.699   5.967  15.650 -0.0772  0.2353  0.2594
25655W        W42129  14.612  12.914   4.249  0.0491 -0.1403 -0.0191
25656W        W42130  13.336  11.911   0.859  0.0385  0.0978 -0.2433
25657W        W42131  14.155  16.466  14.520  0.0090 -0.0643 -0.1579
25658W        W42132  15.966  16.758  13.728  0.1184  0.1148 -0.1022
25659W        W42133   2.579  13.376   0.129 -0.0309  0.4019 -0.0332
25660W        W42134   5.691   7.610  12.306 -0.0669 -0.0528 -0.1231
25661W        W42135  12.262   1.211  16.613  0.0521 -0.0317  0.0344
25662W        W42136   9.575  16.161  11.854 -0.0888 -0.1281  0.1388
25663W        W42137   0.013   3.717   0.312 -0.2927 -0.4392  0.1025
25664W        W42138   2.144   9.894   2.979 -0.2942 -0.0652 -0.0144
25665W        W42139   7.164   4.008  16.252  0.0537  0.0590 -0.2306
25666W        W42140  17.155   4.134  14.890  0.1071  0.2228 -0.1978
25667W        W42141   4.526   3.318   3.507  0.0615  0.3257  0.2590
25668W        W42142   1.769   2.248  14.849  0.0532 -0.1232  0.2188
25669W        W42143  17.636   1.336  13.913 -0.3313  0.1570  0.1267
25670W        W42144  14.952  15.364   4.914 -0.1936  0.1344  0.2677
25671W        W42145   7.171   8.072   4.649 -0.0989  0.0001 -0.2752
25672W        W42146   4.579  10.905  16.753  0.1331 -0.1859 -0.2086
25673W        W42147   0.889   5.880   2.737  0.1393  0.1787  0.0536
25674W        W42148   4.781  17.031   1.271  0.0953  0.0739  0.1467
25675W        W42149   5.444   3.143  13.112 -0.0551 -0.2107 -0.1926
25676W        W42150  13.503   3.817  13.201  0.0470  0.1738  0.2480
25677W        W42151   9.187  15.830  11.741  0.2014 -0.0153  0.0584
25678W        W42152   7.949   0.048   0.132 -0.2807  0.1891 -0.2969
25679W        W42153   0.449  11.975   0.506 -0.1121  0.1265 -0.0620
25680W        W42154  14.572   7.438   1.773 -0.1271 -0.2083 -0.1054
25681W        W42155   5.471   2.439   0.810 -0.0750  0.1577 -0.3578
25682W        W42156   0.390   0.861   3.064 -0.2992  0.0203 -0.0541
25683W        W42157  13.525  10.459   1.304 -0.2930  0.0048 -0.0259
25684W        W42158   2.175  10.597  13.773  0.0051 -0.0915  0.2786
25685W        W42159   0.773  16.685  14.191 -0.1796 -0.2526 -0.0346
25686W        W42160  16.702  16.741  16.483 -0.0798 -0.1119  0.2282
25687W        W42161   2.092   1.605  15.147  0.2215 -0.1402  0.0132
25688W        W42162  12.361   7.918  11.528  0.2155 -0.0310 -0.0316
25689W        W42163  13.654  15.421   5.538  0.0866  0.0632 -0.0948
25690W        W42164   8.268   7.323   2.868  0.2307 -0.0399  0.1925
25691W        W42165   0.566  13.516  14.844  0.2182 -0.2831  0.0655
25692W        W42166   8.490   6.249  13.121 -0.0168 -0.1500  0.3949
25693W        W42167  16.925  12.791  14.426 -0.0668 -0.0880 -0.0900
25694W        W42168  17.199  11.983  11.544 -0.1559  0.0811 -0.1229
25695W        W42169   4.644  11.044  16.215 -0.2553  0.0761  0.0939
25696W        W42170   5.514   5.682  12.317 -0.3388 -0.3081 -0.0806
25697W        W42171  13.204   8.301   5.106  0.0286  0.1248 -0.2933
25698W        W42172   8.349  11.365  12.875 -0.4950 -0.3888  0.0924
25699W        W42173  16.859   2.589  13.695  0.1281  0.0522  0.0077
25700W        W42174   1.122  17.111   4.882  0.1802 -0.0911  0.1558
25701W        W42175   3.807   7.222   0.448  0.0406  0.1512  0.1543
25702W        W42176  11.736   3.028   3.835 -0.2094  0.0078 -0.0757
25703W        W42177   6.615   9.269   2.439  0.1532 -0.2494  0.0994
25704W        W42178  10.950   3.954  16.272 -0.0480  0.1016 -0.3583
25705W        W42179  16.230  12.063   2.101  0.0421 -0.1688  0.0697
25706W        W42180   4.707   4.567   5.059 -0.0241  0.1441  0.1970
25707W        W42181   5.328   5.367   0.074  0.1845  0.0040 -0.0697
25708W        W42182   7.465   7.433  13.532  0.2291 -0.2428 -0.1615
25709W        W42183   8.651  14.601  13.121 -0.0675 -0.0597  0.5953
25710W        W42184   3.529   1.891   1.747 -0.2101 -0.0083  0.0961
25711W        W42185   1.706   9.373   1.874  0.1031 -0.1848 -0.0749
25712W        W42186  10.891  16.149  16.351 -0.1467 -0.1040 -0.1868
25713W        W42187  17.014   0.488   5.820  0.6213  0.4246  0.2214
25714W        W42188  12.512   9.020  12.259 -0.2231 -0.0372  0.2813
25715W        W42189   0.657   9.876  12.476 -0.3209  0.1204  0.3620
25716W        W42190  10.205  14.812  11.448 -0.1230 -0.1335  0.1802
25717W        W42191  14.721   2.601   1.452  0.1505 -0.0015 -0.1411
25718W        W42192  13.090  16.382   0.925 -0.0749 -0.2351  0.0614
25719W        W42193  10.382   5.508  16.597  0.0151 -0.4010 -0.0870
25720W        W42194  17.026  14.731  13.634 -0.0570 -0.1495 -0.0496
25721W        W42195  10.547   8.294   1.026  0.0197  0.3158  0.0991
25722W        W42196   3.385   2.348  13.757  0.0062  0.1051 -0.0975
25723W        W42197   2.298   9.019  15.823 -0.1691 -0.3788 -0.0137
25724W        W42198   6.204   7.939  16.562 -0.1003  0.2438  0.3191
25725W        W42199   5.038  15.037   4.145  0.1896 -0.1007 -0.3325
25726W        W42200   5.919  13.203  14.885 -0.0667  0.1624  0.3722
25727W        W42201   6.672  12.468  16.558  0.0724 -0.1947  0.0595
25728W        W42202   9.338  17.567  16.408  0.3351  0.1809 -0.1393
25729W        W42203  12.891   9.312   2.289  0.2616 -0.0873  0.2538
25730W        W42204   8.351  13.580   0.670  0.1357  0.2778 -0.0332
25731W        W42205   4.639   6.217   3.253 -0.1183  0.0472  0.1262
25732W        W42206   4.587  16.150   4.621  0.0092 -0.0104  0.1824
25733W        W42207  17.531  13.430   1.541  0.1603 -0.0222  0.0384
25734W        W42208  10.315   2.727  16.142  0.1618 -0.1021  0.1275
25735W        W42209   7.892   4.088   5.462 -0.1662  0.0990 -0.1704
25736W        W42210  12.217  16.333  11.759  0.1889  0.1252  0.3314
25737W        W42211   0.322  16.692  12.560 -0.1222  0.0304 -0.0008
25738W        W42212   7.024  14.048  14.622  0.0771 -0.0221 -0.0233
25739W        W42213  17.938   7.857   3.919  0.0416 -0.2337  0.0770
25740W        W42214   1.159  10.454  13.686  0.2266 -0.0157  0.0511
25741W        W42215  13.857  10.610   1.788  0.2744  0.2330  0.3162
25742W        W42216   8.172   0.484   2.818 -0.1240  0.3144  0.0526
25743W        W42217   8.773  15.434  14.981  0.3184  0.2461  0.2132
25744W        W42218  15.451   5.312   0.874 -0.4448 -0.0155 -0.2724
25745W        W42219  16.328  16.196   5.965 -0.0284  0.0154 -0.0029
25746W        W42220   1.950  11.433   1.278  0.0616  0.0440  0.1601
25747W        W42221  17.112  10.885   4.631  0.2692 -0.0668 -0.0882
25748W        W42222   7.436   0.815   4.894  0.1769 -0.0814  0.4127
25749W        W42223  10.082  12.271   0.698 -0.0780 -0.1915 -0.1900
25750W        W42224   1.084  15.856   0.881  0.0913  0.0658  0.0664
25751W        W42225  14.382  13.659   0.355 -0.0603 -0.3976 -0.2322
25752W        W42226   7.277  14.210  12.373  0.0129 -0.3699 -0.1153
25753W        W42227  17.866  16.279  16.617 -0.2623 -0.1465 -0.2918
25754W        W42228   6.654   4.663  12.544  0.2004  0.3436 -0.0651
25755W        W42229   9.440   1.750  12.951  0.2746  0.0184 -0.0696
25756W        W42230   0.363   7.814   3.341 -0.2139 -0.0379 -0.2055
25757W        W42231   0.931  12.939   1.783  0.3439 -0.0365 -0.0094
25758W        W42232  12.323  13.204   0.896 -0.2968 -0.1406 -0.2574
25759W        W42233   4.513   7.909   4.851 -0.1244  0.2159  0.3467
25760W        W42234   6.532   4.782   0.846  0.0252 -0.0955 -0.2124
25761W        W42235  16.887  16.062  13.387  0.0033  0.0337 -0.0442
25762W        W42236   2.710  17.697   0.494 -0.0778  0.1278  0.0803
25763W        W42237   9.407   3.788   5.604 -0.2741 -0.1978 -0.0363
25764W        W42238  14.412   1.336  16.298  0.0786 -0.0442  0.0451
25765W        W42239   9.304   1.393   2.415 -0.1470 -0.1291  0.1478
25766W        W42240  16.800   5.874  12.176 -0.0226 -0.1539  0.5445
25767W        W42241   1.170  17.594   5.085 -0.1563  0.0575  0.3089
25768W        W42242  11.707   5.160  13.453  0.1864  0.0313 -0.1566
25769W        W42243   5.998   1.239  16.737 -0.0835 -0.0558 -0.3337
25770W        W42244  15.371   4.852   2.901  0.2843 -0.4511  0.1271
25771W        W42245  16.004   7.994   5.092 -0.1892  0.0874  0.2167
25772W        W42246  18.001  10.086   4.455  0.3165  0.2411  0.2013
25773W        W42247  11.415   3.532   3.749  0.0313 -0.2734 -0.2850
25774W        W42248   8.388  15.207  15.201  0.2438 -0.1104 -0.0081
25775W        W42249   5.936   2.811   2.725 -0.2042 -0.2397  0.2207
25776W        W42250  10.455  10.825   4.935 -0.1336 -0.1218  0.0265
25777W        W42251  10.523  17.728   2.857 -0.5229  0.0022  0.0259
25778W        W42252  15.557   5.163  13.046 -0.0549  0.1546 -0.3110
25779W        W42253   2.348   5.735  16.552 -0.0667  0.0560 -0.0904
25780W        W42254   8.343   7.692   4.697 -0.0726  0.0280 -0.3166
25781W        W42255   7.881   3.501  16.224  0.0638  0.0616 -0.2081
25782W        W42256  12.656   8.672   1.132  0.1136  0.4192 -0.2344
25783W        W42257   7.794  12.815  13.404 -0.1538 -0.1003 -0.0515
25784W        W42258   8.923   6.563   0.474  0.1651  0.0279  0.1657
25785W        W42259   2.747   2.748  16.384 -0.1124 -0.1562  0.3972
25786W        W42260   1.101  16.154  14.796 -0.1193 -0.1489 -0.0888
25787W        W42261  15.584   0.699   0.355  0.2369 -0.3082 -0.0368
25788W        W42262  16.650   4.577  14.446 -0.0404 -0.2024  0.0161
25789W        W42263  11.740   2.783  16.668 -0.0537 -0.0800  0.3321
25790W        W42264   3.089  15.745   4.578 -0.2059  0.1240  0.0734
25791W        W42265   6.580  12.021   3.238 -0.1824 -0.1330  0.1485
25792W        W42266  15.175  11.352  12.193  0.0782 -0.1360  0.2066
25793W        W42267  13.077  10.856  12.620  0.0031  0.2618  0.2088
25794W        W42268  12.315  14.576   4.647  0.1847  0.1684 -0.3656
25795W        W42269  17.967  15.951   4.315  0.0820  0.1717 -0.2775
25796W        W42270  17.224  16.895  11.942  0.1220  0.1252 -0.0048
25797W        W42271   6.840   4.279   2.356 -0.0563  0.0039  0.1643
25798W        W42272   2.603  13.218   3.681  0.0937  0.1250  0.0160
25799W        W42273  14.535   2.141   1.799  0.0204 -0.0458 -0.0446
25800W        W42274  15.440   7.378  16.476  0.2661 -0.0899  0.3806
25801W        W42275   8.789   5.731   0.309  0.1382  0.0848 -0.2046
25802W        W42276   9.559   8.937   1.772 -0.2263  0.0833 -0.4727
25803W        W42277   9.948   1.520   1.893 -0.0674 -0.1581 -0.0598
25804W        W42278  10.234   5.701   0.290 -0.0671  0.0445  0.2620
25805W        W42279   3.800  17.466   4.229 -0.0803  0.2765  0.0953
25806W        W42280   0.472  13.026   3.218  0.0286  0.1723 -0.1057
25807W        W42281  15.301  10.504   6.250  0.3074  0.1004 -0.1932
25808W        W42282   4.225   6.264   1.204  0.0454  0.1548 -0.1255
25809W        W42283  14.962  13.626  14.895 -0.2475 -0.4471  0.2067
25810W        W42284  10.880   9.004  14.590  0.2869  0.0244  0.3132
25811W        W42285  12.490   5.729  13.188  0.0454 -0.0899 -0.0928
25812W        W42286  12.570  16.307   1.573 -0.1962  0.1960  0.0215
25813W        W42287  10.996   7.185  16.181 -0.1007  0.2654  0.0180
25814W        W42288  15.687  11.333  12.019  0.1323  0.0779  0.1023
25815W        W42289  14.759  14.089  16.275 -0.2245 -0.1682 -0.3155
25816W        W42290  12.272   8.717   5.048 -0.0783  0.1817 -0.2077
25817W        W42291  16.813   9.845   0.834 -0.1451 -0.3392 -0.0817
25818W        W42292   6.641  14.923   2.696  0.2532 -0.0043  0.1142
25819W        W42293   1.782   1.492   3.900 -0.1496  0.1228  0.1356
25820W        W42294   6.699   4.023   4.772 -0.0342  0.0232 -0.2906
25821W        W42295  16.734   7.984   1.019  0.0533 -0.2512 -0.0949
25822W        W42296   0.607  10.042  15.269 -0.0664  0.1377 -0.2573
25823W        W42297  13.998   9.275   3.958  0.0532 -0.3706 -0.1497
25824W        W42298  16.145   2.455   2.241  0.0200 -0.1972 -0.0578
25825W        W42299   8.346  10.761  13.710  0.1835 -0.0070 -0.0467
25826W        W42300   4.796   1.577  16.755  0.1026  0.1372 -0.0580
25827W        W42301   9.445  13.500  11.516 -0.0368  0.0316 -0.0719
25828W        W42302  13.273   8.517  12.169 -0.0613 -0.1067  0.1171
25829W        W42303   4.979  14.890   0.964 -0.2012  0.0202  0.1198
25830W        W42304   8.014   2.117   2.918  0.0857  0.1916  0.1536
25831W        W42305   9.570   0.890  13.213 -0.4371 -0.2520 -0.2509
25832W        W42306   5.406   6.129   0.176 -0.0640 -0.0307  0.0166
25833W        W42307   2.656   8.894   4.253 -0.0759 -0.2195 -0.0255
25834W        W42308   9.790   0.019  13.737  0.4663  0.0610 -0.3393
25835W        W42309   8.947   7.862   1.507  0.1917 -0.3133 -0.0774
25836W        W42310   8.270  17.246   5.470  0.0692 -0.2098 -0.0088
25837W        W42311   0.145   2.441  13.156  0.0070  0.0314  0.0190
25838W        W42312  13.020   0.311  13.534 -0.1885 -0.0341  0.1550
25839W        W42313  15.521   9.865  15.247  0.1085  0.3436  0.1948
25840W        W42314   4.460  13.744   2.477 -0.4116  0.1652 -0.2150
25841W        W42315  12.736  15.344   4.751  0.0368 -0.2228  0.0100
25842W        W42316   8.076  14.791   0.305 -0.2173  0.2383  0.1403
25843W        W42317  16.931  16.136  11.754  0.2450 -0.2482 -0.2591
25844W        W42318   6.919  15.494  11.321  0.0346  0.0518 -0.0010
25845W        W42319   4.327   9.541   5.133 -0.0525 -0.3917 -0.0106
25846W        W42320   5.313   3.952   5.708 -0.2057  0.0029 -0.2065
25847W        W42321   6.664  15.945  15.333  0.4405 -0.0354  0.0279
25848W        W42322  14.852  16.127   0.022 -0.3398  0.3750 -0.3647
25849W        W42323   4.701  10.752   5.221  0.3065  0.1713  0.0009
25850W        W42324   1.895  15.392   1.219  0.1818 -0.1393 -0.0815
25851W        W42325   3.044  13.304  16.193  0.0646  0.0604 -0.1399
25852W        W42326  15.911  16.535   1.345  0.4101 -0.0972 -0.3041
25853W        W42327   3.487  15.844   1.530  0.1941  0.1517  0.0566
25854W        W42328  11.779   8.912   0.597  0.0748 -0.2749 -0.0623
25855W        W42329   5.161  13.751  15.205  0.2042 -0.2532 -0.0106
25856W        W42330  16.868   5.104   4.712 -0.3398 -0.1317  0.0581
25857W        W42331  12.255  12.292   3.806  0.0855  0.1626 -0.2301
25858W        W42332   9.313  14.535  15.123  0.2366  0.0179 -0.1572
25859W        W42333  14.744   4.982  12.348 -0.0317  0.1670 -0.1340
25860W        W42334  10.583   3.579  16.217 -0.2392  0.0353 -0.0360
25861W        W42335  11.917   9.397   3.970  0.1936  0.1183 -0.2922
25862W        W42336  17.720  15.392  15.657 -0.0213  0.1134 -0.2054
25863W        W42337   7.234  17.408   3.992 -0.0527  0.0896  0.1667
25864W        W42338   8.767   4.927  16.294 -0.3864 -0.0112  0.1948
25865W        W42339  10.487   7.614  15.147  0.2019  0.0258  0.2725
25866W        W42340   3.017   2.053  15.197 -0.0652 -0.0715 -0.0309
25867W        W42341  11.458   3.939   1.222 -0.0030 -0.1093 -0.0197
25868W        W42342  16.610  13.987   3.863 -0.3019  0.0845 -0.1487
25869W        W42343   0.557  10.471  13.046  0.1539  0.2262  0.2124
25870W        W42344   4.442   5.573  14.307 -0.2411  0.0413  0.4834
25871W        W42345   8.868   7.672  15.834 -0.2131  0.0002  0.1534
25872W        W42346   7.433  15.315   4.143  0.1008 -0.0874  0.4698
25873W        W42347   2.786   9.791  15.520 -0.0097  0.0386 -0.1190
25874W        W42348   3.864  12.027  15.228 -0.1265 -0.0673 -0.3032
25875W        W42349  11.148  13.459  15.138  0.2318  0.1495  0.1256
25876W        W42350  16.554  11.536  13.710 -0.1519  0.0115 -0.1510
25877W        W42351  15.641  14.481  14.865  0.0768  0.4243  0.2272
25878W        W42352  10.719  10.985  13.292  0.1562  0.4090 -0.4630
25879W        W42353   2.508  11.546   3.383 -0.0773 -0.2154  0.0260
25880W        W42354   8.939   9.057   4.998  0.2161  0.0892  0.1278
25881W        W42355   7.368   9.758   5.742 -0.0760  0.0003 -0.3407
25882W        W42356   0.372   5.689  15.013  0.1182  0.0038  0.0067
25883W        W42357   0.345  16.155  16.500  0.2219 -0.3312 -0.1193
25884W        W42358  10.721  11.136   1.364  0.0888  0.2059  0.1449
25885W        W42359  13.493  17.196   4.809  0.1569 -0.1422 -0.2073
25886W        W42360   2.191  16.462   2.834  0.0866 -0.3133 -0.1662
25887W        W42361   2.383   2.147   4.568 -0.1697  0.1392  0.1896
25888W        W42362  17.486  11.325   5.730 -0.1659 -0.2338 -0.3137
25889W        W42363   8.929  12.043   2.116  0.3754  0.0261 -0.0772
25890W        W42364   3.341   1.067   5.112  0.2810 -0.0235  0.2850
25891W        W42365  14.270  15.527  14.260  0.1107  0.0128  0.0133
25892W        W42366  15.425   7.620   4.209 -0.1186  0.1210  0.1918
25893W        W42367  12.327  12.770  14.490 -0.0859 -0.3398 -0.3273
25894W        W42368  11.464   0.048   3.120 -0.1853  0.0145  0.2591
25895W        W42369   4.192  15.704   1.999  0.0097  0.1787  0.0577
25896W        W42370  15.522  12.971  15.518  0.2012  0.1366 -0.1438
25897W        W42371   3.965   3.902  12.725  0.0415 -0.0359  0.1565
25898W        W42372   9.158  14.630   3.325  0.2327  0.2239  0.0282
25899W        W42373   3.452   2.992   2.375 -0.4170 -0.3830  0.4403
25900W        W42374  17.026  15.152  12.729  0.0480  0.0538  0.2300
25901W        W42375  11.457  10.658   4.373  0.0779  0.3434  0.0153
25902W        W42376   4.928  15.092   2.763 -0.0169  0.0923  0.2459
25903W        W42377  14.067   5.211   3.990 -0.0277  0.0439 -0.0429
25904W        W42378  16.371  12.930   2.763 -0.2070  0.1241  0.2513
25905W        W42379   2.989   3.511   3.497  0.0734  0.0523  0.1631
25906W        W42380  14.893   1.852  13.545 -0.1954  0.0715  0.1577
25907W        W42381  15.477   3.034   1.629 -0.0934  0.0868  0.0824
25908W        W42382   7.945   2.405   1.457  0.0455  0.1789  0.1342
25909W        W42383  12.931  10.218  15.418 -0.1510 -0.1706 -0.3288
25910W        W42384  12.910   6.168  15.363 -0.2771 -0.0511  0.0600
25911W        W42385   7.874  13.049   1.307 -0.2599  0.0107  0.1067
25912W        W42386   1.811  13.277   3.956 -0.2754 -0.0887 -0.2007
25913W        W42387  17.082  15.390  10.789  0.1208 -0.2911  0.1755
25914W        W42388  14.086   2.689   4.973 -0.0190  0.1627 -0.0444
25915W        W42389   1.624   5.487   5.974  0.1486 -0.1296  0.2060
25916W        W42390  12.234   5.024   4.714  0.1615  0.1410  0.0693
25917W        W42391   2.191  11.557   5.396 -0.2203 -0.1295  0.3660
25918W        W42392   1.566   3.111  15.963 -0.1313 -0.2234 -0.1862
25919W        W42393   8.976  10.118   1.679 -0.1180 -0.1736  0.4250
25920W        W42394   0.940   0.334   3.565  0.0235  0.1654 -0.2120
25921W        W42395   9.330   5.170  13.381  0.3136 -0.2963 -0.2245
25922W        W42396  15.432   6.038   1.069  0.0131  0.0411 -0.3122
25923W        W42397   3.059   0.679   4.901  0.0935 -0.0482  0.1027
25924W        W42398   5.137   3.819   2.322  0.2749 -0.2606 -0.0035
25925W        W42399  11.299   8.644   3.633  0.0922 -0.1609 -0.0800
25926W        W42400   7.035  17.582   0.006  0.1336  0.2160  0.3680
25927W        W42401  16.155  15.439   4.654 -0.0762 -0.1095 -0.0449
25928W        W42402  12.937  15.359  13.283 -0.0090  0.0588  0.0069
25929W        W42403   8.396   9.032   4.600 -0.2186 -0.2194 -0.1894
25930W        W42404   8.395   4.977  13.914  0.0880 -0.2066 -0.0377
25931W        W42405   6.860   3.112  14.243  0.4184  0.3681  0.0491
25932W        W42406   9.539   5.048   1.511  0.1786 -0.2211  0.1711
25933W        W42407  16.039   9.780   5.214  0.1525  0.2444  0.0767
25934W        W42408   4.395  13.837  11.687  0.3283  0.0305  0.1639
25935W        W42409   0.996   7.147   3.033 -0.3065  0.0322 -0.0190
25936W        W42410  12.943   1.343   3.994  0.0400  0.1047 -0.1422
25937W        W42411  15.004  10.825   0.527 -0.0570  0.0434 -0.1215
25938W        W42412   5.352   6.581   3.027 -0.1132 -0.1700 -0.0617
25939W        W42413   3.549   1.444   3.111 -0.1143 -0.0322  0.1155
25940W        W42414   5.128   7.338  14.726  0.0554  0.2131  0.1723
25941W        W42415  17.259   1.657   5.356  0.4422 -0.0358 -0.0693
25942W        W42416  16.056  15.898   5.633 -0.0415 -0.0886 -0.2466
25943W        W42417   8.072   9.812   5.872  0.2758  0.0348  0.0712
25944W        W42418   4.736   9.114  16.480  0.0537 -0.1693  0.0297
25945W        W42419   4.012   6.123  12.808 -0.1653  0.2168  0.0350
25946W        W42420  13.641   3.020   4.231 -0.3276 -0.1659 -0.1746
25947W        W42421  17.071  15.203   1.284  0.2755 -0.1006  0.0439
25948W        W42422  13.288   3.977   2.659  0.1253  0.4375 -0.1174
25949W        W42423   3.343   3.153   4.843 -0.0193 -0.2136 -0.1845
25950W        W42424   8.348  16.575   3.210 -0.3465 -0.0266  0.0037
25951W        W42425   7.195  12.459   0.769  0.3722  0.0242  0.0777
25952W        W42426   7.498  12.960   2.902 -0.0009  0.0494  0.1207
25953W        W42427   8.301   4.501   4.246 -0.2914 -0.1181  0.0359
25954W        W42428   0.973  14.517  12.302  0.1938 -0.0431 -0.0195
25955W        W42429   0.164   5.847  16.363  0.0967  0.0685 -0.1996
25956W        W42430  15.530   1.259   3.992  0.0417  0.2093 -0.0553
25957W        W42431   1.995  11.390   1.827  0.2055  0.0680  0.0458
25958W        W42432  17.449   6.790   5.277  0.0127 -0.3591 -0.1756
25959W        W42433   6.955   7.516  13.252 -0.2605 -0.0223 -0.2039
25960W        W42434   7.188  16.963   3.732  0.0595 -0.0740  0.1249
25961W        W42435  10.960   5.456  15.913 -0.4819 -0.0088  0.1040
25962W        W42436   2.764   8.337   1.187 -0.1134 -0.2617 -0.0359
25963W        W42437   2.847   5.530   3.550 -0.3388  0.0221 -0.0370
25964W        W42438   7.370   0.119   5.578 -0.2143  0.2470  0.2261
25965W        W42439  17.438   9.388  15.645  0.0317 -0.1650 -0.1504
25966W        W42440   6.171  12.598  14.773 -0.1754 -0.4237  0.2600
25967W        W42441  13.176   3.690   3.674  0.0622 -0.0566  0.3615
25968W        W42442  16.092  10.615   2.720  0.1532  0.0709 -0.2029
25969W        W42443   4.155  16.817  12.076  0.3066 -0.0067 -0.1951
25970W        W42444   4.545   2.128   3.995  0.0603 -0.0846 -0.2373
25971W        W42445   8.856   0.361   0.420 -0.4175  0.2357 -0.1173
25972W        W42446  12.680   4.181  16.051  0.0286  0.2357 -0.1224
25973W        W42447  16.832   7.471   6.361 -0.1369  0.0088 -0.0480
25974W        W42448   1.315  15.782  14.509  0.1731 -0.2583 -0.2889
25975W        W42449   6.641   0.452   5.375 -0.1378 -0.0070  0.1099
25976W        W42450   6.626   5.551  12.143  0.0422  0.0623  0.1567
25977W        W42451   6.961  14.675  13.393  0.0086 -0.1001 -0.1847
25978W        W42452  13.781   2.603  16.674 -0.3032 -0.2344 -0.2871
25979W        W42453   8.129   9.947  12.761  0.0045  0.0247  0.0727
25980W        W42454   4.399   5.716  12.897  0.0182  0.2553  0.2280
25981W        W42455  17.526   0.470  14.011 -0.1664  0.0193 -0.0506
25982W        W42456   2.971  12.048   2.407  0.0621 -0.2781  0.1095
25983W        W42457  12.324  15.215   2.225  0.4088 -0.2785 -0.0095
25984W        W42458   7.993  14.829   1.853  0.2654 -0.1766 -0.0078
25985W        W42459  14.963  16.834  11.579  0.0324  0.1008  0.1723
25986W        W42460   5.023  11.704   4.054  0.1138 -0.0701 -0.2286
25987W        W42461   9.867   9.916   5.064  0.0060  0.0559  0.1141
25988W        W42462   3.754   6.277  14.688 -0.0107 -0.3556  0.2577
25989W        W42463   3.036   6.423   0.242 -0.0633 -0.0240  0.0750
25990W        W42464   1.589   7.606  11.670  0.1644  0.1538  0.1501
25991W        W42465  15.911   5.425   0.562  0.2438  0.1293  0.0970
25992W        W42466   2.042   3.278  13.074 -0.0301 -0.2419  0.0637
25993W        W42467  11.410   8.056   4.209  0.0338  0.2946 -0.0513
25994W        W42468  17.708  15.077   2.208  0.0016 -0.1880  0.1638
25995W        W42469   8.104   2.702   3.731  0.0350  0.3412  0.1018
25996W        W42470   1.116   3.036  12.388 -0.1892  0.4421 -0.0757
25997W        W42471  16.856  17.641   4.577 -0.0521 -0.0406 -0.0173
25998W        W42472   6.063   0.357  12.123 -0.1072 -0.3145  0.1104
25999W        W42473   6.259  16.015   1.341 -0.0270 -0.0770 -0.0004
26000W        W42474   5.593  13.935   2.473  0.2282  0.1708  0.0776
26001W        W42475   9.700  15.572   3.519 -0.0801 -0.0647 -0.2096
26002W        W42476   7.255   8.803   5.398  0.2890  0.0974  0.0088
26003W        W42477  11.512   6.062   4.045 -0.0745  0.0346 -0.3301
26004W        W42478   3.730  13.275  13.302 -0.2779  0.3444 -0.1054
26005W        W42479  12.654  10.726   3.459  0.2113 -0.3263 -0.3183
26006W        W42480  16.648  10.842  14.706  0.0786  0.2735  0.2649
26007W        W42481  14.797   5.506  12.147 -0.1336 -0.0871 -0.1785
26008W        W42482  10.227   4.095   5.291 -0.0100  0.0903 -0.2200
26009W        W42483   9.811   1.122   5.808  0.0098 -0.0542 -0.1683
26010W        W42484   8.128   6.377  16.761  0.0859  0.3240 -0.0371
26011W        W42485   1.353  16.740   4.401  0.1084 -0.0149 -0.0211
26012W        W42486  11.900   3.159  11.756 -0.0382 -0.2267 -0.2036
26013W        W42487  10.992   5.746   1.504 -0.0425 -0.0114  0.2447
26014W        W42488  11.312   5.008   3.799 -0.1121  0.0627 -0.2643
26015W        W42489  14.464  13.838  13.657  0.0412 -0.3520 -0.1676
26016W        W42490  15.679   4.918   0.537 -0.0903  0.0835 -0.0715
26017W        W42491   2.854  17.517   4.126  0.0173  0.0887 -0.0176
26018W        W42492  14.218   4.452   2.664  0.0879 -0.0155 -0.0086
26019W        W42493   0.279  11.679   4.197 -0.0862  0.0095  0.1497
26020W        W42494  13.788   3.869   2.916 -0.1910  0.3527 -0.0969
26021W        W42495  17.244  15.157   4.084 -0.1857  0.1377 -0.0258
26022W        W42496  15.836  14.529   0.198  0.1242  0.1861  0.0092
26023W        W42497  12.481   8.303   3.884 -0.0464  0.2347  0.1513
26024W        W42498  11.022   4.155   5.176 -0.0999 -0.0437 -0.0436
26025W        W42499  11.619  17.621  15.160  0.2247 -0.3047  0.1146
26026W        W42500  17.855   6.095   2.667  0.0892 -0.2185  0.1139
26027W        W42501   7.468  11.127   2.545 -0.3188 -0.2205 -0.1808
26028W        W42502  13.606  13.479   1.407  0.2581  0.1729 -0.0446
26029W        W42503  16.484  14.069  13.588 -0.2316  0.0225  0.2323
26030W        W42504  15.021  10.989  13.985  0.2256  0.0477 -0.0856
26031W        W42505   1.861   4.000  13.181 -0.0509  0.3477 -0.0895
26032W        W42506  17.350   3.639  11.856 -0.0219 -0.0799 -0.0040
26033W        W42507  11.344   4.785  16.718 -0.2162 -0.2773 -0.1640
26034W        W42508   7.522  13.164  14.647 -0.0292 -0.0169  0.2059
26035W        W42509   7.277  13.845  16.152  0.0044  0.5307  0.0164
26036W        W42510   8.928  17.356   4.555 -0.0553  0.2283  0.0077
26037W        W42511   6.242  11.041  12.596  0.2650 -0.0363  0.0350
26038W        W42512   3.198   5.214   2.089 -0.1222 -0.1804  0.0352
26039W        W42513  13.428  13.887  13.253  0.0218  0.3420 -0.0074
26040W        W42514  14.571   5.192   4.056 -0.2241  0.3955  0.1674
26041W        W42515  10.987   0.400  14.128 -0.0274  0.2627 -0.5953
26042W        W42516  12.871  16.645   5.143 -0.2333 -0.0261 -0.1699
26043W        W42517   1.762   7.588  14.881  0.1816 -0.0307  0.0142
26044W        W42518   1.476  12.946  13.594  0.0623  0.2511 -0.1940
26045W        W42519   1.019   0.458  14.817 -0.0541  0.0390 -0.0142
26046W        W42520  10.527  16.586   3.596 -0.1110  0.0205  0.2503
26047W        W42521  12.421  17.710  12.221 -0.1823 -0.0671 -0.0548
26048W        W42522   9.447  17.236   3.753 -0.1040 -0.3323 -0.0251
26049W        W42523   5.081  16.413  16.066  0.0137 -0.1737  0.2560
26050W        W42524   7.672   8.612  12.948  0.1905  0.1584  0.0835
26051W        W42525   4.343   7.169   5.328  0.3681  0.2037 -0.2532
26052W        W42526   4.267   2.550   3.231 -0.3525  0.0340 -0.0330
26053W        W42527   6.353   6.458  14.442 -0.1228  0.1504 -0.2588
26054W        W42528   5.122  16.446  13.771  0.1130 -0.0372 -0.0975
26055W        W42529   4.859   2.919   3.381 -0.0970  0.1981  0.1496
26056W        W42530  16.389  17.079  10.879 -0.0248 -0.1950 -0.2258
26057W        W42531   2.573   6.760  12.915 -0.1220  0.3741 -0.1084
26058W        W42532   0.177   0.032  11.878 -0.1825  0.0071 -0.1189
26059W        W42533   9.931  10.459   5.080 -0.0562  0.2906  0.2001
26060W        W42534   6.069   6.430  12.809  0.0400  0.0629  0.1798
26061W        W42535   6.249  17.340  15.071 -0.0715  0.0944 -0.0849
26062W        W42536   9.008   7.489   4.000 -0.3925  0.1071  0.1119
26063W        W42537   9.735  14.610   1.156 -0.1343 -0.0429  0.0487
26064W        W42538   3.849  10.294   1.417  0.0732  0.3416 -0.0801
26065W        W42539  16.999  17.036  13.225 -0.3305 -0.0591 -0.2328
26066W        W42540  11.079  14.022  16.500 -0.0364  0.0041 -0.3950
26067W        W42541   9.332   8.527   0.346 -0.0346 -0.0093 -0.1419
26068W        W42542  12.636  16.338  12.003 -0.2634 -0.0592  0.0390
26069W        W42543   7.118   3.388  15.861  0.0202  0.0784  0.1547
26070W        W42544  17.334  13.919  12.993 -0.1790 -0.0167 -0.1220
26071W        W42545  13.508   1.165  13.276 -0.2038  0.0439  0.0873
26072W        W42546  13.859   3.924  12.382 -0.1970 -0.0889  0.1483
26073W        W42547   1.434  13.979  14.899 -0.1724  0.1017  0.0027
26074W        W42548   2.845   3.587   2.293  0.1676  0.0065 -0.2069
26075W        W42549  11.885  10.677  13.186  0.0778 -0.1126 -0.1333
26076W        W42550  13.011  12.468  14.895 -0.3296 -0.1847  0.0592
26077W        W42551  16.610   6.863   1.331  0.0273  0.1709 -0.0759
26078W        W42552   8.761  16.601  14.170  0.1658 -0.2493 -0.0060
26079W        W42553   0.603  11.479  11.014 -0.1009 -0.2717 -0.1876
26080W        W42554  15.395   1.506  15.238 -0.1619  0.0316  0.0921
26081W        W42555   5.295   5.744   3.242  0.1384  0.1385  0.0764
26082W        W42556  16.542   6.104  14.394 -0.0833  0.3069 -0.0217
26083W        W42557   1.209   0.362   2.541 -0.0015  0.3527 -0.2495
26084W        W42558   4.212   3.999  14.433 -0.0167 -0.0071  0.2817
26085W        W42559   9.710  10.184  14.828 -0.2283 -0.4103 -0.0674
26086W        W42560  17.984   2.214  12.560  0.0508 -0.1737  0.0012
26087W        W42561  14.200  10.852  15.057 -0.3266 -0.0079 -0.0958
26088W        W42562   9.066  10.591  16.001 -0.0601 -0.1333  0.0061
26089W        W42563  13.624   8.203  12.150 -0.0347  0.2822  0.0458
26090W        W42564  13.212  12.514  11.886 -0.1300 -0.1266 -0.2708
26091W        W42565  12.131   7.932   2.705 -0.1252 -0.2610 -0.0612
26092W        W42566   8.957   7.046   0.448 -0.0622  0.0115  0.1642
26093W        W42567   6.803  11.001  11.609 -0.2410 -0.0245 -0.3908
26094W        W42568  13.132   4.971   3.053  0.0200  0.0240  0.0735
26095W        W42569  15.691   3.037   4.003  0.0723 -0.0075 -0.1518
26096W        W42570  11.280  12.243  16.437 -0.3232 -0.0540 -0.1102
26097W        W42571  16.387   6.831   0.778  0.0037  0.2621 -0.2740
26098W        W42572   8.493  14.118   0.766  0.2466  0.0375 -0.0054
26099W        W42573  10.126  11.858  13.932  0.0607 -0.1709  0.1352
26100W        W42574   6.592  12.397  15.528 -0.1697  0.0017 -0.2371
26101W        W42575   1.646   6.783   4.826  0.0667  0.2039  0.2483
26102W        W42576  16.410   2.162   5.729  0.0373 -0.1657 -0.1927
26103W        W42577   8.196  11.253   0.684  0.4277  0.5113  0.2224
26104W        W42578   7.727  16.456   1.439 -0.0447  0.0260 -0.0275
26105W        W42579   5.841  12.914  13.947  0.2742  0.2300 -0.0723
26106W        W42580  12.390  10.814  12.050 -0.1234 -0.0743  0.0645
26107W        W42581   8.993  14.910   4.253  0.1219  0.2648  0.1857
26108W        W42582  17.410   5.071  14.628  0.1457 -0.1178 -0.1183
26109W        W42583   1.556   8.296   1.368  0.0123  0.2004  0.1351
26110W        W42584  16.469   0.717  15.155  0.4785 -0.0345 -0.1280
26111W        W42585   4.695   7.305  13.072 -0.0377 -0.1686 -0.1430
26112W        W42586   9.401  12.945  16.754 -0.1519 -0.1627  0.1956
26113W        W42587  14.603   8.626  11.518  0.0461 -0.1409 -0.1770
26114W        W42588   5.023  17.603  11.526 -0.0610 -0.0744 -0.1830
26115W        W42589  13.136   8.097  13.267  0.1057 -0.3666 -0.1511
26116W        W42590   4.174   4.582   5.048  0.2400 -0.1077  0.0277
26117W        W42591   3.989  12.943   2.877  0.0460  0.0827 -0.2523
26118W        W42592   1.434  13.381   0.084  0.0455 -0.1169 -0.1205
26119W        W42593   7.649  16.843   1.061  0.0005 -0.2127  0.3600
26120W        W42594   1.992   2.105  15.380 -0.0529  0.2971 -0.0857
26121W        W42595   6.852   6.820   3.402 -0.1392 -0.4356 -0.0827
26122W        W42596  17.074  11.649   5.304 -0.2549 -0.1764 -0.0584
26123W        W42597   3.668  15.390   4.204  0.0055  0.3243  0.0419
26124W        W42598   7.234  11.322   0.800 -0.1367 -0.1513  0.0531
26125W        W42599   9.083  14.521  11.374 -0.1277  0.0368 -0.2810
26126W        W42600   3.462   4.449   3.507  0.2918 -0.0384  0.0452
26127W        W42601  10.508   9.873  14.829  0.1340  0.1939  0.0362
26128W        W42602  17.574  12.270  16.072  0.1667 -0.0845 -0.0298
26129W        W42603   2.519  14.716   5.445 -0.1369  0.0693 -0.1209
26130W        W42604  11.394  13.989   4.280  0.2253  0.1798 -0.2358
26131W        W42605   6.881   0.734   0.639 -0.0408  0.0535 -0.0069
26132W        W42606   3.199   2.487  11.928  0.3981 -0.0193  0.1064
26133W        W42607  15.240   6.689  16.289  0.2798  0.2176 -0.1212
26134W        W42608  14.180   1.168   1.180  0.1547  0.2088 -0.1667
26135W        W42609   3.101   6.342   1.558 -0.3027 -0.1604  0.0443
26136W        W42610   7.411   8.839   6.703 -0.1630 -0.1507  0.1628
26137W        W42611  16.292  12.246  12.979  0.1969 -0.0922 -0.0429
26138W        W42612   3.202   6.780  14.337  0.2688 -0.1798 -0.3272
26139W        W42613  11.434  12.682  14.793 -0.0325 -0.1941 -0.0758
26140W        W42614  15.088   0.050   1.492 -0.2030  0.0444  0.2679
26141W        W42615  16.375  17.244  12.526 -0.0660  0.3009  0.1701
26142W        W42616  13.166  11.264   4.175 -0.0766 -0.1168  0.0749
26143W        W42617   0.576   1.583  15.338  0.0459  0.3666 -0.0267
26144W        W42618  16.042   8.259  12.053 -0.1462 -0.0670  0.1612
26145W        W42619   8.072  11.082   0.104  0.0313  0.1250 -0.0763
26146W        W42620   9.893   4.340  15.398 -0.2372 -0.0878 -0.1139
26147W        W42621   2.178   9.635   1.541 -0.0135 -0.1970  0.0177
26148W        W42622  15.768   6.685  14.143 -0.0339 -0.2388 -0.3424
26149W        W42623   6.580  12.738  12.023 -0.0268  0.2438  0.1969
26150W        W42624   2.510   5.640   3.870  0.1187 -0.1456  0.0409
26151W        W42625   1.298   8.819  14.979  0.0699  0.0512  0.0120
26152W        W42626  13.280  16.058  16.095  0.1485  0.0663 -0.0759
26153W        W42627  14.435   2.210   0.478 -0.0355  0.2531 -0.2564
26154W        W42628   5.242  13.377  16.123  0.3018  0.1258 -0.0223
26155W        W42629   7.418  12.350   5.358  0.0505 -0.0002 -0.0659
26156W        W42630  16.931   5.964   0.743  0.1764  0.0785  0.2198
26157W        W42631   7.777   7.353  12.617  0.0515 -0.0468 -0.0371
26158W        W42632   4.289   3.030  12.380  0.1011 -0.0562  0.1990
26159W        W42633  12.686   1.594   4.586  0.2348  0.0579  0.0460
26160W        W42634   2.349  14.060  14.628  0.2688 -0.1106 -0.0340
26161W        W42635  14.898   7.428   1.004 -0.0531  0.4338  0.1398
26162W        W42636   8.833  13.733  16.782  0.0800  0.1595  0.2269
26163W        W42637  13.175  17.557   1.883 -0.2970  0.1187  0.0802
26164W        W42638  14.724  12.008  13.644  0.1979 -0.3525  0.0174
26165W        W42639   8.485  14.110  12.989  0.2149 -0.1261 -0.4424
26166W        W42640  17.595  17.611   3.648 -0.1937  0.2310 -0.1190
26167W        W42641   5.746  11.258   5.062  0.2209 -0.0790  0.1904
26168W        W42642   3.049  14.342  12.129 -0.3772  0.0057 -0.2008
26169W        W42643   1.256   6.243  13.250 -0.0256  0.0741 -0.0913
26170W        W42644   5.457   3.439   1.902  0.0032  0.1893 -0.0395
26171W        W42645   9.163  13.276   2.252  0.1149  0.1980  0.2452
26172W        W42646  13.823  15.053   1.337 -0.2499  0.0403  0.1508
26173W        W42647   1.890  16.431  15.889 -0.0035  0.2260  0.2967
26174W        W42648   0.535   1.137   1.227  0.2177 -0.1275  0.0263
26175W        W42649  11.543  11.658   5.789 -0.2837  0.3136  0.0257
26176W        W42650  15.222   6.329   1.479  0.1357 -0.0377 -0.0538
26177W        W42651   6.955   8.472   3.172  0.1648  0.1991  0.2347
26178W        W42652   6.214   6.942   3.302  0.1982  0.4644  0.0041
26179W        W42653   3.935   6.399   5.473  0.0893 -0.0859 -0.0174
26180W        W42654   5.671  13.622  10.167  0.0886 -0.2307 -0.0014
26181W        W42655   7.028   3.076   2.468 -0.1564 -0.2530  0.3955
26182W        W42656   2.020   9.640   0.957 -0.2119 -0.0742  0.1419
26183W        W42657  10.450  14.368   0.423  0.0182  0.1504  0.0326
26184W        W42658   9.439  16.059  15.536  0.1084  0.2345 -0.0884
26185W        W42659   6.240   1.952  16.553  0.3708  0.1733 -0.1404
26186W        W42660  14.604  10.058   5.939  0.2951  0.2829  0.1241
26187W        W42661  16.565   7.326  16.250 -0.1922 -0.1139 -0.1079
26188W        W42662  15.466   1.713   4.148  0.1609  0.0776 -0.1423
26189W        W42663   4.377   7.530  14.112  0.1239  0.3912  0.1198
26190W        W42664  13.308  12.213  12.327 -0.2341  0.3210  0.3719
26191W        W42665  17.279  13.303   4.251 -0.2085  0.0288  0.1936
26192W        W42666  17.915  11.393  15.806 -0.2306  0.4431  0.0241
26193W        W42667   6.247   8.817   2.972 -0.2082  0.3476 -0.2713
26194W        W42668   9.955  11.995  12.365 -0.1085  0.0811  0.0331
26195W        W42669   3.446  14.806   1.556  0.0224 -0.3049 -0.4183
26196W        W42670   0.776   6.483  13.103 -0.0135  0.4253  0.0647
26197W        W42671  15.819   6.799   1.990  0.0313 -0.3755 -0.2003
26198W        W42672   4.540   4.454  14.890 -0.2828  0.1640  0.3273
26199W        W42673  15.874   1.454  16.296  0.3307 -0.0474  0.2317
26200W        W42674   7.353   4.959  14.373 -0.1238 -0.4252 -0.0295
26201W        W42675  16.990   7.605  16.541 -0.0613  0.1316 -0.0068
26202W        W42676   3.188   2.676   4.148 -0.1650  0.0798 -0.2249
26203W        W42677   0.086  10.359   1.257  0.1873  0.2976 -0.2556
26204W        W42678   4.505   0.569  13.881 -0.2000  0.2849  0.3050
26205W        W42679   4.368  17.004   5.100 -0.3584 -0.2017  0.1467
26206W        W42680  10.088  17.415   3.609 -0.2406 -0.0003  0.1308
26207W        W42681   7.850  14.371   1.763 -0.3349  0.1322  0.0378
26208W        W42682   7.488   4.024   3.758  0.2889 -0.1207  0.2453
26209W        W42683  10.775  16.625   2.854  0.0289 -0.3249 -0.0065
26210W        W42684   2.351   7.532   3.267  0.2126 -0.1244  0.1324
26211W        W42685  13.971   3.531   1.498 -0.0930  0.1738  0.0578
26212W        W42686   0.586   7.843  13.274  0.0331  0.1256  0.4307
26213W        W42687  13.325   1.602  13.370  0.0150  0.1812 -0.3047
26214W        W42688  12.402  17.390  12.661 -0.4001 -0.2726 -0.0650
26215W        W42689  15.740   3.420   2.025  0.1705 -0.2380  0.1500
26216W        W42690   2.832   6.763  13.598 -0.0716  0.3270  0.0045
26217W        W42691  15.825   6.244  15.094 -0.1207 -0.0780 -0.0540
26218W        W42692  13.126  17.061   5.601 -0.2409  0.0731  0.1163
26219W        W42693   4.468   4.708   0.910  0.0116  0.3488 -0.0693
26220W        W42694  17.288   9.174  16.786 -0.2662 -0.3587  0.2415
26221W        W42695  11.304  10.656   0.758  0.0955  0.1008  0.0675
26222W        W42696  10.422   3.454   0.829 -0.0465  0.0611  0.1620
26223W        W42697  16.787  16.389   3.297 -0.1060 -0.0992 -0.0601
26224W        W42698  12.483   6.766   5.871 -0.0088 -0.0409 -0.1414
26225W        W42699   3.980   2.992  14.384  0.1378 -0.0009  0.1765
26226W        W42700   9.519  11.705   5.136 -0.2387  0.1170  0.0148
26227W        W42701  12.220   4.430   2.960 -0.3803 -0.0449 -0.1187
26228W        W42702   3.538  10.868   0.810 -0.1500 -0.0430  0.1955
26229W        W42703   0.307  11.075   0.868  0.1939 -0.0746  0.3265
26230W        W42704  12.544   2.407  15.333  0.0882 -0.3460 -0.0346
26231W        W42705  16.135  17.137   2.457 -0.0271  0.1734 -0.2359
26232W        W42706  12.328   3.930  14.457  0.0426  0.1115  0.1904
26233W        W42707  11.202   3.783  11.712 -0.0258 -0.1961  0.0412
26234W        W42708   1.734  16.829   1.309  0.0778 -0.3053  0.0557
26235W        W42709  10.917   3.552   4.445  0.4056  0.1480 -0.0233
26236W        W42710   9.668   0.276   3.936 -0.0853  0.1998  0.1205
26237W        W42711   6.090  14.867   1.193  0.1208  0.0582  0.1795
26238W        W42712  15.163   3.277   2.103 -0.2671  0.0866  0.1986
26239W        W42713   1.263   5.848  14.170 -0.2643  0.1165 -0.0460
26240W        W42714   8.447   8.821  14.128 -0.3145 -0.1717 -0.0621
26241W        W42715   0.263  17.173  11.855 -0.0665 -0.2209  0.1283
26242W        W42716  15.851  14.739   2.234 -0.1750  0.3631 -0.1139
26243W        W42717   3.006   0.004  14.105  0.2454  0.1127  0.0322
26244W        W42718  14.576  12.463   1.669  0.2138  0.2534  0.0978
26245W        W42719   8.073  17.620   0.905 -0.1249  0.0390 -0.2461
26246W        W42720   9.169  11.192  15.364 -0.0253  0.0216  0.2514
26247W        W42721   1.983  10.314   0.150 -0.0741  0.2776  0.1275
26248W        W42722   5.767   9.126  11.611 -0.3127 -0.0365  0.2051
26249W        W42723   0.240   8.173   5.529 -0.1013 -0.0344 -0.1017
26250W        W42724  13.599  13.079  12.020  0.2984 -0.0651 -0.1695
26251W        W42725  14.125  14.053  12.024 -0.0760  0.2024 -0.0711
26252W        W42726   4.871  15.089  15.555 -0.1651  0.1518 -0.3033
26253W        W42727  12.482   9.031  11.644 -0.0430  0.0949  0.1077
26254W        W42728   6.449  13.194   5.016  0.4785  0.1038 -0.0613
26255W        W42729   7.799   0.766  14.048  0.1937  0.0951 -0.0778
26256W        W42730  14.376  11.248  15.556  0.0989 -0.0073 -0.1489
26257W        W42731   0.887   5.674   4.607 -0.2796  0.1720  0.0891
26258W        W42732  17.164  16.695   5.738 -0.2961 -0.0575 -0.0834
26259W        W42733   8.366  10.084   3.258 -0.0774 -0.0362  0.1274
26260W        W42734   8.679  12.755  14.521 -0.3608 -0.0148 -0.0678
26261W        W42735  14.577  13.240   5.388 -0.1955 -0.3263  0.0549
26262W        W42736   1.529   8.480  12.040 -0.3263 -0.0290  0.1290
26263W        W42737   4.023   6.525   1.635  0.0338 -0.0595  0.0172
26264W        W42738   5.502   2.028   1.629 -0.1110  0.0748  0.0451
26265W        W42739   2.660   8.393  15.066  0.0427 -0.0003 -0.0073
26266W        W42740  13.417   1.233  12.819 -0.0586 -0.1942  0.3447
26267W        W42741  16.468  10.603  13.913 -0.3233 -0.2927  0.3034
26268W        W42742  13.095  16.946  12.945 -0.0669  0.4700 -0.1435
26269W        W42743  10.105   2.226   5.059 -0.1451 -0.1826 -0.0821
26270W        W42744   7.514  15.479   0.509 -0.0210 -0.0643 -0.0712
26271W        W42745   9.302   2.555  15.365  0.0135 -0.2965  0.2498
26272W        W42746  13.050  15.161  12.870  0.4581  0.3936  0.3390
26273W        W42747   0.582  13.869   0.201 -0.0093 -0.0477  0.0131
26274W        W42748   4.361  11.611   2.476  0.2917 -0.1017 -0.1803
26275W        W42749   3.831   7.937  15.702  0.2370  0.0994 -0.1017
26276W        W42750   3.757   8.532   3.419  0.2582  0.0137 -0.0034
26277W        W42751  10.317   1.026   5.588 -0.2614  0.0573 -0.2385
26278W        W42752   6.820   8.009   2.400  0.1049  0.0763 -0.3313
26279W        W42753  16.809  17.591  14.426  0.3479 -0.0726  0.2344
26280W        W42754  13.945   6.449  13.437 -0.1754 -0.0461  0.3054
26281W        W42755  16.120   5.777  14.450  0.1499  0.0224 -0.0250
26282W        W42756  17.122   1.068   3.206  0.1304  0.2062 -0.1699
26283W        W42757  10.603   2.820   5.541 -0.0919 -0.0483 -0.1063
26284W        W42758   2.640  17.670  13.232  0.2089 -0.2241  0.0579
26285W        W42759  14.434   0.447   4.851  0.0624  0.1042  0.1537
26286W        W42760  11.149  14.107   5.713 -0.0085 -0.0144  0.2625
26287W        W42761  13.099   2.562  15.238  0.3346  0.0609  0.0134
26288W        W42762   8.158   0.640  15.158  0.1093 -0.0544  0.0592
26289W        W42763   2.956  12.592   5.437 -0.2445 -0.2982 -0.2451
26290W        W42764   5.398  14.043  14.150  0.0968  0.2116  0.0283
26291W        W42765  14.966   3.208  15.122  0.0607  0.0413 -0.0349
26292W        W42766  14.600   6.886  12.735  0.0726 -0.0928  0.0598
26293W        W42767  10.144  12.470   2.005  0.3599 -0.2521 -0.1851
26294W        W42768  10.267  12.232  16.489  0.1427 -0.1501  0.1615
26295W        W42769   8.263  16.787   2.118  0.0145  0.0833 -0.1087
26296W        W42770  12.037   3.739   3.246  0.2312  0.0889  0.1819
26297W        W42771   3.659  17.475   4.784  0.0358  0.1027  0.0251
26298W        W42772   4.816  13.444  10.996 -0.2139 -0.0460  0.0113
26299W        W42773   2.526  13.941  11.510 -0.1697  0.0996 -0.0077
26300W        W42774  17.434   0.944  12.564  0.3045  0.1359 -0.1828
26301W        W42775   3.098  14.122   3.198  0.0841  0.0849  0.1038
26302W        W42776   2.898  16.596  13.015 -0.1234 -0.2656  0.0911
26303W        W42777   5.787   4.330   2.066 -0.1111 -0.0706 -0.1750
26304W        W42778  17.992  11.099   5.562  0.4557 -0.2033  0.1691
26305W        W42779   4.007  13.807   2.715 -0.1306  0.0885  0.1273
26306W        W42780   9.205   9.102  12.572  0.1182  0.0703  0.3528
26307W        W42781   7.364   6.755   5.859 -0.1483  0.2757 -0.2876
26308W        W42782  12.497  14.114  12.991 -0.2203 -0.1226  0.0498
26309W        W42783  13.373   4.713   2.463 -0.2448  0.1827  0.2324
26310W        W42784   7.858  10.488   1.109 -0.1111 -0.3280  0.0646
26311W        W42785   1.915   0.700   4.975  0.2777 -0.2889  0.0372
26312W        W42786   2.003  16.582   4.855  0.0669  0.1252 -0.2014
26313W        W42787   3.623   8.154   4.822 -0.1416 -0.0960  0.1442
26314W        W42788   2.200   2.629   2.467 -0.0871  0.0495  0.0366
26315W        W42789  17.054   9.892   5.551  0.0184 -0.0790  0.0716
26316W        W42790   2.408  17.286   4.090 -0.1348 -0.0553  0.1171
26317W        W42791  13.961   7.594   1.694 -0.2504 -0.0131  0.1429
26318W        W42792  14.122  15.694   2.408 -0.1604  0.0230 -0.2356
26319W        W42793   0.579   1.895  14.055 -0.0781 -0.1556 -0.4576
26320W        W42794   7.298   0.002   1.176 -0.0156 -0.3059  0.3204
26321W        W42795  17.051   8.451   3.122 -0.0558 -0.1363  0.0986
26322W        W42796   4.283   5.984   4.289  0.0832 -0.1343 -0.0034
26323W        W42797   3.050  14.776  11.266  0.0781 -0.3069  0.1894
26324W        W42798   0.738   0.778   4.608  0.1817  0.1243  0.1888
26325W        W42799  15.958  17.454   5.846 -0.0136  0.0266 -0.5629
26326W        W42800  11.693  14.728   0.208 -0.2885  0.4101 -0.1884
26327W        W42801   4.854   7.427   3.387 -0.1211  0.0148 -0.0658
26328W        W42802   3.302   8.135   5.374 -0.0364 -0.1069  0.3119
26329W        W42803  16.248   6.451  16.769  0.4270 -0.2572  0.0308
26330W        W42804  12.093  17.509   2.061  0.0841  0.0687  0.0589
26331W        W42805  17.439  12.615   2.703 -0.0451  0.2826 -0.1032
26332W        W42806  16.612  12.462  14.605 -0.2822  0.0786  0.0168
26333W        W42807  15.073  11.404  15.006 -0.1131 -0.0392  0.2743
26334W        W42808  15.841  10.986   0.308 -0.1578  0.0070 -0.3314
26335W        W42809   0.843   1.584   3.392  0.2126 -0.0126 -0.0157
26336W        W42810   0.163  14.324  15.211 -0.0250  0.0694  0.2015
26337W        W42811  10.570  15.530  16.669  0.0846 -0.0499  0.0848
26338W        W42812   1.489   6.160   5.482  0.0359 -0.3350  0.3325
26339W        W42813   3.254   5.410   1.576 -0.2272  0.2098  0.0964
26340W        W42814   5.709   7.899   5.572 -0.2167  0.0954 -0.0373
26341W        W42815   5.705  12.438   1.956  0.0374  0.0365 -0.0328
26342W        W42816  10.972  12.510   3.302 -0.0535  0.4691  0.0181
26343W        W42817   8.251  10.013  16.013 -0.2908  0.1957  0.2715
26344W        W42818  10.297   3.898   0.655 -0.1507  0.0513  0.1687
26345W        W42819   5.858  14.765   4.980  0.1752 -0.1516 -0.1713
26346W        W42820  10.859   0.048   3.959 -0.3640 -0.0145 -0.0259
26347W        W42821   0.477  16.015   5.900 -0.1987  0.3415 -0.0252
26348W        W42822   3.826  11.933  10.493  0.1300  0.0125 -0.0889
26349W        W42823  14.697   4.105  16.679 -0.3014 -0.0703  0.1032
26350W        W42824  16.071   8.345  14.372 -0.2801  0.5387 -0.2949
26351W        W42825   5.373   9.922  13.714  0.0587 -0.0293 -0.0912
26352W        W42826  15.596   6.297   2.018 -0.0773  0.1172 -0.1069
26353W        W42827   8.014   2.502   3.267  0.0976  0.1080 -0.1009
26354W        W42828   5.165  14.633  15.720 -0.1846  0.0612  0.0003
26355W        W42829   6.498  15.537   1.695  0.1160  0.0733 -0.0466
26356W        W42830  17.640   8.658   3.468  0.0735  0.1916  0.1313
26357W        W42831   6.085   4.721  15.024  0.2108  0.0541  0.3498
26358W        W42832   7.130   9.296   2.552 -0.0210  0.0876 -0.0390
26359W        W42833  17.134  13.642   1.657  0.1944  0.2287 -0.2794
26360W        W42834   9.050  11.813   1.670  0.1363  0.0256 -0.2823
26361W        W42835   9.962   5.805  16.570  0.0227  0.3183  0.0855
26362W        W42836   4.350  12.945   2.395  0.0545  0.0074  0.2378
26363W        W42837  10.793   4.383   3.795 -0.0220  0.1305  0.1466
26364W        W42838   9.354  13.975  12.776  0.0208  0.1288  0.2786
26365W        W42839  13.000   7.021  13.686  0.0592  0.0199  0.1616
26366W        W42840   1.279  13.671  12.387 -0.2627  0.0607  0.0418
26367W        W42841   9.029   7.019   5.316  0.2010  0.0455  0.2314
26368W        W42842  10.751   6.604   2.901  0.0417 -0.0461  0.2926
26369W        W42843  13.643   8.359  14.750 -0.0181 -0.0068  0.1254
26370W        W42844  15.071   2.822   1.232 -0.1988 -0.0372  0.1410
26371W        W42845   8.230   4.337   3.658 -0.1553 -0.1310 -0.3278
26372W        W42846   5.319  17.456   0.714 -0.1298 -0.2333  0.1208
26373W        W42847   9.833   9.661  12.137 -0.0311 -0.1355  0.1707
26374W        W42848   4.941  17.316   3.581  0.1055 -0.1658 -0.1991
26375W        W42849   8.644  11.225  11.378  0.1384  0.2338  0.2273
26376W        W42850  17.760  15.876   1.066  0.3319  0.0898 -0.2645
26377W        W42851   2.530   9.986  11.427  0.0966  0.0960 -0.3011
26378W        W42852   9.245   5.149   2.875 -0.1625 -0.0048 -0.0903
26379W        W42853   6.916  13.886  13.097 -0.0307  0.3160  0.1092
26380W        W42854   8.691  17.922   3.833  0.1278 -0.1505 -0.1828
26381W        W42855   4.752  12.691   2.195 -0.1018 -0.1126 -0.0901
26382W        W42856  12.602   0.555  13.661 -0.2232 -0.0657 -0.0011
26383W        W42857  10.708   2.255  15.525  0.3086 -0.0394  0.1917
26384W        W42858   8.750   4.408   1.153  0.1619  0.0935 -0.0802
26385W        W42859  11.106  16.150   2.889 -0.1599 -0.2553 -0.4061
26386W        W42860   6.514   2.161   2.973  0.2329  0.0653  0.0007
26387W        W42861   4.468  14.113  13.883 -0.0361  0.1342 -0.2866
26388W        W42862   7.291  13.942  11.928  0.1134 -0.0930 -0.1401
26389W        W42863   6.866   5.469   4.071  0.1353  0.2195  0.1914
26390W        W42864   8.983   7.776   2.847  0.3495  0.1369 -0.4356
26391W        W42865  11.079  16.709   3.618 -0.1181  0.0081 -0.5198
26392W        W42866  14.239  13.714  14.148 -0.0117 -0.0384 -0.2630
26393W        W42867   4.271  17.479   4.463 -0.0271  0.0554 -0.0063
26394W        W42868   9.209  10.607   4.242 -0.1175  0.2107  0.0301
26395W        W42869  10.032  13.288   4.206  0.2766 -0.0006 -0.3673
26396W        W42870   1.741  17.404  15.295  0.1583  0.0675 -0.3333
26397W        W42871   8.969   3.399   2.996  0.0455 -0.3301  0.0265
26398W        W42872   6.649  10.345   5.343 -0.3030  0.0479 -0.0869
26399W        W42873   6.579  17.752  15.151 -0.0916  0.4068  0.0716
26400W        W42874  16.148   7.398   2.576  0.0991  0.1659 -0.1375
26401W        W42875  13.406   5.096  15.682  0.0718  0.1117  0.1672
26402W        W42876  10.096   6.961   1.883 -0.0746  0.1609 -0.1370
26403W        W42877  14.976  12.984   3.943  0.3717 -0.1414  0.1997
26404W        W42878   6.780  13.704  14.118  0.2288 -0.1382 -0.1830
26405W        W42879   2.424   2.128  13.827 -0.2225  0.2912  0.3010
26406W        W42880   7.644   8.666   4.977  0.1107 -0.0740 -0.2619
26407W        W42881  11.095  10.820   1.323  0.0810 -0.1869 -0.0997
26408W        W42882   6.068   0.383   0.307 -0.0625  0.0597 -0.0136
26409W        W42883  10.742   8.029   0.262  0.0127  0.0665  0.2075
26410W        W42884   9.904  12.794  16.119 -0.0859  0.0625  0.1626
26411W        W42885  10.996   2.346  13.728  0.0995  0.3909 -0.0110
26412W        W42886   0.318  11.770  15.703 -0.3291  0.2213  0.1416
26413W        W42887   6.986  16.465  13.389 -0.2044  0.1111 -0.0898
26414W        W42888  15.853  13.298   1.082 -0.0101  0.0725  0.1685
26415W        W42889  12.141   5.067  15.679 -0.1287  0.0392 -0.0829
26416W        W42890  13.463  16.752   4.576 -0.0123 -0.0912  0.0201
26417W        W42891   5.103  14.252   4.840  0.1109  0.0698  0.0817
26418W        W42892   9.038   7.750  12.997  0.2204  0.1385 -0.2361
26419W        W42893  10.980  13.024  15.668 -0.1248 -0.0342 -0.3352
26420W        W42894  16.082   4.814   2.388  0.1336  0.1133  0.1348
26421W        W42895   2.973   6.275  11.581  0.0524  0.2431  0.0145
26422W        W42896   8.496  10.092   3.910 -0.0593 -0.1148 -0.1601
26423W        W42897   7.270  11.743  14.470  0.1693  0.0697  0.1279
26424W        W42898   4.683   8.018  16.266  0.2053  0.3155 -0.0716
26425W        W42899   2.978   6.982  12.098  0.0305  0.1081  0.2541
26426W        W42900  17.051   3.301  15.984  0.1258 -0.0466  0.2751
26427W        W42901  12.024  16.457   5.462 -0.0010  0.1296 -0.0282
26428W        W42902  11.305  15.801   4.580  0.1861  0.0104 -0.2327
26429W        W42903   7.081   1.390  12.417  0.1900 -0.1377 -0.2110
26430W        W42904  12.128   9.879  16.457  0.1746 -0.0524  0.3993
26431W        W42905   0.458  12.142   2.772  0.0918  0.1661  0.0726
26432W        W42906   9.383   8.161   1.527  0.1306  0.1380  0.0852
26433W        W42907   4.975  12.932   1.822  0.1456 -0.0466 -0.2228
26434W        W42908  11.416   6.543   0.833 -0.0992 -0.1259 -0.0371
26435W        W42909   0.128   6.984   3.916  0.1454  0.0577 -0.4485
26436W        W42910   8.677   6.576   1.862  0.2884  0.1012 -0.0091
26437W        W42911   8.673  11.152   0.845 -0.1180  0.0138  0.1455
26438W        W42912   8.647  12.265  14.237  0.1456 -0.3136  0.1791
26439W        W42913   4.027  13.318   5.164 -0.2493 -0.2865 -0.1298
26440W        W42914  10.152  13.104  11.507  0.0810 -0.1335 -0.3476
26441W        W42915  15.981   0.550  14.288  0.0560  0.2976 -0.3818
26442W        W42916  11.892   3.452  13.098 -0.1389 -0.0378  0.0832
26443W        W42917  17.574  14.836   4.838  0.0306  0.0493  0.3655
26444W        W42918  11.879  11.302   1.063 -0.2203 -0.0563  0.0499
26445W        W42919  11.618   6.418   2.836 -0.0593 -0.2243 -0.2146
26446W        W42920  17.168   0.284  16.563  0.0821 -0.0244 -0.0107
26447W        W42921   1.012   0.913   1.809 -0.2168  0.0971  0.0786
26448W        W42922  11.422   8.784   1.341  0.0915  0.0539  0.0905
26449W        W42923  17.404   0.863  13.758 -0.0252  0.1059 -0.0440
26450W        W42924   8.047   9.996   1.059 -0.1552  0.1303  0.1873
26451W        W42925   4.760   5.758   2.979 -0.1157  0.0376 -0.3035
26452W        W42926   0.053   2.453   3.897  0.2592 -0.3287 -0.1719
26453W        W42927   1.380  12.548  16.005  0.0626  0.1551  0.2469
26454W        W42928  16.036   3.198  11.931 -0.1380  0.1701 -0.0350
26455W        W42929   6.922  14.561  11.359  0.1374 -0.3761 -0.0400
26456W        W42930   4.848   9.413   1.203  0.0932  0.1830 -0.2296
26457W        W42931  17.604  10.442   1.398 -0.0747  0.2046  0.3548
26458W        W42932   6.656  13.081  12.598 -0.0193 -0.1571  0.0783
26459W        W42933   1.455  10.369  12.954 -0.0881  0.3485  0.1761
26460W        W42934  17.620   1.032   1.029  0.0321  0.1044  0.0114
26461W        W42935  13.534   8.434   5.956 -0.0571 -0.1959  0.0821
26462W        W42936  13.405   4.544  15.655 -0.0396  0.2569 -0.1944
26463W        W42937   4.302   4.989  14.652  0.3256 -0.1788  0.0724
26464W        W42938   5.444   8.300   1.976 -0.0533  0.1654  0.0097
26465W        W42939   0.634  16.419   5.424 -0.0109  0.2484 -0.0650
26466W        W42940  12.668   2.873   4.866  0.2143 -0.0357 -0.0392
26467W        W42941   2.044   1.434   0.653 -0.2937  0.2511 -0.0951
26468W        W42942   9.007   0.238  14.822 -0.0030 -0.2129 -0.1260
26469W        W42943  10.424   9.638   0.007 -0.1837  0.0050  0.2831
26470W        W42944  16.486  16.546  11.715 -0.1478  0.1420  0.0244
26471W        W42945   4.831  15.426   3.817  0.3187 -0.1026  0.1506
26472W        W42946  14.291  11.604   4.989 -0.0184 -0.1294 -0.1257
26473W        W42947   3.085  17.574   1.616 -0.0408 -0.3603  0.3662
26474W        W42948   7.236   5.324   0.585 -0.1296 -0.4303  0.2265
26475W        W42949   8.989   3.384  16.558  0.3979 -0.2413  0.0950
26476W        W42950  12.823  12.175  12.611 -0.0403  0.0266  0.0021
26477W        W42951   8.277   2.340  14.149 -0.0876 -0.1558  0.0705
26478W        W42952   5.337  13.950  11.891 -0.0301 -0.0967  0.0510
26479W        W42953  15.930  10.984  14.645  0.3286  0.0913 -0.2620
26480W        W42954   2.814   0.390  15.563  0.3527 -0.1994  0.1043
26481W        W42955  14.013   9.855  13.726  0.1909 -0.4344  0.0409
26482W        W42956  16.758   2.402   1.577 -0.2948  0.1817  0.0418
26483W        W42957  10.763  11.162   3.996 -0.1040  0.0869 -0.0388
26484W        W42958  14.212  10.889   2.667 -0.2232 -0.1422  0.0800
26485W        W42959  13.788   6.648  12.546 -0.0230  0.0934 -0.1451
26486W        W42960   3.075  12.532  10.627 -0.4435  0.4615 -0.1398
26487W        W42961  15.954  16.252  13.646  0.0121  0.0532 -0.3080
26488W        W42962  14.816   8.801  14.184 -0.1935  0.0456  0.1510
26489W        W42963   1.874   4.719   4.218 -0.0921 -0.3010  0.0684
26490W        W42964   4.263  17.877   0.429  0.1077 -0.0863 -0.1378
26491W        W42965   1.531   3.657  14.279  0.2833 -0.1833 -0.1784
26492W        W42966  17.160   0.964  15.768 -0.1021  0.0333 -0.1329
26493W        W42967  12.662   2.760  14.896 -0.2625  0.0246 -0.1742
26494W        W42968  17.660  13.113  16.330  0.3333  0.0856  0.2283
26495W        W42969  10.134   1.929   2.174  0.0312  0.1164  0.0963
26496W        W42970  11.685   5.605   0.851 -0.1004 -0.2930 -0.0546
26497W        W42971  14.782   9.215  12.831  0.1795  0.0385 -0.0082
26498W        W42972   8.361  13.224   3.306 -0.1453  0.0915  0.2294
26499W        W42973  15.127  12.986   1.494 -0.1521  0.0983 -0.2341
26500W        W42974   5.030  17.351  14.207 -0.3849  0.2932 -0.1929
26501W        W42975  11.141   4.393   0.548  0.1362 -0.2402  0.2845
26502W        W42976  10.270   5.660   5.152  0.1133  0.4037 -0.4795
26503W        W42977  10.737  16.171   6.323  0.2435  0.2509 -0.1203
26504W        W42978  16.699  17.126   0.132  0.0887  0.3170  0.3672
26505W        W42979  17.529  11.234  14.587 -0.0268  0.3534  0.0133
26506W        W42980   5.660  13.350   0.614 -0.0132  0.0339 -0.0274
26507W        W42981   1.753  16.792  11.772  0.0737  0.0621 -0.1516
26508W        W42982  10.541   1.832   0.341  0.2802 -0.3998  0.0595
26509W        W42983  10.202   8.729   3.193 -0.2384 -0.0405 -0.1703
26510W        W42984   1.093  13.009   0.446 -0.1003 -0.0184  0.0461
26511W        W42985  14.536   1.381  14.122 -0.0439 -0.0832 -0.0840
26512W        W42986   9.539   0.805   3.112 -0.1936  0.0580  0.1891
26513W        W42987   1.108  13.879  10.820  0.3394 -0.2095 -0.2040
26514W        W42988  12.157   8.543  13.517  0.1095 -0.0359  0.0900
26515W        W42989   8.251  14.185  11.567  0.2032  0.2515 -0.1395
26516W        W42990  13.710   1.492   0.866  0.2412 -0.2236  0.0271
26517W        W42991  17.041  12.706  15.586 -0.0662 -0.2225 -0.1846
26518W        W42992   9.311   3.638  16.140  0.2184  0.3455  0.1475
26519W        W42993   8.957   9.441   0.438 -0.3770  0.1438  0.1804
26520W        W42994  12.578   6.283  16.036  0.0616  0.3534 -0.2198
26521W        W42995  14.684  13.534  16.299  0.2840  0.0847  0.1875
26522W        W42996   8.462   9.740  13.113 -0.2273 -0.1035 -0.0691
26523W        W42997   4.151  10.437  11.379 -0.1257 -0.0056 -0.0496
26524W        W42998   2.571  10.703  15.379 -0.0625  0.1225 -0.0860
26525W        W42999  16.222  12.571   0.917 -0.2694 -0.2506 -0.3255
26526W        W43000  16.189  14.058   2.607 -0.0537  0.0628 -0.3165
26527W        W43001   6.260  17.521   1.929 -0.0018  0.2280 -0.0407
26528W        W43002  12.024   5.956  11.825 -0.2619  0.1525  0.0495
26529W        W43003  14.831   7.820   3.107 -0.3104 -0.1544 -0.0523
26530W        W43004   9.746   5.791   5.147 -0.1757  0.0970 -0.2271
26531W        W43005  15.361  11.808   2.173 -0.0526 -0.0351 -0.0404
26532W        W43006  11.880  16.546   3.276  0.1015 -0.1486  0.0831
26533W        W43007   4.950   7.489   1.809 -0.2372 -0.0927 -0.0200
26534W        W43008  12.505   8.027  16.489 -0.0188  0.2512 -0.1306
26535W        W43009   8.672   5.885   1.150  0.2689 -0.0801 -0.0985
26536W        W43010  10.214   0.715   3.125  0.1474  0.2042  0.1623
26537W        W43011  16.912   3.213   3.264 -0.1117  0.4297 -0.1133
26538W        W43012   6.488   7.040   1.545 -0.1860 -0.0916 -0.0917
26539W        W43013   3.723   7.151  16.441  0.0564  0.0377 -0.0385
26540W        W43014  13.528  12.671  12.281  0.0899 -0.0094  0.1481
26541W        W43015  10.456   8.581  16.088 -0.0586  0.0705 -0.2398
26542W        W43016  11.241   0.070  15.416  0.2073 -0.0808 -0.0952
26543W        W43017  10.448   9.487   2.970 -0.0032 -0.0766 -0.1088
26544W        W43018   7.813   3.180  13.527 -0.2569  0.0439 -0.0328
26545W        W43019  14.262  16.499   4.960  0.1275  0.2210  0.0352
26546W        W43020  17.831   6.119   5.593  0.0205  0.0400 -0.0488
26547W        W43021   5.744  17.596   4.002  0.0034 -0.2132 -0.0627
26548W        W43022   0.188  15.720  13.419  0.1516  0.1061 -0.0088
26549W        W43023   5.999   9.483   4.424 -0.1875 -0.0928 -0.0798
26550W        W43024   6.026   6.617   2.098 -0.0595 -0.2363  0.2918
26551W        W43025   6.018   5.339   3.807  0.0476 -0.3390 -0.0230
26552W        W43026   7.150  14.173  13.543 -0.0835 -0.0323  0.2328
26553W        W43027   9.776   7.917   1.770 -0.1653  0.1361  0.2172
26554W        W43028   9.191  11.769   0.978  0.1185  0.0344  0.2504
26555W        W43029   0.622  15.381  13.300  0.3171  0.2061  0.2875
26556W        W43030   5.362  15.515  13.422 -0.1285 -0.0802 -0.0392
26557W        W43031   3.177  12.845  16.324  0.0156 -0.2345  0.0025
26558W        W43032  11.729  11.824   2.283 -0.5053  0.0484  0.2119
26559W        W43033  14.339   5.854  14.125  0.3297 -0.0865  0.0968
26560W        W43034   6.740  16.762   4.962  0.1094  0.2131  0.0234
26561W        W43035   1.213  11.477  15.090  0.0653 -0.2893  0.0121
26562W        W43036  16.792   0.805   1.691  0.2726 -0.0583  0.0238
26563W        W43037  16.971   7.013  16.381 -0.1355 -0.0740 -0.0626
26564W        W43038   7.358  10.792   0.684  0.0282 -0.1841 -0.0695
26565W        W43039  13.496  16.432   0.284 -0.0877 -0.3425  0.1235
26566W        W43040  10.960  12.158  15.731 -0.2560  0.1883  0.1574
26567W        W43041   5.472  17.524   0.254 -0.1462 -0.2175 -0.1142
26568W        W43042   6.561  11.379  11.805  0.0582 -0.2119  0.4926
26569W        W43043  15.234   1.494   2.878 -0.0702  0.0265  0.2006
26570W        W43044   5.356   8.752   2.837 -0.0184 -0.0881 -0.2093
26571W        W43045   8.225  10.507  12.813 -0.3632  0.0426  0.1174
26572W        W43046   5.079   5.559  14.651  0.0624 -0.2228 -0.2093
26573W        W43047   4.489  11.354   0.149  0.1790 -0.1427  0.2007
26574W        W43048   9.128   7.898  16.602 -0.0053 -0.1267  0.1877
26575W        W43049   1.194  16.094   1.324 -0.0018 -0.1164 -0.0106
26576W        W43050   6.317   1.216  11.344  0.2426 -0.0385  0.0940
26577W        W43051   0.617  11.606   1.698 -0.2039 -0.2051  0.0194
26578W        W43052   3.038   4.273  11.923  0.2666  0.0964 -0.3610
26579W        W43053   3.599   4.165   5.563  0.3185 -0.1312 -0.0210
26580W        W43054  11.513   4.702  14.521  0.1454  0.2387 -0.2908
26581W        W43055  11.733   0.282   1.576 -0.1368 -0.0247  0.2929
26582W        W43056   1.641   9.223   2.403 -0.0568 -0.1837 -0.0291
26583W        W43057   0.519   8.363   3.529  0.1845  0.1277  0.0965
26584W        W43058   9.229   7.714  12.531 -0.2693 -0.1785  0.2759
26585W        W43059   1.389   2.634  14.773 -0.1147 -0.0514 -0.0516
26586W        W43060   4.178  17.543  16.347  0.2889 -0.0707  0.1556
26587W        W43061  14.494   5.549  14.454  0.2841 -0.0475 -0.3609
26588W        W43062   2.052  16.534   3.844  0.1424 -0.0099 -0.0722
26589W        W43063   2.306  15.056  12.341  0.0228  0.2921 -0.1501
26590W        W43064   8.253  14.663   5.176  0.0574  0.2208 -0.2798
26591W        W43065   9.871  14.334   5.109  0.0930  0.1238  0.1210
26592W        W43066   3.128  15.477   3.308  0.2813  0.0440  0.0278
26593W        W43067  10.341   1.582   0.723  0.1811 -0.0825  0.1202
26594W        W43068  17.310   8.220   5.075  0.0559 -0.0600  0.1489
26595W        W43069  14.683  17.808   2.938 -0.0312 -0.0364 -0.0590
26596W        W43070   8.928   3.898   3.174  0.1320 -0.1218 -0.0821
26597W        W43071   8.784   9.327  12.262 -0.0660 -0.1391 -0.1779
26598W        W43072  17.191   9.185  11.777  0.0050 -0.1371 -0.0680
26599W        W43073  15.737   1.991  13.454  0.0777 -0.2979 -0.1276
26600W        W43074   9.470   2.928  11.288 -0.0833 -0.0826  0.2943
26601W        W43075  12.034   7.572   3.096 -0.2653 -0.1305 -0.1245
26602W        W43076   1.697   3.706  16.088  0.2314  0.1081  0.2547
26603W        W43077   0.071  10.419  13.169  0.0457 -0.2174  0.0076
26604W        W43078   8.420  16.558  15.823  0.1452 -0.3173  0.2437
26605W        W43079  10.395   3.460   4.761 -0.1759  0.0926  0.1114
26606W        W43080   7.959  17.060   3.060 -0.0179  0.2423  0.3024
26607W        W43081  17.049   9.222   4.762  0.3145  0.0991  0.2216
26608W        W43082  16.493   6.327  15.263  0.1122  0.1671 -0.0451
26609W        W43083   0.762   3.111  15.487  0.0885 -0.1274 -0.1633
26610W        W43084   3.292   7.266  12.325  0.3642  0.1674 -0.0560
26611W        W43085  11.906   6.180  13.694 -0.0957  0.0734 -0.0272
26612W        W43086   2.097  12.188   4.817 -0.2529 -0.2673  0.2546
26613W        W43087   5.204  11.048  11.624 -0.2346 -0.1133  0.4947
26614W        W43088  17.422  12.758  16.109 -0.0754  0.1532  0.1372
26615W        W43089  15.523   6.756   1.223 -0.2128 -0.2339 -0.0668
26616W        W43090   3.448  15.014   3.365  0.1428 -0.1087  0.1316
26617W        W43091  14.715  11.556   1.022  0.0928 -0.0674 -0.1762
26618W        W43092   2.546  13.470  16.057 -0.3601 -0.0975  0.3202
26619W        W43093   3.635  13.558   4.826 -0.4114  0.2013  0.1673
26620W        W43094   1.280  14.083  14.212  0.0301 -0.4134 -0.1951
26621W        W43095  13.526  15.520   2.887  0.0111  0.2161  0.0796
26622W        W43096   2.420  10.519  14.182  0.2148  0.0674 -0.2177
26623W        W43097   5.297  17.650   5.347 -0.1798  0.0008  0.1487
26624W        W43098   7.130  17.934   4.686  0.2675  0.2715  0.2043
26625W        W43099   6.947   1.713  13.162 -0.4934 -0.0903  0.0162
26626W        W43100   5.847  14.007   3.948  0.4224 -0.0579 -0.3034
26627W        W43101  12.287   5.528   4.566  0.0246 -0.1339  0.2248
26628W        W43102   8.335  13.114  16.231  0.1530  0.0353  0.2429
26629W        W43103   3.063  13.942   4.658 -0.1869  0.0600 -0.1887
26630W        W43104   0.950   6.794   1.621  0.1673  0.0814 -0.1214
26631W        W43105  17.901   6.321  16.248  0.2243  0.1474 -0.2183
26632W        W43106  15.748  11.479   0.208 -0.2283 -0.2377 -0.1917
26633W        W43107   1.349  11.543   0.240  0.0392  0.1879  0.2700
26634W        W43108   1.359  15.053   0.505 -0.0988  0.2529  0.1139
26635W        W43109  14.085  12.873  13.513 -0.1220  0.1872  0.0062
26636W        W43110   5.753  14.547   2.895 -0.1003 -0.1977  0.1570
26637W        W43111   5.233   5.647   3.791 -0.3100  0.3006 -0.0456
26638W        W43112  17.608  16.330  12.846 -0.0727  0.0863 -0.2855
26639W        W43113   1.703   9.740   1.355 -0.0676 -0.0524 -0.1915
26640W        W43114  13.575   9.897  13.948 -0.0237  0.1072 -0.0670
26641W        W43115   9.804  12.014   3.272  0.1297 -0.0748 -0.1352
26642W        W43116  13.566  14.737   3.429 -0.0587 -0.1592  0.1021
26643W        W43117   8.281   6.829   1.748 -0.1345 -0.0219 -0.0547
26644W        W43118   8.601   0.633   2.576 -0.2479 -0.0160  0.1476
26645W        W43119   3.603   4.604   1.947  0.4605 -0.1929 -0.1866
26646W        W43120   7.795   1.243  16.787  0.2288  0.2270  0.0649
26647W        W43121  15.592  10.421  11.526  0.0040 -0.2711 -0.1864
26648W        W43122   9.404  12.014  12.640  0.2355 -0.0779  0.1485
26649W        W43123  15.358   2.232  15.268 -0.0041  0.4687  0.2328
26650W        W43124  11.224   8.067  13.407 -0.0875 -0.1135  0.0968
26651W        W43125   6.475   8.818   1.366  0.2174  0.1526 -0.0952
26652W        W43126  16.343   4.943   1.067 -0.1290 -0.2621 -0.2266
26653W        W43127  16.914   9.711  14.065 -0.4409 -0.0786 -0.2804
26654W        W43128   0.537  15.566   5.640 -0.0886 -0.3583  0.1443
26655W        W43129  13.897   6.035  13.787 -0.3039 -0.1065  0.1329
26656W        W43130  10.776  12.102   2.645  0.0532 -0.1279  0.3215
26657W        W43131   7.311   1.008   2.649  0.0669  0.2061  0.1766
26658W        W43132   3.025   9.358   4.806 -0.2091  0.1417  0.0031
26659W        W43133   2.090   4.435   5.512  0.0318 -0.2348  0.4828
26660W        W43134   2.576  16.987  13.125  0.0273 -0.0985 -0.3977
26661W        W43135   1.399   4.822   2.185 -0.1258  0.1423 -0.0391
26662W        W43136  16.632   8.231  14.290  0.2350  0.0185 -0.1178
26663W        W43137  13.715   7.040  15.297 -0.0218  0.0351  0.1663
26664W        W43138   3.081   9.387  12.605 -0.0423 -0.1849 -0.1878
26665W        W43139  16.735  10.411   2.612  0.0161  0.3265 -0.0163
26666W        W43140   1.747  13.079  11.330 -0.1931 -0.4507 -0.0239
26667W        W43141  11.831   7.701  13.355  0.0350  0.0373  0.1430
26668W        W43142   8.058  13.841  15.759  0.1619  0.0741  0.1129
26669W        W43143   6.687   2.559  11.311 -0.3868  0.2351  0.0182
26670W        W43144   8.161   3.471  12.418 -0.0141 -0.0702  0.2826
26671W        W43145   9.281   6.084  13.760 -0.2948  0.2621  0.0924
26672W        W43146  10.473  10.528   4.470  0.1343  0.2058 -0.4033
26673W        W43147   9.372  15.709   3.182  0.0960 -0.0678 -0.1035
26674W        W43148  16.774  14.860   1.805 -0.2277 -0.0383  0.0950
26675W        W43149   9.889  10.982  16.416 -0.0527  0.0929  0.1266
26676W        W43150   4.780   7.331   1.322  0.1413 -0.0601  0.0493
26677W        W43151  10.355   5.546  16.066 -0.0854  0.1061 -0.0185
26678W        W43152  13.761  13.236   5.352  0.0628 -0.1200  0.3787
26679W        W43153  17.200  17.400  14.173 -0.0177  0.0840 -0.2710
26680W        W43154  12.639   9.996  16.711 -0.0847  0.1339 -0.0308
26681W        W43155  16.967  15.693   0.349 -0.2764  0.0485 -0.0500
26682W        W43156   6.942   5.377  15.155 -0.0419  0.0897  0.3520
26683W        W43157   9.094  11.654  15.278 -0.1043 -0.0204 -0.3080
26684W        W43158   0.708  16.889   4.946  0.2003 -0.0765  0.0782
26685W        W43159   1.435   9.907   5.353 -0.1724 -0.0432 -0.2245
26686W        W43160  14.303   4.345   1.027  0.0561 -0.0026  0.0271
26687W        W43161  11.635   8.500  12.386 -0.0177  0.3844 -0.0744
26688W        W43162  10.985  15.179  15.382 -0.0625  0.1388  0.0868
26689W        W43163  12.200  12.078  13.633  0.1696  0.0319  0.1916
26690W        W43164  11.170  11.086   3.674  0.0330  0.0527 -0.1008
26691W        W43165  17.989   3.751   1.274 -0.0004  0.1210  0.0322
26692W        W43166   6.231   3.923   4.757  0.0559 -0.2716 -0.2961
26693W        W43167   3.438   7.242   5.525  0.3481 -0.0607  0.0654
26694W        W43168  14.117  10.027  12.179  0.0850 -0.0257 -0.1471
26695W        W43169  14.540   3.971  13.975  0.2331  0.2981  0.0409
26696W        W43170   1.654  16.217   5.022  0.3643 -0.2931 -0.2757
26697W        W43171   2.077  12.837   0.082  0.0074  0.1085  0.3543
26698W        W43172   2.632  11.910   0.442 -0.1063 -0.0235 -0.2596
26699W        W43173   5.921  17.696  14.081  0.2036  0.2767  0.2798
26700W        W43174   2.304   4.019  13.453 -0.0621  0.1986 -0.2145
26701W        W43175   0.122   6.261   4.401  0.1132  0.1980  0.2092
26702W        W43176   4.192  16.812   0.044  0.2138  0.1455  0.2142
26703W        W43177   3.791   9.861  12.689  0.1948  0.1742 -0.1050
26704W        W43178  11.070  14.942   4.592 -0.1951 -0.1350 -0.0623
26705W        W43179   0.792   7.609   5.692  0.0784 -0.0094  0.1537
26706W        W43180  11.429  17.751  14.464  0.2859  0.0651  0.1233
26707W        W43181   7.839  11.847  12.140  0.4270 -0.1886 -0.0089
26708W        W43182  15.650   5.473  14.699 -0.2097 -0.0145 -0.0430
26709W        W43183   6.594   1.156  15.087  0.1391  0.0645  0.2558
26710W        W43184   2.363   5.167   1.989  0.3324  0.1424 -0.0253
26711W        W43185   5.242   4.883  11.888  0.0007  0.0731  0.2046
26712W        W43186  16.030  15.054  16.468 -0.3425  0.1896  0.0398
26713W        W43187   5.354   8.054   3.319 -0.0621 -0.2239  0.0080
26714W        W43188  10.009   8.384   2.320  0.2260  0.0105 -0.0511
26715W        W43189  11.948   5.846   4.314 -0.2665  0.2953  0.1330
26716W        W43190  14.151   8.717  11.671 -0.0294  0.2170 -0.2600
26717W        W43191  13.540   0.045   2.480 -0.3931 -0.2591 -0.3625
26718W        W43192  10.832  15.068   2.418  0.0373 -0.2307 -0.1105
26719W        W43193  14.695  16.074   1.193 -0.1170 -0.2428  0.2681
26720W        W43194  10.604  10.782   0.922 -0.0179 -0.1765  0.1440
26721W        W43195   9.059   4.707   0.633 -0.1740  0.4107  0.0071
26722W        W43196   8.552   6.696  14.401  0.1813 -0.2804  0.0450
26723W        W43197  17.413  12.975  14.337 -0.0727 -0.2013 -0.3901
26724W        W43198  14.665   8.181   1.286 -0.0810 -0.0620 -0.0027
26725W        W43199   9.334   2.060   4.541 -0.0333 -0.1243 -0.0241
26726W        W43200   8.716   9.396   1.945 -0.1850 -0.0870  0.0398
26727W        W43201  13.846   4.939  15.990  0.0598  0.2150 -0.0581
26728W        W43202  16.801  12.036   3.833  0.0396  0.1160 -0.0708
26729W        W43203   6.139   7.891   0.319  0.1647  0.1144 -0.1116
26730W        W43204   4.745   4.093   2.447 -0.1176  0.1041 -0.2764
26731W        W43205   1.261   2.421  10.697 -0.0810  0.1205 -0.1658
26732W        W43206   8.365   4.713   1.008  0.0036  0.0013  0.0567
26733W        W43207   0.096  15.079   2.598  0.2265  0.0034  0.0285
26734W        W43208   6.649  11.156   1.108  0.1309 -0.0420 -0.1054
26735W        W43209   0.855  13.158   0.847 -0.3288  0.2846 -0.1641
26736W        W43210   8.474   8.274   4.835  0.0405  0.0234  0.1098
26737W        W43211   8.302  17.627  16.367 -0.1760 -0.0964  0.0510
26738W        W43212   7.828  10.252  12.959 -0.1108 -0.2228 -0.2620
26739W        W43213  14.585  15.878  12.774 -0.3519 -0.0572  0.2356
26740W        W43214  15.470   7.205  11.513 -0.1054  0.1175  0.2727
26741W        W43215   4.584  11.284  15.159  0.0088 -0.0840 -0.3404
26742W        W43216   9.151   1.192   4.153 -0.1103  0.3804  0.1080
26743W        W43217  15.107  17.759  11.015  0.0926  0.0021  0.0226
26744W        W43218  13.407  17.223   0.887 -0.0690 -0.3755  0.4212
26745W        W43219   5.708   8.853  14.277  0.2799  0.4154 -0.1779
26746W        W43220   7.839   0.076   0.995 -0.0797 -0.0096  0.1124
26747W        W43221  11.158   8.562   5.448 -0.0357 -0.5236  0.0142
26748W        W43222  11.023  11.926  16.179  0.1111  0.3831 -0.0665
26749W        W43223  12.457  10.003   1.289  0.0936  0.0790  0.0179
26750W        W43224  12.173  14.650   2.975 -0.1321  0.0092 -0.0271
26751W        W43225   6.146   5.038   1.025 -0.1114  0.0864  0.0266
26752W        W43226   2.413   9.097  10.694 -0.1510  0.1622 -0.1770
26753W        W43227  11.280   6.551  14.615  0.0589 -0.0570  0.0828
26754W        W43228   3.738   8.287   2.467 -0.0385 -0.3987  0.0552
26755W        W43229   1.725   5.889  14.028 -0.1856  0.0034 -0.0458
26756W        W43230   2.528  14.252  10.611  0.1146  0.0155 -0.1622
26757W        W43231  17.717   8.295  14.054  0.4312 -0.0950  0.0475
26758W        W43232   4.024  14.535   0.363 -0.0743 -0.0068  0.0179
26759W        W43233   0.117  16.585  13.015  0.0172 -0.2719  0.1923
26760W        W43234  15.927   7.213  16.633 -0.2537 -0.3356 -0.0006
26761W        W43235  16.353  12.525  12.505 -0.3060 -0.1406  0.0357
26762W        W43236   9.347   3.127  16.071 -0.0478  0.1515  0.2985
26763W        W43237  10.685  13.556   3.569 -0.2063 -0.1141 -0.0240
26764W        W43238   0.845   7.135   5.542 -0.1098  0.0013  0.1034
26765W        W43239  17.839  10.280  14.126  0.0906  0.0655  0.0480
26766W        W43240   0.433   0.807   0.781 -0.1039  0.0268  0.0704
26767W        W43241   3.359   2.407   0.618  0.5619 -0.2243  0.2603
26768W        W43242   5.303   2.855   1.087 -0.0677 -0.0635 -0.0703
26769W        W43243   3.873   5.577  16.157 -0.3952  0.1560  0.1133
26770W        W43244  11.055   8.327   3.346  0.1271  0.3360  0.2547
26771W        W43245  17.173   1.932   2.546  0.0384  0.2989  0.2793
26772W        W43246  16.170   2.016   3.673  0.3766 -0.0039  0.0395
26773W        W43247   8.405  11.007   5.785 -0.0425 -0.1115  0.1781
26774W        W43248  13.218   0.912   2.762  0.0167  0.1234  0.1463
26775W        W43249   8.646  11.245  13.259  0.0871 -0.1061 -0.0850
26776W        W43250   8.102   3.978  13.477 -0.2721  0.3256 -0.0675
26777W        W43251  10.999  13.459  13.868 -0.0104  0.2533  0.1085
26778W        W43252   7.131  10.262  14.944 -0.1333 -0.5817  0.1430
26779W        W43253   1.082   7.965  13.429  0.0483  0.0014  0.0335
26780W        W43254   4.959   5.699  14.152  0.2423  0.3478  0.2524
26781W        W43255  13.272  15.135   3.702 -0.0826  0.0135  0.0310
26782W        W43256  13.023   2.597  16.693 -0.3699  0.0052  0.0027
26783W        W43257  10.712   1.923  16.462 -0.4092 -0.0160  0.1386
26784W        W43258   5.624   3.052  14.147  0.0804  0.0128  0.1763
26785W        W43259  10.727  13.147  15.113 -0.0043  0.1359 -0.3375
26786W        W43260   7.299   2.440  11.395 -0.1825 -0.0672  0.0575
26787W        W43261  11.593   5.049   0.261  0.1730  0.0379 -0.1097
26788W        W43262   3.017  17.373  12.473  0.0855 -0.2761  0.3926
26789W        W43263   6.396   4.074   0.169  0.2866  0.2630 -0.0562
26790W        W43264   9.902   5.083   5.779  0.1611  0.1983 -0.1796
26791W        W43265   9.615  12.679   5.962 -0.3982 -0.1432 -0.1487
26792W        W43266  16.358  16.606   4.963  0.1814 -0.1643  0.2596
26793W        W43267  15.789   8.349  13.326  0.4484 -0.2690 -0.1098
26794W        W43268   7.390   6.665   5.229 -0.0719  0.0787 -0.1784
26795W        W43269  14.033   8.698   2.682  0.2023  0.0992  0.0161
26796W        W43270  14.657  11.719   0.598 -0.3184 -0.2604  0.1495
26797W        W43271  14.317  11.517  16.493  0.2080 -0.1004  0.0283
26798W        W43272  14.661  10.665   2.692  0.4351 -0.1448 -0.1304
26799W        W43273   2.574   8.525  14.011  0.1681  0.0173  0.4001
26800W        W43274  14.780   3.988  12.049 -0.1566  0.2858 -0.3367
26801W        W43275  13.529  14.023   2.367  0.0198 -0.2201  0.3580
26802W        W43276   7.244   8.448   5.859 -0.0267  0.0988  0.1279
26803W        W43277   9.810  15.450   0.884 -0.1780 -0.0808  0.2062
26804W        W43278  12.255   4.445  16.346 -0.2833 -0.1833  0.0457
26805W        W43279   3.672   4.990   4.749  0.2400  0.0773 -0.0640
26806W        W43280  17.679  13.449   2.364 -0.0184 -0.2696 -0.0727
26807W        W43281   6.932  11.499  11.429 -0.0952  0.1021  0.3003
26808W        W43282   3.072   9.455   1.925  0.3555  0.1629  0.0684
26809W        W43283  17.323  11.509   0.690 -0.2271  0.0486  0.0950
26810W        W43284  14.807  11.458  13.537  0.1726  0.0869  0.0364
26811W        W43285   4.884   5.970   4.878 -0.0218  0.0095 -0.1975
26812W        W43286   5.143  17.116  12.178  0.2730  0.0299  0.1879
26813W        W43287   3.245   3.526   0.090 -0.2444 -0.0168 -0.0325
26814W        W43288  12.436   6.683   2.739 -0.4227 -0.3494 -0.0995
26815W        W43289   2.110   7.743  14.066 -0.3055 -0.1034 -0.0897
26816W        W43290   0.401  10.108   1.559 -0.0524  0.1284  0.2093
26817W        W43291  10.627   8.840   1.026 -0.1646  0.0696  0.0720
26818W        W43292   7.381   7.297   4.769  0.4050  0.0493  0.2558
26819W        W43293  11.767   2.283   3.966  0.0803  0.2052 -0.1240
26820W        W43294   5.686  13.324  13.720  0.3380 -0.1928  0.3373
26821W        W43295  13.211   0.671   5.503  0.0954 -0.2660 -0.0812
26822W        W43296  15.992  10.948  11.416  0.0186  0.0354 -0.0054
26823W        W43297   2.322   1.702   1.512 -0.0862  0.0202 -0.0721
26824W        W43298   9.448  10.300   3.871  0.1220 -0.0906 -0.1739
26825W        W43299   5.741   5.861   3.037  0.3722  0.0237  0.3988
26826W        W43300   2.648  14.862   3.243  0.1271 -0.0498 -0.2207
26827W        W43301   9.168   8.825  15.787 -0.2801 -0.0891 -0.0229
26828W        W43302   8.410   9.513   5.753 -0.1514  0.1287  0.1826
26829W        W43303  16.344   4.680   1.886  0.1419 -0.0548 -0.0571
26830W        W43304  16.786   1.443  15.386 -0.0215  0.2405  0.3272
26831W        W43305  17.230  12.338   0.967  0.0742 -0.1499 -0.0071
26832W        W43306  11.768   4.042  15.750  0.1581  0.0724 -0.2252
26833W        W43307  13.482   0.574   5.002  0.1688 -0.0226 -0.0061
26834W        W43308  14.830  14.162   3.808 -0.0108  0.2279 -0.1897
26835W        W43309   3.664  13.102  12.317 -0.0245  0.2922  0.2807
26836W        W43310   0.243   0.891   1.804  0.0359  0.0152  0.1468
26837W        W43311   3.517   7.579   1.430 -0.1238 -0.1254  0.0183
26838W        W43312   9.386   1.569   1.952  0.2430 -0.1099  0.3722
26839W        W43313  17.145  12.960   5.294 -0.1717  0.1445 -0.0277
26840W        W43314  13.744  17.666  16.571 -0.3055  0.1639  0.0177
26841W        W43315  13.912   7.850   2.964 -0.0657 -0.1606  0.0552
26842W        W43316   0.831   0.241  13.462  0.2199 -0.1075 -0.2548
26843W        W43317   0.629   5.052  14.225 -0.0945 -0.0837  0.0140
26844W        W43318   7.224  11.945   2.738  0.0273 -0.0334  0.2286
26845W        W43319   7.958  16.316   1.902 -0.0149 -0.2757 -0.2158
26846W        W43320  13.055  13.512   1.690 -0.1144  0.1106 -0.1176
26847W        W43321  16.000   6.930   1.114  0.0720 -0.0861 -0.0666
26848W        W43322   2.413   2.596  12.605 -0.3151 -0.1651 -0.2316
26849W        W43323  16.126   3.605  12.281  0.0608  0.0140 -0.1128
26850W        W43324  15.117  10.262  11.597  0.0964 -0.0760  0.1409
26851W        W43325  12.926  17.387  16.281  0.2021  0.1027  0.2855
26852W        W43326   0.655   3.994  12.639  0.1246  0.0875 -0.0795
26853W        W43327  17.742   6.448   1.193  0.3187 -0.0685 -0.3249
26854W        W43328   6.536   1.165  16.718  0.0759  0.1489  0.1595
26855W        W43329  14.651  10.618   2.123  0.1906  0.2447  0.0230
26856W        W43330   5.417  12.411  16.728 -0.0899  0.4635 -0.0831
26857W        W43331  12.503  14.604   0.643 -0.0266  0.2057  0.3175
26858W        W43332   3.532  10.821   3.085  0.0885 -0.0674 -0.1234
26859W        W43333  13.804   2.063   1.508  0.2356  0.2616 -0.0454
26860W        W43334  13.480   3.475   1.307  0.3110 -0.0251 -0.0666
26861W        W43335   7.582   5.692   0.460  0.2585 -0.0594 -0.4395
26862W        W43336   6.438   4.123  14.473 -0.2883 -0.1053  0.2986
26863W        W43337  14.094  17.886   5.559  0.1950  0.1657  0.1762
26864W        W43338   8.243  10.808   5.323  0.0973 -0.1109  0.2336
26865W        W43339  11.061   5.932  15.508  0.0389 -0.1164  0.0377
26866W        W43340   3.123  12.186   5.685 -0.2341 -0.0596 -0.2239
26867W        W43341  16.881   2.680   4.574 -0.0172 -0.3375  0.2080
26868W        W43342   0.850  14.775   1.920  0.0915 -0.0534  0.4044
26869W        W43343  16.834   6.643  14.406  0.0369  0.0265 -0.1227
26870W        W43344  10.721   9.808   0.800 -0.0602  0.0317  0.1923
26871W        W43345   4.279   4.003   2.396 -0.0388 -0.1822  0.1702
26872W        W43346   4.451  10.577   2.679 -0.0647  0.0486  0.2504
26873W        W43347   5.246  10.847   5.241 -0.1614  0.0258 -0.2673
26874W        W43348   1.170   0.773   0.507 -0.1813  0.1801 -0.0385
26875W        W43349  15.759   7.117   1.549 -0.1690 -0.1909 -0.0397
26876W        W43350  14.030   6.845   0.116  0.0078  0.1759  0.0743
26877W        W43351   5.689   5.126  16.590  0.0970 -0.0401 -0.1640
26878W        W43352  13.716   3.013   2.837  0.1143 -0.0897 -0.0781
26879W        W43353   6.782   2.667   2.788 -0.2585 -0.0323 -0.4591
26880W        W43354  14.235  14.432   0.790  0.0399 -0.0423 -0.1254
26881W        W43355   8.431   9.353  15.835  0.1885 -0.2101 -0.0209
26882W        W43356  11.231   7.905   1.471 -0.1556  0.0228  0.0993
26883W        W43357  11.366  16.696  14.131 -0.1424 -0.2393  0.3314
26884W        W43358   3.969  13.933   4.116  0.1940 -0.1126 -0.1722
26885W        W43359  11.703  16.792  15.508 -0.1355 -0.1988 -0.1701
26886W        W43360   9.789   8.913   3.514 -0.0143 -0.1899 -0.1448
26887W        W43361   6.762  12.680   1.027  0.0753 -0.0650 -0.1214
26888W        W43362  13.049  16.939   3.671 -0.1910  0.0977 -0.0595
26889W        W43363  13.642   6.146  14.178 -0.1642  0.2239  0.1263
26890W        W43364   9.694   3.922   0.618 -0.0243 -0.0581 -0.1700
26891W        W43365   1.710  17.376  15.844  0.1305  0.1214  0.0607
26892W        W43366   1.864   3.462   4.638  0.1646  0.2132  0.0111
26893W        W43367  13.622   1.563  13.726 -0.0385 -0.4115  0.0155
26894W        W43368   1.764  16.652   6.173  0.0597  0.0992  0.0880
26895W        W43369   6.676  13.617   3.419  0.0608  0.1393  0.1254
26896W        W43370  15.534   8.924  15.444  0.2787  0.1535 -0.1722
26897W        W43371   9.689   8.443   1.776 -0.1069 -0.0239 -0.1393
26898W        W43372   3.854  13.722   0.751 -0.0421 -0.1294 -0.0667
26899W        W43373  16.606   2.969  16.152 -0.1497  0.0077 -0.1954
26900W        W43374   5.012  16.922   0.766 -0.1355 -0.0610  0.1300
26901W        W43375  16.686  16.021  12.382 -0.0847  0.4902 -0.0525
26902W        W43376   7.161  15.037  13.002  0.0414  0.0284 -0.1296
26903W        W43377   1.635   5.764   0.495 -0.1123  0.2276  0.0638
26904W        W43378   9.068   8.718   4.253 -0.2465 -0.1191 -0.1085
26905W        W43379  16.006   5.900  11.945  0.3363  0.1638  0.1075
26906W        W43380   2.331   2.963   5.745 -0.0813 -0.1134  0.0901
26907W        W43381   2.740   8.125   5.017  0.3386  0.0104  0.1164
26908W        W43382  16.909   5.162   6.241 -0.1057  0.3053 -0.0086
26909W        W43383   2.383  14.604  14.032  0.0273  0.1323 -0.0490
26910W        W43384  11.296   5.011  15.012 -0.1200  0.0250  0.0048
26911W        W43385   5.968   8.942  16.477 -0.1167  0.2547  0.3520
26912W        W43386   1.212   9.482  13.395 -0.0684  0.0703  0.0239
26913W        W43387  15.259  16.640  12.621 -0.2806 -0.0555 -0.0908
26914W        W43388   6.697  15.121   1.741  0.0783  0.1237 -0.1561
26915W        W43389  13.390   9.016  12.314 -0.1880 -0.0082 -0.2186
26916W        W43390   2.933   0.769  16.346 -0.4203  0.1634 -0.1002
26917W        W43391  13.660  11.791   0.374 -0.0081 -0.0034  0.1823
26918W        W43392  16.768   7.971  13.373 -0.0602 -0.5707  0.1218
26919W        W43393   7.417  16.310  13.819  0.0855  0.2190  0.1121
26920W        W43394   8.490   2.171  11.824  0.0460  0.0139 -0.2462
26921W        W43395  10.781   0.828   5.690  0.2081  0.0262 -0.0173
26922W        W43396   2.322  16.591  15.161 -0.1313  0.0758 -0.0335
26923W        W43397   1.541   1.140  10.680 -0.2178  0.0007  0.2381
26924W        W43398   7.048   2.430   5.763  0.1831 -0.1159 -0.1352
26925W        W43399  12.173   2.763  15.352 -0.1175  0.2549  0.1425
26926W        W43400  10.905   6.956   5.333 -0.1433 -0.1249  0.3803
26927W        W43401  16.399   4.169   1.915  0.2279 -0.0193 -0.0873
26928W        W43402   7.828   5.926  12.600  0.0380  0.2259 -0.0753
26929W        W43403   5.356   8.307  13.684 -0.0482 -0.0443  0.0761
26930W        W43404  17.050   2.634  14.715 -0.1315 -0.1422  0.0132
26931W        W43405   8.066   6.364  11.058 -0.1045  0.1967 -0.0301
26932W        W43406  13.385  14.491  13.356  0.3791 -0.0143 -0.1993
26933W        W43407  13.164  10.878  11.423 -0.0774 -0.0716  0.3408
26934W        W43408  11.398  14.510   4.799  0.0072 -0.3439 -0.2218
26935W        W43409   4.453   7.383   2.274  0.0697 -0.0207  0.2468
26936W        W43410   6.532   6.555   6.103 -0.2870 -0.2792 -0.0797
26937W        W43411   8.606   8.810  15.641  0.1047  0.2467  0.0546
26938W        W43412  15.126   1.248   1.031  0.0324  0.1216 -0.0548
26939W        W43413   3.506  13.204  16.426 -0.1324 -0.1716 -0.5429
26940W        W43414   8.638   8.287   2.858 -0.1215 -0.6388  0.1384
26941W        W43415   8.316   0.463   4.914  0.2667 -0.1912 -0.1410
26942W        W43416   7.003  15.076   5.515 -0.1191  0.1926  0.0358
26943W        W43417  12.735  12.220   4.029  0.0090  0.0191 -0.0495
26944W        W43418  17.510  16.165  12.309 -0.0156 -0.1560  0.2572
26945W        W43419   2.375  10.342   2.775  0.0059  0.3231 -0.0338
26946W        W43420   5.547  15.288  11.998 -0.2792  0.1772  0.0400
26947W        W43421   0.310  16.218  12.751  0.1187 -0.2265 -0.2654
26948W        W43422   6.578  16.354   4.240  0.0752 -0.1324  0.0939
26949W        W43423   8.688   5.494   4.125  0.1515 -0.2418 -0.0065
26950W        W43424   4.583  14.787  15.040  0.2959  0.0001  0.3100
26951W        W43425   4.300  14.323  15.322 -0.1473 -0.1774 -0.0583
26952W        W43426   1.158   8.849  11.823  0.0906 -0.0474  0.0923
26953W        W43427   1.588  13.329  15.212  0.1423  0.1938 -0.4000
26954W        W43428   8.541  10.638   4.019 -0.0533 -0.3013  0.0196
26955W        W43429  11.724  12.934   1.396  0.0065 -0.1242 -0.1741
26956W        W43430   4.568   1.779  12.519 -0.2342 -0.0722 -0.1063
26957W        W43431   7.612   6.321  16.020  0.1567  0.1212  0.3014
26958W        W43432  10.326   7.587   2.820 -0.2599  0.1931 -0.0367
26959W        W43433   2.433   9.438   2.872  0.1194  0.0758  0.1981
26960W        W43434   3.153  17.053   3.759  0.0815 -0.1941 -0.3604
26961W        W43435  15.241  14.486   1.435 -0.0483  0.0406  0.1557
26962W        W43436   4.378   6.624   5.619 -0.1283  0.0374 -0.2555
26963W        W43437   8.376  15.142   5.042 -0.0503  0.1923 -0.0495
26964W        W43438  11.257   0.432   1.544  0.1236 -0.1793  0.1864
26965W        W43439  14.642   9.162  16.397  0.1526 -0.1131 -0.1633
26966W        W43440  12.205   2.476  14.910  0.4082 -0.2035  0.2460
26967W        W43441  12.151   1.335  12.168  0.4731 -0.0782  0.2537
26968W        W43442   9.756   9.223  11.928 -0.0135  0.2054  0.0188
26969W        W43443  16.535  17.899   3.217 -0.1128 -0.1303 -0.1627
26970W        W43444  12.601  17.809   5.726  0.1439  0.3629  0.0979
26971W        W43445  14.061   8.626  14.693 -0.2666  0.0351  0.0915
26972W        W43446   5.514  15.656  15.031  0.1075 -0.1959  0.0286
26973W        W43447   2.879   6.489  14.010 -0.2742 -0.1768 -0.1605
26974W        W43448  16.855   7.053  11.737  0.3894 -0.1914  0.1207
26975W        W43449   2.130   9.242  16.237 -0.0052  0.2016  0.0557
26976W        W43450   5.241   2.725  15.327 -0.1495  0.0877 -0.2088
26977W        W43451  13.979   3.468   4.226 -0.1670 -0.1796 -0.0220
26978W        W43452   3.681   1.863   5.271 -0.0858  0.0306 -0.0917
26979W        W43453   6.577   1.451   0.519  0.2131  0.0113 -0.0407
26980W        W43454   7.579  15.881  13.576  0.0759 -0.1489  0.1483
26981W        W43455  17.049  13.832  11.911  0.1505 -0.0627  0.0152
26982W        W43456   0.604  11.885   1.162  0.0369  0.3097  0.2625
26983W        W43457  12.548  12.084   0.469 -0.1714 -0.1533  0.0465
26984W        W43458   4.922   2.362  15.257  0.1405 -0.3904  0.0129
26985W        W43459  10.763   9.513   1.183  0.0135  0.0040 -0.1929
26986W        W43460  12.581   0.062   0.690 -0.2225 -0.0964  0.0085
26987W        W43461  12.164  12.401  13.231 -0.0432  0.0909  0.1746
26988W        W43462  16.905   0.237   3.390 -0.0691 -0.0085  0.1197
26989W        W43463  12.325   3.485   3.530 -0.4000  0.0001  0.1651
26990W        W43464   4.086  14.915  16.678  0.2670  0.1041 -0.0369
26991W        W43465  11.775   1.013  11.877  0.1717 -0.0209  0.1540
26992W        W43466   8.633  15.548  11.671  0.0448  0.1301  0.1369
26993W        W43467   7.906   7.668   3.758  0.0882  0.1608 -0.1390
26994W        W43468  11.309   1.916   4.922  0.0292 -0.1866  0.0867
26995W        W43469   8.076   8.130  11.986  0.0715  0.1234  0.1986
26996W        W43470   2.883   9.814  13.884 -0.1669  0.2014  0.4148
26997W        W43471   9.008  11.723   4.077  0.2586  0.0664  0.2687
26998W        W43472  11.609  15.738  12.470 -0.0059  0.2626  0.1466
26999W        W43473  14.265   7.701  13.362  0.1704  0.1941  0.3040
27000W        W43474  16.069   3.105  16.153  0.1651  0.2431  0.3168
27001W        W43475   9.487   3.480  13.562 -0.0844  0.1154  0.1470
27002W        W43476   6.660  15.420  15.088 -0.1064 -0.0532 -0.1274
27003W        W43477   5.489  11.921   3.266 -0.2668  0.2448 -0.0020
27004W        W43478  16.395   0.127   1.130  0.3947 -0.0886 -0.3873
27005W        W43479  14.157  12.491  11.600  0.0841 -0.1192 -0.2762
27006W        W43480  12.471   1.083  11.756 -0.0994 -0.1056 -0.0450
27007W        W43481   4.301   6.886  12.169  0.0810 -0.1748 -0.1648
27008W        W43482   8.242   0.130  16.484 -0.0929  0.2169  0.0527
27009W        W43483   9.196  10.495  12.303  0.0383 -0.3498  0.4258
27010W        W43484  12.728  13.067   2.738 -0.0546  0.0313 -0.0313
27011W        W43485   0.954   6.149   4.641  0.2029 -0.0600  0.0874
27012W        W43486   8.086   7.701  12.797 -0.0928 -0.1609 -0.4543
27013W        W43487   8.260   7.618  15.150  0.1982  0.0742  0.1941
27014W        W43488  15.521   3.046   1.024  0.0607  0.1537 -0.0963
27015W        W43489   8.690  12.820  11.682 -0.4723 -0.0912 -0.1341
27016W        W43490  15.129  14.815   0.607  0.0419  0.1857  0.2675
27017W        W43491  12.861  10.506  16.570  0.1722  0.0650  0.0982
27018W        W43492   3.581  15.414  14.428  0.0871 -0.1443  0.0597
27019W        W43493  16.123   1.754  16.739  0.2484 -0.1030  0.2013
27020W        W43494  17.458   0.818  14.921  0.1420  0.1353  0.2485
27021W        W43495   4.415   3.264   4.037  0.1396 -0.0059 -0.1368
27022W        W43496  16.086  13.283  14.922  0.0084  0.1401 -0.3060
27023W        W43497   7.533  13.597  12.216  0.0325  0.0335 -0.3216
27024W        W43498   5.604   3.296   0.926  0.1325  0.1065 -0.0449
27025W        W43499   1.038   2.284   0.269  0.1612 -0.0196  0.0647
27026W        W43500  17.012  14.026  13.610 -0.0089 -0.0779  0.0270
27027W        W43501   4.391   3.497   0.183  0.1864  0.1852 -0.1876
27028W        W43502   7.248   7.544   5.276  0.2550 -0.1550 -0.1304
27029W        W43503  14.303  10.806  16.655 -0.1550  0.1754  0.2737
27030W        W43504   4.379  15.958  16.413  0.0195 -0.2046  0.0828
27031W        W43505   6.310   6.101  12.599  0.1327  0.1117  0.1085
27032W        W43506  10.539   8.791   4.182  0.0334 -0.0680 -0.1281
27033W        W43507   4.155  15.962   4.423 -0.0071  0.0792  0.2190
27034W        W43508  10.555  14.897  15.042 -0.1937 -0.0926 -0.0328
27035W        W43509   1.472  15.620  13.861 -0.2919  0.1713  0.2492
27036W        W43510  13.034   5.125  12.241 -0.2097 -0.1008  0.1744
27037W        W43511   9.543   9.629  15.696 -0.0770 -0.0079  0.0877
27038W        W43512   1.357  17.584  13.203 -0.1336 -0.1486 -0.1401
27039W        W43513   1.494   2.831   5.908  0.1027  0.0363  0.0911
27040W        W43514   5.010   0.343   0.584  0.1799  0.1373  0.2487
27041W        W43515  11.993   4.062  16.615 -0.1856  0.0795 -0.0698
27042W        W43516   2.086  13.437  11.474  0.1258  0.2262 -0.4678
27043W        W43517   9.796   6.611   5.783  0.0108 -0.2652 -0.2260
27044W        W43518   1.677  10.669   4.722 -0.0326 -0.0681  0.0705
27045W        W43519   4.498   2.791   0.688 -0.1896  0.1660 -0.0850
27046W        W43520   9.598   8.927  14.002 -0.1401 -0.1455 -0.1001
27047W        W43521   2.787  17.725  16.345  0.0787 -0.1319 -0.4286
27048W        W43522  17.810   6.705   6.087  0.2944  0.0154 -0.0527
27049W        W43523  15.947   1.871   4.441 -0.1845  0.2080  0.1788
27050W        W43524   9.733   8.425   6.362 -0.3369  0.2525 -0.3710
27051W        W43525   7.317  11.915  11.977 -0.0665 -0.1197 -0.1221
27052W        W43526  16.868   6.732   2.186  0.0590  0.2515 -0.2719
27053W        W43527   0.710   2.393  11.883 -0.2013  0.2709  0.1725
27054W        W43528   0.738  17.299   4.644 -0.0327 -0.1235  0.0446
27055W        W43529   7.937  12.754  12.106 -0.1193 -0.3939 -0.2150
27056W        W43530  13.734   3.488  12.087  0.0606  0.2659  0.0794
27057W        W43531  11.567   9.085   0.135 -0.0305  0.0664 -0.3859
27058W        W43532   9.039   5.550   5.782 -0.2297  0.2217 -0.0604
27059W        W43533   6.243   3.342  11.551 -0.1316  0.1534  0.3035
27060W        W43534  11.267  15.442  15.070 -0.0477 -0.0603  0.1610
27061W        W43535  16.326   7.425   3.810  0.1393  0.1446  0.2446
27062W        W43536  11.958  13.350   0.662  0.0392 -0.1585  0.0041
27063W        W43537   4.829   8.853  13.084 -0.0973  0.0544  0.1218
27064W        W43538  11.763   6.883   0.071  0.1939 -0.1403 -0.0797
27065W        W43539   3.230   7.211  15.505  0.0082 -0.1815  0.0606
27066W        W43540   5.230   6.527  13.741  0.5938  0.0410  0.0123
27067W        W43541  17.381  11.441   1.966 -0.0652  0.0344 -0.0626
27068W        W43542  16.691   8.433   1.995  0.1402  0.0988  0.2787
27069W        W43543   5.102   0.747  15.091  0.1217 -0.0370  0.0147
27070W        W43544   2.488   8.991   3.080 -0.0613  0.3876  0.0911
27071W        W43545   4.320   1.814   2.625 -0.1798  0.0369  0.0326
27072W        W43546   0.553   0.284  14.864  0.0532 -0.1217  0.0466
27073W        W43547   6.967   4.844   5.857 -0.2655 -0.1255  0.0869
27074W        W43548   4.234   9.712  16.295 -0.0467 -0.1526 -0.0646
27075W        W43549   0.392  12.594   2.605  0.4492 -0.0863 -0.1327
27076W        W43550  12.306  11.035   1.948 -0.1089 -0.0812 -0.0406
27077W        W43551   4.113  17.821  14.487 -0.1990 -0.1773 -0.0852
27078W        W43552   9.937  12.022   1.803  0.0818 -0.3773  0.0423
27079W        W43553  13.053  11.089   0.579 -0.0652 -0.5820  0.2433
27080W        W43554  10.545   1.282   1.120 -0.0146 -0.1013  0.0604
27081W        W43555  15.933   4.897  14.545  0.0447 -0.0898 -0.0307
27082W        W43556   9.101  14.779   4.797 -0.2749  0.0424  0.1034
27083W        W43557  14.628  13.472   4.938  0.1727  0.1778 -0.0918
27084W        W43558   1.650  11.989   1.101  0.1364 -0.0751  0.1410
27085W        W43559   4.894  12.824   4.777 -0.1989 -0.3256  0.1203
27086W        W43560   0.751   2.999   2.744 -0.2059 -0.3741 -0.0936
27087W        W43561   7.224  10.147  12.011  0.1437 -0.0346  0.0896
27088W        W43562   0.602   8.362   0.154  0.3491  0.4147  0.0591
27089W        W43563  11.945  11.533  11.294  0.0478 -0.0313 -0.2546
27090W        W43564   8.024  12.475  13.755 -0.1633 -0.1899 -0.4220
27091W        W43565  17.750   9.539   1.092  0.2562  0.1147  0.0591
27092W        W43566  15.838   0.390   2.695  0.0035  0.5218  0.2764
27093W        W43567   5.329   3.399  14.414 -0.1569  0.2655  0.1228
27094W        W43568   9.831   5.976   5.875 -0.0338 -0.1786 -0.0499
27095W        W43569  17.384  17.407   0.026 -0.0561  0.2012  0.1397
27096W        W43570  11.541  15.995  15.631 -0.2102  0.0863 -0.0467
27097W        W43571   4.116   4.816   3.079 -0.0646 -0.0720  0.2716
27098W        W43572  14.614  11.407  11.956 -0.1521 -0.1702  0.2312
27099W        W43573   3.685   9.364  15.842  0.2479 -0.2872 -0.1615
27100W        W43574  13.729   9.784  11.854  0.0459  0.0749  0.0618
27101W        W43575  10.781   6.484  15.926  0.2511 -0.0605  0.2228
27102W        W43576  11.153   2.803  15.403 -0.0539  0.0644 -0.1388
27103W        W43577   9.874   2.427   0.870  0.0394 -0.0511 -0.2065
27104W        W43578   7.014   3.899   4.399 -0.1530  0.3679  0.2340
27105W        W43579  15.405   1.238   4.683 -0.1688  0.1636  0.4170
27106W        W43580  13.049   1.568   0.840  0.1717 -0.2598  0.1862
27107W        W43581  14.614  17.775   1.121 -0.2344  0.1914 -0.1280
27108W        W43582   2.432   8.094  12.027  0.0252  0.3171 -0.0025
27109W        W43583   1.288  16.256  15.281  0.0966  0.0443  0.1696
27110W        W43584  16.503  17.539  13.010 -0.0104 -0.1801 -0.0930
27111W        W43585  12.726   7.551  14.254 -0.0490 -0.0319  0.0213
27112W        W43586  17.038  10.293   3.458  0.0309  0.1096  0.0957
27113W        W43587   0.086   9.664  16.026  0.1156  0.0329  0.0960
27114W        W43588   0.143   0.808   2.279  0.0807 -0.0170 -0.1746
27115W        W43589   7.145   1.242  15.855  0.1862  0.0044 -0.2769
27116W        W43590  12.927  14.800   0.420 -0.0017  0.4106  0.0057
27117W        W43591  12.949   2.265  11.443 -0.1644 -0.2667  0.1680
27118W        W43592   2.236   4.630   2.239 -0.0774  0.0278 -0.0093
27119W        W43593   7.750  17.421  11.868 -0.1143 -0.2902  0.4173
27120W        W43594   9.581   7.520  16.669  0.1689  0.1922  0.1716
27121W        W43595   0.728  16.936  12.022 -0.3916  0.0342 -0.1158
27122W        W43596   0.679  13.351   4.564 -0.3291  0.1109  0.2535
27123W        W43597  14.328  11.693  13.358  0.0480 -0.1250 -0.1330
27124W        W43598  10.288   5.395  12.892  0.1593 -0.0125 -0.1450
27125W        W43599  17.395   3.028   0.744 -0.1079  0.0504 -0.0929
27126W        W43600   0.451   8.835  14.508 -0.2010  0.0567  0.2417
27127W        W43601  16.561   2.303   4.495 -0.3678 -0.1138 -0.1712
27128W        W43602  12.510  11.925  13.302 -0.0907 -0.4114  0.2145
27129W        W43603   1.324   2.669   5.497  0.0773 -0.0130  0.0047
27130W        W43604  16.623   6.085  16.643  0.2573  0.1103  0.0263
27131W        W43605  16.019   4.032  15.809  0.2005  0.2112  0.0218
27132W        W43606  14.724  13.428  13.571  0.0631  0.2260 -0.2894
27133W        W43607  11.210  14.223   5.159  0.0102 -0.2118 -0.0842
27134W        W43608   2.206   8.699   3.376 -0.2312 -0.1797  0.1024
27135W        W43609   7.567  12.772  15.544 -0.0168  0.3908  0.1248
27136W        W43610   6.611   7.498  12.081 -0.2507  0.0313 -0.3033
27137W        W43611  17.888   6.893   0.943  0.2591  0.2060  0.1399
27138W        W43612  13.753  17.522   1.904  0.2402 -0.2563 -0.0579
27139W        W43613  17.253   5.066  15.680  0.2962 -0.1742 -0.2991
27140W        W43614  12.604  13.948   5.611 -0.1908 -0.0920 -0.0760
27141W        W43615  16.353  16.292  15.084  0.3154  0.6564 -0.1319
27142W        W43616   2.057   4.228   1.746 -0.0393  0.2804  0.1036
27143W        W43617  14.219   6.627  12.276 -0.1727 -0.1450  0.0647
27144W        W43618   4.575   7.795   3.355  0.1534 -0.1242 -0.0971
27145W        W43619   0.113   1.895   1.662 -0.0897 -0.1548  0.2496
27146W        W43620  14.473   9.942  13.416 -0.0710  0.0476  0.1155
27147W        W43621  17.075   6.571   0.447  0.1720 -0.2990 -0.2047
27148W        W43622   7.835  14.581  11.891 -0.1613  0.1875  0.1714
27149W        W43623  16.268  11.661  12.899  0.4284  0.4012 -0.3519
27150W        W43624   2.130  11.257  13.819  0.0106  0.0710  0.3071
27151W        W43625  11.348   7.004  13.126 -0.1134  0.2546  0.3807
27152W        W43626   4.638  15.875  14.114 -0.1234 -0.1278 -0.3748
27153W        W43627  12.899  15.992  14.774  0.2817 -0.1168 -0.0055
27154W        W43628   2.202  11.040   0.914 -0.0812  0.0240  0.0048
27155W        W43629   8.069   1.234   3.766 -0.1046  0.1210 -0.0065
27156W        W43630  14.764  13.955  15.233  0.0300  0.1322 -0.3531
27157W        W43631  10.904   1.032  12.807  0.2818  0.3705 -0.1284
27158W        W43632  14.900   9.843  15.965 -0.0805 -0.0750 -0.1724
27159W        W43633   5.733   1.051  12.300  0.1551  0.0781 -0.0322
27160W        W43634   2.471  13.305   1.247  0.1811  0.0967  0.0662
27161W        W43635  12.982  11.606  14.640  0.1369 -0.0816 -0.2009
27162W        W43636   1.218   8.842   3.179 -0.4709  0.1889  0.3088
27163W        W43637  10.118  14.868  15.702  0.0348 -0.1405  0.1680
27164W        W43638  11.351   8.104   4.986  0.0428  0.1793  0.0364
27165W        W43639   2.533  11.990  15.356  0.1112 -0.0767  0.1753
27166W        W43640   2.370  11.189  13.039  0.0865  0.0340  0.1705
27167W        W43641  12.396   5.784   4.023  0.1361  0.0488  0.1810
27168W        W43642   8.271   7.092  14.501  0.2782  0.1754 -0.0802
27169W        W43643  14.827  10.192  13.712 -0.0840  0.0341 -0.1401
27170W        W43644  13.366   7.661   3.091  0.1290 -0.3275  0.0259
27171W        W43645   9.629  14.578   0.625  0.1217  0.1612  0.0265
27172W        W43646  14.730   9.834   1.566  0.1310  0.0363  0.2278
27173W        W43647  14.523   2.838  13.342  0.1804  0.1676  0.3065
27174W        W43648   1.518   3.255   0.200 -0.2399  0.0499  0.0748
27175W        W43649   3.478   4.110  12.044  0.2234 -0.0937  0.2226
27176W        W43650   6.093  17.049   4.960  0.1143  0.0385  0.1899
27177W        W43651   4.156  12.803   3.912 -0.0054  0.0071  0.1931
27178W        W43652   6.147   3.930  15.130 -0.0013  0.0575 -0.0217
27179W        W43653   5.564   7.383  14.526 -0.1639  0.0647  0.2645
27180W        W43654  12.003   7.644   2.027  0.1252 -0.1287  0.2130
27181W        W43655   3.007  11.774   4.817  0.0084  0.1308  0.1915
27182W        W43656  15.984  17.074   0.696 -0.3135  0.4388 -0.0045
27183W        W43657  11.897  17.225  16.778  0.2247 -0.0900  0.0421
27184W        W43658   8.674   0.027  16.240 -0.1216  0.1566  0.2412
27185W        W43659   7.023   0.347   4.223  0.0810  0.1496  0.1785
27186W        W43660  14.061  10.767  13.501  0.0812 -0.1018 -0.0011
27187W        W43661   0.729   5.770   3.791  0.0272  0.0423  0.1162
27188W        W43662   2.963   4.440  15.746  0.1505  0.3927 -0.0448
27189W        W43663  16.128  17.981   3.556  0.1159  0.1649 -0.0119
27190W        W43664   1.058  15.535  16.010  0.0087  0.1341  0.0934
27191W        W43665  12.535  15.776   1.352  0.0387 -0.1966  0.2816
27192W        W43666  15.698  14.235   5.504 -0.2354  0.0246  0.2064
27193W        W43667  16.862   4.915   3.511 -0.0574 -0.0537 -0.0054
27194W        W43668   9.089  15.382  13.385 -0.0985 -0.0286 -0.1438
27195W        W43669  10.947  16.653  13.219  0.1363  0.2114 -0.1978
27196W        W43670  17.263  13.194   1.895  0.3826  0.1222  0.2109
27197W        W43671   6.278   4.176  12.543  0.0344 -0.1752 -0.0241
27198W        W43672   9.219  16.907   1.751  0.0742 -0.1996 -0.1569
27199W        W43673  12.925   4.229  12.046  0.0920 -0.0468  0.0516
27200W        W43674   3.429  17.030   4.667  0.0577  0.4071  0.0693
27201W        W43675   0.830  10.323   4.300 -0.4079  0.1101  0.1683
27202W        W43676   3.208  15.513   5.071 -0.0882 -0.0138  0.0086
27203W        W43677  11.414   2.039  15.807  0.2487 -0.0920 -0.1283
27204W        W43678  10.028  15.732  16.045  0.1178 -0.2227  0.1418
27205W        W43679   4.136   8.332  12.442 -0.0129 -0.1316  0.0398
27206W        W43680   9.627   9.784  13.710  0.1971 -0.1649  0.1054
27207W        W43681   7.407   2.624  12.260 -0.3285  0.1983 -0.2494
27208W        W43682   2.443   3.570  15.784  0.3725 -0.1855 -0.0272
27209W        W43683   2.556  14.998  16.291  0.1164 -0.0189 -0.0736
27210W        W43684   4.665  10.743   1.461  0.1141  0.0519  0.1320
27211W        W43685  15.007  15.633  11.872 -0.1157 -0.0227  0.0612
27212W        W43686  10.248   2.393  12.545 -0.4509 -0.0475  0.2601
27213W        W43687   9.809   1.637  14.588 -0.0098 -0.0236 -0.0867
27214W        W43688  13.892   4.402   5.224 -0.0015  0.0420  0.1187
27215W        W43689  14.734   4.051   4.406  0.0437 -0.4082  0.0564
27216W        W43690  11.060   0.148  13.712  0.0932 -0.0455  0.3003
27217W        W43691  16.265   5.256  14.731  0.0919 -0.2573  0.0789
27218W        W43692  11.799   5.686   6.554  0.1837 -0.4392  0.1811
27219W        W43693   7.173   9.563  16.095  0.1746  0.1077 -0.0092
27220W        W43694  12.033  14.333   2.216  0.1015 -0.1574 -0.1197
27221W        W43695   6.370   4.314  14.955 -0.0751 -0.3098 -0.3413
27222W        W43696  17.811  16.418  11.906  0.1100  0.1911  0.1486
27223W        W43697   2.867  13.000  16.735  0.0993 -0.0378 -0.1349
27224W        W43698   0.299   1.425  12.775 -0.1258 -0.0369  0.0391
27225W        W43699  16.002   7.800   3.504  0.1803 -0.1034  0.2917
27226W        W43700   6.476   2.572   3.367  0.4500  0.2680 -0.1401
27227W        W43701  14.127   1.782  12.629 -0.1647  0.1215  0.0146
27228W        W43702  16.977  16.044  12.865 -0.0417 -0.0041 -0.0114
27229W        W43703   8.387  13.943   2.164 -0.1038 -0.2114  0.2559
27230W        W43704  13.771  12.301  12.592  0.0141  0.2520 -0.2120
27231W        W43705   7.878   3.448   1.488 -0.2110  0.0397 -0.2202
27232W        W43706  15.442  16.337   5.061  0.0649 -0.1647  0.0776
27233W        W43707   2.453   5.124  11.583 -0.0244  0.1939 -0.0524
27234W        W43708  17.551  14.246  16.329  0.2646  0.0077 -0.0801
27235W        W43709   1.952  10.430   3.751 -0.1945 -0.0510 -0.1172
27236W        W43710   7.860   5.675   2.625  0.0928  0.0232  0.0991
27237W        W43711  11.649   1.967   0.442 -0.1547 -0.1573  0.0587
27238W        W43712   0.827  12.032  13.888 -0.1766  0.1556 -0.1101
27239W        W43713  16.312  13.442   0.759  0.0437 -0.0721  0.4319
27240W        W43714  17.780  13.105  13.130  0.1222  0.2858 -0.2864
27241W        W43715  14.157   2.412   1.463  0.0429 -0.0005  0.1599
27242W        W43716   7.165  11.006  16.669  0.2707 -0.1170 -0.0122
27243W        W43717  11.792  14.033  12.744 -0.1222 -0.0562  0.2869
27244W        W43718  17.262  10.983  11.264  0.1162  0.1780  0.1650
27245W        W43719   3.978   7.760  15.171  0.0505  0.2766  0.2917
27246W        W43720  13.943   0.117  13.372  0.1153 -0.0299 -0.1798
27247W        W43721  14.174   1.650   2.919 -0.2201  0.2264  0.2054
27248W        W43722   0.010   5.986   5.066  0.1523  0.0019 -0.0886
27249W        W43723   1.634   4.426  13.400 -0.1385  0.1378 -0.0995
27250W        W43724   2.438  17.861   2.283 -0.0949 -0.2219  0.2080
27251W        W43725   1.401   3.526  15.747 -0.0286 -0.0613 -0.0770
27252W        W43726  13.401  17.267  15.470 -0.2227 -0.1024 -0.0579
27253W        W43727   3.973   2.040  16.317  0.1388 -0.1869 -0.3454
27254W        W43728   1.266   9.246  11.444 -0.2906  0.3585 -0.0680
27255W        W43729  14.994  16.694  13.484  0.0947 -0.1084 -0.2542
27256W        W43730   3.563   6.295   1.802  0.0895  0.1172 -0.1422
27257W        W43731   5.146   3.780  15.344 -0.0225  0.0010 -0.0194
27258W        W43732  17.843  10.964  12.917 -0.0342 -0.1354  0.0689
27259W        W43733   3.702  16.162  12.621 -0.0981  0.0339  0.0040
27260W        W43734   5.542   7.086  12.523  0.0942 -0.1003  0.2187
27261W        W43735  12.528  12.965  12.660  0.2269  0.0155  0.1144
27262W        W43736  14.459   2.624   3.124 -0.1266  0.1887  0.2315
27263W        W43737   4.370   5.994   2.233  0.3326  0.0996  0.0599
27264W        W43738   2.606   8.259  14.478  0.0533  0.1063  0.0364
27265W        W43739   7.301  10.324  13.741 -0.1572  0.1079 -0.2655
27266W        W43740  17.927  14.350   1.704  0.2400 -0.2327 -0.1522
27267W        W43741  12.123  14.077  11.933 -0.0171 -0.0874 -0.0012
27268W        W43742   8.513   9.217   1.563  0.3841  0.5691  0.0592
27269W        W43743  10.812  12.007   1.546  0.0894 -0.0275 -0.2410
27270W        W43744  14.090  15.053   5.433 -0.1925  0.0144 -0.0265
27271W        W43745  13.490  14.134   0.172 -0.0475  0.0477  0.3686
27272W        W43746   2.701  13.362  13.437  0.3744  0.0289 -0.1458
27273W        W43747   7.472   1.101  12.439 -0.4647  0.0388  0.2168
27274W        W43748   5.618   7.302  15.080  0.2533 -0.0834  0.2171
27275W        W43749  15.973   7.539  15.578  0.2937 -0.1666  0.1664
27276W        W43750  12.023  13.823   3.650  0.0410 -0.1111 -0.1728
27277W        W43751  10.130  17.553   4.067 -0.2079 -0.1746 -0.0854
27278W        W43752  11.674   5.651  12.164 -0.0426  0.1143 -0.2879
27279W        W43753  17.968  12.186   4.558 -0.0031 -0.0107 -0.3091
27280W        W43754  17.173  16.678  16.620  0.2793 -0.0853 -0.0718
27281W        W43755  12.915   7.040  11.413  0.0691 -0.0872  0.1165
27282W        W43756   4.748   3.892  11.228 -0.2018  0.3986 -0.0388
27283W        W43757   4.997  11.139   0.180  0.1508 -0.0858 -0.1601
27284W        W43758   7.968  13.310  12.080 -0.1198  0.1075  0.0250
27285W        W43759  16.392  10.329  12.334  0.1158 -0.0536 -0.0924
27286W        W43760  15.077   1.242   3.263 -0.1693 -0.0553  0.4280
27287W        W43761   7.957   1.671   0.175 -0.2901  0.3351 -0.2224
27288W        W43762   6.862  12.628  14.678 -0.1040 -0.0035 -0.0888
27289W        W43763  12.126  12.843  13.029  0.2238 -0.0478  0.0973
27290W        W43764   3.488  13.782   5.283  0.2126 -0.0053  0.1646
27291W        W43765  13.701   3.394  13.352  0.0334  0.0959  0.0124
27292W        W43766   0.583  13.982  10.691 -0.1769  0.0193  0.4170
27293W        W43767   5.062   6.677  12.759  0.0708  0.3231 -0.2766
27294W        W43768   3.475   5.135  15.282 -0.1985  0.1778 -0.1617
27295W        W43769   0.995  13.166   2.496  0.0347  0.0703 -0.1204
27296W        W43770  15.387  16.083   2.928 -0.0438  0.2007  0.3927
27297W        W43771   9.702   2.659  11.666  0.1184 -0.0831 -0.1645
27298W        W43772  12.302  17.273   5.511 -0.1721 -0.0885  0.2691
27299W        W43773   7.626  10.282  15.140  0.1054 -0.3991 -0.1412
27300W        W43774  14.175   1.925  14.750 -0.1066  0.0170 -0.1788
27301W        W43775   3.673   3.376  16.403 -0.3169 -0.0481 -0.3723
27302W        W43776  13.952  10.828  11.792 -0.0931 -0.0205  0.1997
27303W        W43777  15.890  11.460  13.892  0.2804  0.0772 -0.2469
27304W        W43778   7.890   1.706  11.846  0.1601 -0.1017  0.3050
27305W        W43779  12.176  12.518  14.955 -0.0984 -0.1021 -0.2652
27306W        W43780   8.746  14.661   5.253  0.0330  0.2284 -0.2192
27307W        W43781   2.675  16.455   2.055 -0.0505 -0.0790  0.0437
27308W        W43782   7.968  11.868   3.118 -0.4864 -0.1026  0.0336
27309W        W43783   6.087   0.389   2.302 -0.1189  0.0961  0.0524
27310W        W43784   6.003  16.843  12.473  0.1977 -0.1667  0.0098
27311W        W43785  14.396  14.766  13.368  0.0254 -0.2201 -0.0279
27312W        W43786   2.246  16.767  15.608 -0.0003  0.0561 -0.0424
27313W        W43787  13.287  12.438  16.304 -0.1493  0.0001  0.1278
27314W        W43788   1.856   2.572  16.612  0.1667  0.0907  0.0277
27315W        W43789   4.632   3.697   3.858 -0.1527 -0.0802 -0.0663
27316W        W43790   7.747  15.281   3.421  0.0795 -0.2071  0.1457
27317W        W43791   2.223  13.598   1.531  0.2327 -0.2974  0.0278
27318W        W43792   2.626   3.953  12.660 -0.1743 -0.2499  0.0175
27319W        W43793   4.666   6.417   0.871 -0.1348  0.3406 -0.0593
27320W        W43794  17.183   0.063  15.502  0.1462  0.1520 -0.2771
27321W        W43795   0.991  17.299  13.500  0.1045  0.3238  0.1383
27322W        W43796   9.169  13.001  11.710 -0.1531  0.0220  0.5271
27323W        W43797  14.746   7.879  11.585 -0.0140  0.0942  0.1030
27324W        W43798  11.823  10.005  15.553 -0.1635 -0.0469  0.2930
27325W        W43799   6.489   4.086   4.295  0.3512 -0.1387 -0.0253
27326W        W43800   1.756  16.753   1.758 -0.0221  0.1742 -0.1689
27327W        W43801  16.703  16.797   5.614  0.0785 -0.1904 -0.0052
27328W        W43802  10.235  15.900  16.480  0.0799 -0.1117 -0.2618
27329W        W43803   2.838  14.457  14.929  0.2260  0.0414 -0.2616
27330W        W43804  12.674   3.896  12.949  0.2010 -0.2409  0.0150
27331W        W43805   4.142   3.933   0.033  0.4488 -0.2233 -0.1400
27332W        W43806  12.360   7.756  16.143  0.0563  0.1716  0.0451
27333W        W43807   8.258   1.856   0.542 -0.0145 -0.1065  0.0655
27334W        W43808  15.019  15.710   0.319  0.2182 -0.0187  0.0096
27335W        W43809   0.846   4.860  15.992  0.2450 -0.0583 -0.4161
27336W        W43810   7.267  16.899  15.593 -0.1593 -0.1708 -0.0852
27337W        W43811   9.226   7.201  15.694  0.2545 -0.4243  0.2118
27338W        W43812  11.459  12.660   1.099 -0.0551  0.0734 -0.2547
27339W        W43813  11.949  11.167   5.164 -0.0495 -0.1878 -0.3105
27340W        W43814   1.497  14.020  11.160  0.3141  0.0148 -0.0521
27341W        W43815   4.558   7.917   1.670 -0.0951 -0.1343 -0.1778
27342W        W43816  14.670  10.126  14.274 -0.0453 -0.2397  0.1951
27343W        W43817   8.579   1.615   4.760  0.1048  0.0948  0.5758
27344W        W43818  12.349  16.082   5.304 -0.0903 -0.1102 -0.1462
27345W        W43819   3.318   7.186  16.783  0.1233  0.2008  0.0701
27346W        W43820  15.134  16.280  15.848 -0.0985 -0.2490  0.1413
27347W        W43821   5.260  13.601   0.838 -0.0480 -0.0054 -0.0214
27348W        W43822   7.079  17.618   2.933 -0.2071 -0.3064 -0.1035
27349W        W43823  13.556   4.126   2.168 -0.2436 -0.2198  0.0018
27350W        W43824  14.974   4.435  13.630  0.0256  0.4421  0.2448
27351W        W43825   7.179  13.942   6.313  0.1489 -0.1668 -0.1237
27352W        W43826  15.590   1.373   3.384 -0.0761  0.1166  0.0861
27353W        W43827  13.751  15.796  14.013 -0.0289  0.0712 -0.0382
27354W        W43828   3.860  11.372   3.791 -0.0968 -0.2315 -0.0744
27355W        W43829   7.372   8.878  13.344  0.1509 -0.3255 -0.1223
27356W        W43830   0.404   0.120  13.168  0.1935 -0.2802 -0.1683
27357W        W43831   0.345   5.287   0.370 -0.2927 -0.1050  0.0103
27358W        W43832  12.621  17.666   4.682 -0.1508  0.1427 -0.2832
27359W        W43833  13.996  12.101  14.578  0.2705  0.2798  0.2664
27360W        W43834  10.395  16.429   4.035 -0.0828 -0.0946 -0.0706
27361W        W43835   5.612   9.262  16.244  0.0128 -0.0929  0.0251
27362W        W43836  11.816   6.088   5.634  0.0062  0.0537  0.0337
27363W        W43837   1.346  12.197  11.621  0.0496  0.1208 -0.2248
27364W        W43838   6.466   8.454  14.287  0.0823 -0.0476  0.1196
27365W        W43839   7.230   4.463   3.646 -0.2132 -0.1751  0.0002
27366W        W43840  11.415  10.828  12.887  0.0007 -0.0635  0.0294
27367W        W43841  14.952   0.689   4.860 -0.0572 -0.2987 -0.2909
27368W        W43842   8.929  12.651   3.900  0.2150  0.3103 -0.0973
27369W        W43843   5.133   8.594  12.789  0.1009 -0.0916 -0.1132
27370W        W43844   7.986   2.349   4.038  0.3461  0.0119 -0.0371
27371W        W43845   6.524   3.398  15.123  0.0905  0.2322 -0.0522
27372W        W43846  14.484   2.872  13.846 -0.0293  0.3329  0.0263
27373W        W43847   9.080  11.718  11.943 -0.3269 -0.1612  0.0187
27374W        W43848  17.731  15.132   0.066 -0.1101  0.2453  0.1992
27375W        W43849  14.760   1.619   4.507 -0.0236 -0.1067 -0.0379
27376W        W43850   2.806  13.368  15.298  0.0411  0.1176  0.1865
27377W        W43851  17.311  16.414  11.892  0.2417  0.0104  0.1426
27378W        W43852   0.321   0.378   3.714  0.1581 -0.2139 -0.0325
27379W        W43853   3.242   4.160  12.890 -0.3159  0.1838  0.1069
27380W        W43854   6.524   5.321  16.089  0.2151 -0.2599 -0.0429
27381W        W43855   6.131   6.072   3.308  0.2754 -0.4410  0.0743
27382W        W43856   1.139   4.647   1.405 -0.0865 -0.1902 -0.0753
27383W        W43857   3.450  15.159   1.999 -0.0823 -0.3000  0.2620
27384W        W43858   6.601  14.257   5.695 -0.1268  0.0582 -0.0425
27385W        W43859   6.748  11.938   4.669  0.0128 -0.1853 -0.1084
27386W        W43860   2.702  16.147  14.674  0.0398 -0.0345 -0.1675
27387W        W43861   0.225   1.541   6.158  0.2047  0.0033  0.1584
27388W        W43862   0.007   1.246   3.793 -0.0597  0.1749 -0.0604
27389W        W43863   7.851   9.409  14.689 -0.1794 -0.0754  0.0244
27390W        W43864  10.468   6.960   0.887  0.2447  0.1909  0.0525
27391W        W43865  10.190   0.448   4.018 -0.0431  0.0621 -0.0969
27392W        W43866  10.796  13.445  16.064  0.0275  0.0763 -0.0655
27393W        W43867  11.832  16.972   1.950 -0.1761  0.2855 -0.1116
27394W        W43868   8.025   6.140  15.371 -0.0428  0.2415  0.2792
27395W        W43869   4.130  11.210   4.202 -0.1568 -0.4568 -0.1961
27396W        W43870   3.494  10.059   4.637  0.0738 -0.1376  0.0336
27397W        W43871   5.290  16.947  13.913 -0.1005 -0.1342  0.1213
27398W        W43872   2.537   5.166   3.474  0.1018 -0.0226 -0.0547
27399W        W43873  13.419   0.838   0.312 -0.0838  0.2020 -0.0326
27400W        W43874   8.927   4.613  12.227 -0.2473 -0.1624 -0.2790
27401W        W43875  16.821  13.994   1.859 -0.1918 -0.1125 -0.1755
27402W        W43876   1.249  12.763  16.482  0.0399  0.2638 -0.0826
27403W        W43877  12.388  12.878  15.894  0.6901 -0.1400  0.1039
27404W        W43878  11.250   2.341   4.698 -0.0788  0.1162  0.0163
27405W        W43879   6.918   5.231  14.179 -0.0127 -0.0905 -0.1057
27406W        W43880   8.045   2.557   0.128 -0.0443 -0.3161  0.1986
27407W        W43881  15.434  16.573   2.123 -0.0596  0.1093 -0.1446
27408W        W43882  10.300  13.339   3.401 -0.1660 -0.2741 -0.0640
27409W        W43883  15.360   5.026   1.411  0.0471 -0.1295  0.1585
27410W        W43884   7.121   9.700  12.365 -0.2076 -0.1748  0.0568
27411W        W43885  12.252  12.264   5.463  0.3412  0.3566 -0.3203
27412W        W43886   4.146   1.488  12.088 -0.0222  0.0770 -0.1688
27413W        W43887  15.081  16.473  15.403 -0.1879 -0.1940 -0.0076
27414W        W43888  16.819  16.801   5.131  0.0845 -0.3095 -0.2427
27415W        W43889  14.219   0.904   3.535 -0.1409  0.0992 -0.1271
27416W        W43890  13.201   4.303  16.036  0.0249 -0.2160 -0.4990
27417W        W43891  16.893   1.850  13.003 -0.1845 -0.4048 -0.0764
27418W        W43892  17.860   5.799  14.292 -0.1251  0.0584 -0.2474
27419W        W43893  14.494   1.964  13.186 -0.0653  0.0376  0.1100
27420W        W43894  15.753  15.253   1.301 -0.0639  0.0666  0.1126
27421W        W43895   5.559   3.640   4.161  0.0486  0.0547 -0.4779
27422W        W43896   4.030   4.449   2.322 -0.1253  0.2957 -0.0580
27423W        W43897   5.728  10.329  13.762  0.0839  0.2015  0.2305
27424W        W43898  12.733  14.551   4.381  0.1325  0.0946  0.1656
27425W        W43899  16.637  15.098   5.005 -0.0951 -0.1361 -0.1063
27426W        W43900  17.711   5.857  12.270  0.0057 -0.2143 -0.4353
27427W        W43901  15.822  12.011   2.931  0.0927 -0.3515 -0.0277
27428W        W43902  11.569  14.243   0.988 -0.1034 -0.2658 -0.2088
27429W        W43903  13.135   7.599  15.193  0.1022 -0.3297 -0.1378
27430W        W43904  11.876  12.930   3.142  0.1959  0.0494 -0.1777
27431W        W43905  14.964  12.946  16.673 -0.0146  0.1722  0.2730
27432W        W43906  11.468   2.491   5.690 -0.0468 -0.1982  0.0901
27433W        W43907   8.886   1.133  12.334  0.1720 -0.2948 -0.1161
27434W        W43908  10.172   0.131   2.766 -0.1607  0.3513  0.1428
27435W        W43909  15.093   9.816   0.054  0.1750 -0.0924 -0.1019
27436W        W43910   6.990   9.911   5.537  0.0059  0.1100 -0.0015
27437W        W43911  12.134  12.553   2.214 -0.1412  0.1077 -0.3460
27438W        W43912  14.544  13.321   2.283 -0.0664  0.0457  0.0989
27439W        W43913   9.311  12.712  13.883 -0.1137 -0.1342 -0.0707
27440W        W43914   4.130  10.190  12.070  0.1943 -0.1610  0.1681
27441W        W43915   4.533   3.540   1.274  0.1350 -0.0458 -0.1770
27442W        W43916  16.379   2.923   0.293  0.2441  0.1203  0.1506
27443W        W43917   1.695   0.565   0.561  0.0607 -0.1665  0.0548
27444W        W43918  12.004  16.539   4.617 -0.1291 -0.1257  0.0649
27445W        W43919   3.877   8.987   2.073  0.0419 -0.2292 -0.2136
27446W        W43920  15.715  17.442  15.350 -0.0331  0.2983  0.1635
27447W        W43921   6.800   3.511   4.058  0.0656  0.1813 -0.0921
27448W        W43922  14.464   0.273   5.608 -0.0137  0.0082  0.1462
27449W        W43923  17.242   7.463  14.631 -0.0045 -0.1930  0.1119
27450W        W43924  12.293   3.466   5.556  0.0611  0.1705 -0.2802
27451W        W43925   3.598  11.157   1.271  0.0953  0.0560 -0.0950
27452W        W43926   2.568   5.340   2.386  0.0382  0.0047 -0.1664
27453W        W43927  17.362   0.166   3.200 -0.0472  0.2162 -0.0267
27454W        W43928   7.858   4.770  12.522  0.0574  0.3795 -0.0902
27455W        W43929  11.693  11.301   4.715  0.7250 -0.1023  0.2795
27456W        W43930   9.253  13.300  13.407  0.1363 -0.1925  0.2087
27457W        W43931   8.118   2.075  16.607  0.1515  0.1160 -0.2502
27458W        W43932   3.101  10.401  14.980 -0.0584 -0.0901  0.3789
27459W        W43933   2.331  15.010  13.775 -0.0213 -0.1387  0.2492
27460W        W43934   1.921   4.695   3.738 -0.3350 -0.1424  0.1188
27461W        W43935   5.731  14.682  13.996 -0.1002  0.1100 -0.0252
27462W        W43936  17.328   5.300  12.979  0.2297  0.1917 -0.1227
27463W        W43937   1.272  10.340  16.471 -0.2857  0.0362  0.2512
27464W        W43938   4.300  13.346   2.906  0.0786 -0.3911 -0.0886
27465W        W43939   9.348  17.847   4.652  0.1008  0.0085  0.2316
27466W        W43940   8.348  14.634   2.630  0.0507 -0.1162  0.0731
27467W        W43941  15.590   8.428  11.739 -0.0228 -0.2685 -0.3300
27468W        W43942  14.990  14.777   3.048  0.1727 -0.0767  0.1054
27469W        W43943   7.128  12.617  14.264 -0.1571  0.1773  0.1988
27470W        W43944   8.638   6.017   3.623  0.1507  0.1497  0.0127
27471W        W43945  14.474   6.104  13.119  0.1784 -0.0376  0.0671
27472W        W43946   6.451   0.279  15.239  0.0318 -0.0337 -0.1134
27473W        W43947  12.746   9.686  13.706 -0.0218  0.3610 -0.0790
27474W        W43948   7.378  12.990  11.456 -0.1949  0.1931 -0.2467
27475W        W43949   9.982   9.810  14.835  0.0161  0.0496 -0.1892
27476W        W43950   6.259  16.530   2.147  0.1182 -0.0193  0.1126
27477W        W43951   9.786   5.487  14.672 -0.0712  0.0095  0.2307
27478W        W43952   0.354   6.828  15.107 -0.1287  0.2676 -0.1901
27479W        W43953  11.282   5.117  12.685  0.2848  0.0493 -0.1116
27480W        W43954   7.118  17.029  11.596  0.0032 -0.0180  0.4317
27481W        W43955   4.615  10.744  13.168  0.0995 -0.0296 -0.1471
27482W        W43956  11.519   6.712   3.327  0.0305 -0.0649 -0.0669
27483W        W43957  10.952   2.455  13.095  0.1560  0.1981  0.1694
27484W        W43958  17.799  12.433  15.130  0.2772 -0.1755 -0.2265
27485W        W43959  12.495   7.760  15.281 -0.0509 -0.0057  0.2546
27486W        W43960  14.735   4.093  14.477  0.2731 -0.0033  0.1576
27487W        W43961  17.765  15.130   3.873 -0.1187  0.2638  0.1731
27488W        W43962   3.478   9.673  11.735  0.1270  0.1351  0.1449
27489W        W43963  10.845  17.692   4.354  0.0375  0.0645 -0.2619
27490W        W43964  16.903   3.132   0.866  0.0468 -0.2771  0.2844
27491W        W43965   2.931   5.437  12.458 -0.2815  0.1537  0.2076
27492W        W43966  17.990  15.947  12.129 -0.1335 -0.1450  0.0383
27493W        W43967   3.060  13.833   1.347  0.0836  0.0878  0.0530
27494W        W43968   1.571  12.901   0.087  0.4161  0.1361 -0.1157
27495W        W43969   8.253   1.285   4.962  0.3220  0.0681  0.1522
27496W        W43970   4.492   3.322  12.024  0.1239  0.3428  0.0513
27497W        W43971   0.077  10.729  14.085 -0.0388 -0.1999  0.0555
27498W        W43972   5.878   6.745  14.368 -0.1349 -0.0287  0.2236
27499W        W43973  11.931  16.628   2.275  0.2030  0.0717  0.0387
27500W        W43974  15.059  10.834   2.471  0.1620 -0.0959  0.1113
27501W        W43975   5.056   4.290   4.766  0.0130 -0.2065 -0.0075
27502W        W43976  10.522   2.367   0.968  0.0157  0.0958  0.0377
27503W        W43977   0.795   2.623  12.323 -0.1517  0.0898  0.0228
27504W        W43978   8.225   5.095  14.783 -0.1941 -0.3171  0.0449
27505W        W43979   6.686  16.509   1.886  0.4256 -0.0220  0.3168
27506W        W43980  10.916  12.751   4.008  0.0971  0.1113  0.1030
27507W        W43981   9.500  16.903  10.857  0.2334  0.0821 -0.0245
27508W        W43982   4.477  14.228   3.374  0.0009  0.4151 -0.2527
27509W        W43983   6.146  13.199  16.042  0.3167 -0.1291  0.1611
27510W        W43984   2.274   4.300   2.988  0.0799  0.0533  0.0461
27511W        W43985  15.946  17.257  12.358  0.1102  0.2978 -0.1035
27512W        W43986   7.757   7.979   4.155 -0.1658 -0.1320 -0.4414
27513W        W43987  15.025   8.244   3.597  0.3091 -0.3018  0.0586
27514W        W43988  14.026   1.628  16.447  0.0364 -0.0881  0.0284
27515W        W43989  17.488   7.679  12.126  0.0448 -0.0426 -0.0492
27516W        W43990   3.726  14.289  15.928  0.0600  0.2011  0.0562
27517W        W43991   2.946   3.585   2.836  0.2741  0.2099  0.2029
27518W        W43992   0.823   4.895  15.095 -0.0766  0.3301  0.1305
27519W        W43993   0.398  12.629  11.759  0.1258 -0.0236  0.0051
27520W        W43994   8.833   5.771  12.728  0.2411 -0.2477 -0.1341
27521W        W43995  17.873  12.022  12.383 -0.2627  0.0722 -0.0295
27522W        W43996   9.354  10.333  14.497  0.3201  0.4389 -0.2962
27523W        W43997  14.122  15.504  15.387 -0.0709  0.5165 -0.0612
27524W        W43998  16.158   8.912  14.035 -0.0101 -0.0065  0.0298
27525W        W43999   6.643   6.212  15.933 -0.0640 -0.1241  0.2355
27526W        W44000  13.039  12.332   0.133  0.0290 -0.1694 -0.1208
27527W        W44001   5.814   6.269  14.555 -0.3222 -0.1782 -0.2262
27528W        W44002  15.589  15.899  13.446  0.1855 -0.2448 -0.0850
27529W        W44003   7.132  17.969  11.329  0.2409  0.1416 -0.1151
27530W        W44004  16.489  10.844  11.523 -0.2529 -0.0077 -0.1917
27531W        W44005   4.926  15.865  13.666 -0.0531 -0.2563  0.0954
27532W        W44006   9.327  16.783   1.170  0.2651 -0.0625  0.2214
27533W        W44007   5.941  14.778  14.958 -0.1624  0.0290 -0.1710
27534W        W44008   3.380  15.445  13.943  0.0993 -0.0944 -0.0588
27535W        W44009  10.511  17.096  14.370  0.0239  0.4471  0.1041
27536W        W44010   6.709  16.544   3.061 -0.1412 -0.4087 -0.2070
27537W        W44011   6.444  16.724  16.589 -0.3805  0.1689 -0.1342
27538W        W44012   5.890   4.906   1.558 -0.1418 -0.1504 -0.0722
27539W        W44013  15.942   3.519  15.885 -0.0607  0.0725  0.0748
27540W        W44014  12.082   3.572  16.328 -0.1775  0.0491 -0.1066
27541W        W44015  15.196   4.433  16.578  0.0259 -0.1332 -0.1481
27542W        W44016   6.978   6.690  13.850 -0.2322  0.0276 -0.1834
27543W        W44017   3.197  12.000  15.771 -0.3847  0.0341  0.1718
27544W        W44018  13.149  16.514  15.978  0.0829 -0.0359 -0.1584
27545W        W44019   6.965  12.074   0.535 -0.0119  0.0190  0.1360
27546W        W44020  13.679   4.578  13.754 -0.0486 -0.1533  0.0054
27547W        W44021  10.904  12.635  12.716  0.0007  0.0911  0.1249
27548W        W44022  11.576  13.038  14.393  0.0869  0.0805 -0.0641
27549W        W44023  11.520   4.377   4.933 -0.0269 -0.1804 -0.0118
27550W        W44024   4.310  17.932   3.352  0.0011 -0.0019 -0.0754
27551W        W44025  10.193   7.456  12.539 -0.4568 -0.2402 -0.0780
27552W        W44026  17.816   5.355  12.781  0.1193 -0.2242 -0.1295
27553W        W44027  14.343   0.410   3.803  0.0774  0.2049  0.1005
27554W        W44028  17.339   1.303  13.454  0.2069  0.1241  0.1769
27555W        W44029  10.602   3.142  12.748  0.2682 -0.1585 -0.1678
27556W        W44030   1.419   8.884   2.718  0.0805 -0.2796  0.0124
27557W        W44031   3.410  10.576  16.162 -0.0069  0.1025  0.0452
27558W        W44032   6.481  15.484  16.624  0.0263 -0.1542 -0.0964
27559W        W44033  16.470   8.120  11.450 -0.2490  0.0482  0.1979
27560W        W44034  11.823   4.395  13.019  0.1099 -0.2762  0.1307
27561W        W44035   6.918   6.159   5.203 -0.1712 -0.0789  0.0087
27562W        W44036   2.765   1.292   1.908  0.1535 -0.2488  0.0823
27563W        W44037  16.982  12.713  13.168  0.1487  0.3190 -0.2218
27564W        W44038   2.095   9.992  13.571 -0.4600  0.1723 -0.0653
27565W        W44039   5.890  13.716  14.032 -0.0643 -0.2420 -0.0613
27566W        W44040   7.404   2.844   2.208  0.0175 -0.1280  0.2861
27567W        W44041  13.515   7.227  14.341 -0.3200  0.0740 -0.0980
27568W        W44042  10.578   5.720  13.666  0.1291 -0.2882  0.1576
27569W        W44043   3.191  15.480  15.388  0.2582  0.0621  0.2370
27570W        W44044   6.368  13.592   3.823 -0.1393 -0.3765 -0.2223
27571W        W44045   8.089  14.012  15.247 -0.0380  0.0336 -0.3036
27572W        W44046  10.527   8.479  12.854  0.2412  0.2208  0.1873
27573W        W44047  15.311   0.452   2.847 -0.5935  0.2013  0.4101
27574W        W44048   2.814  17.872  15.583  0.0522 -0.3039  0.0841
27575W        W44049   7.838   7.202  12.001  0.0091 -0.1654 -0.2026
27576W        W44050  12.255   4.493   5.372  0.0852  0.0345  0.1424
27577W        W44051  12.355  12.556   4.802 -0.1116 -0.1174  0.1736
27578W        W44052  12.990   8.271   4.269  0.0381 -0.1451  0.0450
27579W        W44053   2.446   0.542  15.253 -0.1748 -0.0892  0.2665
27580W        W44054   7.633   7.629   5.504 -0.2484  0.0321 -0.4481
27581W        W44055   3.112  17.644  12.858 -0.2761 -0.0174  0.1769
27582W        W44056  16.744  11.982  14.452  0.2022  0.1128 -0.2328
27583W        W44057  12.823   0.640   4.706 -0.0639  0.1405 -0.1250
27584W        W44058  16.614   7.136   2.823  0.0753 -0.0544  0.1319
27585W        W44059   1.664   9.795  12.295 -0.1472 -0.1606  0.1184
27586W        W44060  11.801  17.700   0.068  0.4020 -0.0889  0.1253
27587W        W44061   7.357   3.725   5.066 -0.3042 -0.0337  0.0646
27588W        W44062  10.759  16.508   5.014 -0.3796  0.1633 -0.2133
27589W        W44063  12.613   8.294   5.214  0.2365  0.1083 -0.0807
27590W        W44064   0.884   5.948  15.362  0.0273 -0.0876 -0.3067
27591W        W44065  11.134   2.653   1.177  0.0860 -0.2915  0.0730
27592W        W44066   0.117   5.175   4.859  0.3353 -0.0315 -0.2530
27593W        W44067   0.631  12.373  12.099 -0.2705 -0.2836  0.3837
27594W        W44068  12.266  10.519   4.744 -0.2279 -0.2264 -0.0435
27595W        W44069  10.669   5.127  16.285 -0.0841  0.2985  0.3514
27596W        W44070   3.167   1.818   0.875 -0.0465  0.0516  0.1947
27597W        W44071   5.957   8.808   0.204  0.1187  0.0949  0.2005
27598W        W44072  12.575  12.045   3.104  0.0844 -0.1139  0.2147
27599W        W44073  17.787   5.629   0.880 -0.0661  0.1504  0.1792
27600W        W44074   7.988   7.810   3.214 -0.1071 -0.0204 -0.0570
27601W        W44075  15.479  14.093  16.143  0.0474 -0.1353  0.0560
27602W        W44076   9.433  10.861   3.759  0.2042 -0.3106  0.4044
27603W        W44077   4.293  14.281   4.205  0.2553 -0.0424  0.2206
27604W        W44078   3.093   0.843  11.503 -0.1795  0.0107  0.1249
27605W        W44079  11.907  12.813   1.825 -0.0741  0.1909  0.4044
27606W        W44080  16.738  13.858  13.996  0.0307 -0.0843 -0.0261
27607W        W44081  12.003   9.708  12.790  0.1210  0.1814 -0.1680
27608W        W44082   2.789   5.527  15.972  0.0009 -0.0168  0.2528
27609W        W44083   5.900  11.206   2.417 -0.0980 -0.1378  0.1715
27610W        W44084   3.521   4.447   2.461 -0.1856 -0.0721  0.5460
27611W        W44085   0.343   9.259  11.688  0.1798 -0.1303 -0.0557
27612W        W44086  11.717  13.168   4.800  0.1292  0.0227 -0.3193
27613W        W44087   1.773  15.776  12.758 -0.2444 -0.2061 -0.2590
27614W        W44088   2.202   0.391  12.362  0.0331 -0.1016  0.1100
27615W        W44089   9.769   0.178   4.912 -0.5029  0.0820  0.1243
27616W        W44090  11.745   8.673   1.702 -0.4142  0.3873  0.2540
27617W        W44091   7.400   6.127   4.089 -0.2049 -0.0903  0.0184
27618W        W44092  10.406   1.231  12.038 -0.1181  0.2108 -0.0165
27619W        W44093   3.750   6.301   0.782  0.1442 -0.2079  0.0795
27620W        W44094  16.224  13.485  12.372 -0.0266 -0.0248  0.1367
27621W        W44095  13.000   6.610  13.213 -0.3333 -0.2035 -0.0055
27622W        W44096   7.853   9.247  12.530 -0.0871 -0.4410 -0.2464
27623W        W44097  16.190   3.493  15.323  0.0722  0.2203 -0.1954
27624W        W44098  17.191   3.680  12.326 -0.0089 -0.1338  0.0233
27625W        W44099   9.790  12.920   1.401 -0.1972  0.0579  0.2909
27626W        W44100   2.005  16.163   4.237  0.1321  0.3288 -0.1553
27627W        W44101   8.697   7.951   5.146  0.1939  0.0800 -0.1887
27628W        W44102  11.499  11.318  15.193 -0.0959  0.1528  0.1231
27629W        W44103  13.361   2.300   3.833  0.1165  0.0600  0.1608
27630W        W44104   0.246   1.913  13.472  0.2137  0.0675 -0.0305
27631W        W44105   4.050   2.427   4.746 -0.3103 -0.1687 -0.1930
27632W        W44106   1.592   1.538  13.015 -0.0924 -0.0600  0.1043
27633W        W44107   7.533  13.909   2.864  0.0346  0.0541  0.0611
27634W        W44108  17.664   6.886  13.574 -0.5145  0.0833 -0.2313
27635W        W44109   1.652   4.066  12.726  0.0937  0.1592 -0.1279
27636W        W44110   2.203  10.579  16.475  0.0097 -0.0629 -0.2124
27637W        W44111  10.189   8.852  16.487 -0.2072 -0.0647  0.1007
27638W        W44112   1.530  15.431  14.815  0.3366  0.2541 -0.0830
27639W        W44113  16.669   6.739   3.187 -0.3240 -0.0154  0.3355
27640W        W44114   6.660   0.462  16.533  0.0121 -0.3504  0.1183
27641W        W44115  13.802  15.647  14.521  0.0104 -0.2358  0.2214
27642W        W44116   2.749   2.228  15.926  0.3644  0.0042 -0.0881
27643W        W44117   8.158  16.014   3.697  0.1001 -0.0049 -0.2356
27644W        W44118  12.118   9.579  14.229  0.0731 -0.0862 -0.0665
27645W        W44119  14.507   4.891   4.786 -0.1890 -0.0394 -0.2040
27646W        W44120   1.084  17.493   3.206  0.2165 -0.0661  0.2499
27647W        W44121  14.262   9.907   1.194 -0.0938 -0.2364 -0.0552
27648W        W44122   4.422   8.699   2.549  0.1732  0.2659  0.0048
27649W        W44123  15.988   0.171  12.166 -0.1992 -0.1717  0.1332
27650W        W44124   2.182  10.771  15.013 -0.0079  0.4318 -0.0705
27651W        W44125   3.245   0.914  16.682 -0.3092 -0.1322  0.0544
27652W        W44126   2.524   9.756   5.487 -0.3004 -0.0988  0.2711
27653W        W44127  11.302  13.540   4.802  0.0084  0.2003 -0.1056
27654W        W44128  12.243  17.900   1.007 -0.2451 -0.0171 -0.1835
27655W        W44129   0.444  13.878   2.144  0.0872  0.2500  0.1649
27656W        W44130   2.457   2.219   2.534  0.1773  0.0812 -0.0248
27657W        W44131  14.446  11.040  14.117 -0.0762 -0.0043  0.2210
27658W        W44132  11.232  13.194   5.746 -0.0997 -0.2437 -0.0361
27659W        W44133   0.484   2.747   2.338 -0.0235 -0.1609 -0.1965
27660W        W44134  13.069   0.287  12.399  0.0087  0.1579  0.5895
27661W        W44135   7.827  15.735  14.698 -0.1226 -0.1417  0.0981
27662W        W44136   6.338   8.453  14.788 -0.0633 -0.0175 -0.0678
27663W        W44137   4.539   3.011   1.601  0.0876  0.0588 -0.2712
27664W        W44138  11.547  15.716  16.521  0.1823 -0.1698 -0.0621
27665W        W44139   3.387  13.377   0.556 -0.0534 -0.0869  0.0503
27666W        W44140   0.521   1.700  12.101 -0.1003 -0.2212  0.0550
27667W        W44141   2.815   3.726   6.077 -0.1312 -0.0430 -0.1557
27668W        W44142  11.309  16.213   1.143 -0.0331 -0.2799  0.1081
27669W        W44143  14.891   2.619   3.511  0.2963  0.1719  0.1380
27670W        W44144  12.111  17.412   0.489  0.0164 -0.0379  0.1230
27671W        W44145   6.744  16.996   0.534 -0.0185 -0.0110  0.0949
27672W        W44146  14.347  10.469  14.341 -0.2296 -0.1112  0.0091
27673W        W44147   9.215   4.708   6.011  0.0037 -0.0286  0.0477
27674W        W44148  10.209   8.979   2.296  0.1515  0.0558  0.3261
27675W        W44149  16.273   0.649   2.894 -0.1218 -0.0937  0.1892
27676W        W44150  14.324   1.705  15.981 -0.0535 -0.1360 -0.0772
27677W        W44151  12.034   8.728  12.679  0.2591  0.0521  0.0680
27678W        W44152   2.302  11.083   1.488 -0.0273  0.0370 -0.0451
27679W        W44153  14.966  17.214  13.769 -0.2143  0.1539 -0.0788
27680W        W44154   8.858  12.174   5.293 -0.1383  0.1925  0.2773
27681W        W44155   7.509  14.937   3.809 -0.2081 -0.1971 -0.2083
27682W        W44156   0.988  14.173   1.056  0.1760  0.2481 -0.0839
27683W        W44157   7.593   3.916   4.283  0.0926  0.0367  0.0170
27684W        W44158  17.735   7.680   2.207 -0.3887  0.2452  0.3206
27685W        W44159   6.953   3.432   4.894 -0.0441 -0.4316  0.3036
27686W        W44160  10.963   4.011  14.601 -0.2288 -0.0141  0.3398
27687W        W44161   5.083  11.537  11.460 -0.0593 -0.2533 -0.1003
27688W        W44162   4.615  13.454   1.240  0.0198 -0.2783 -0.0343
27689W        W44163  16.045   6.869   4.411  0.0978 -0.0121 -0.1025
27690W        W44164  14.541  15.338  14.674  0.1525  0.1362 -0.2195
27691W        W44165  11.577  10.060   1.308  0.3245  0.1158  0.0543
27692W        W44166  13.080   9.621   1.880 -0.0692  0.0249  0.2343
27693W        W44167  11.307   6.385  16.588 -0.2907 -0.2666 -0.2144
27694W        W44168  16.887  11.350   2.518  0.1879  0.1816 -0.4097
27695W        W44169  17.342   6.879  16.073 -0.0543  0.2855 -0.0246
27696W        W44170  10.728   4.069  12.338 -0.3821 -0.0039 -0.0314
27697W        W44171  10.324  11.523  12.426  0.0343  0.0231 -0.0434
27698W        W44172   8.561   8.702  15.099  0.0747 -0.0652 -0.0875
27699W        W44173  16.133  11.809   1.547 -0.4044 -0.2257  0.2151
27700W        W44174  10.222  11.052  15.973  0.1780 -0.1391  0.1099
27701W        W44175   3.559   5.982  13.739 -0.1671 -0.0977  0.0469
27702W        W44176  11.487  14.262   3.814  0.0942 -0.0854 -0.0852
27703W        W44177   1.027  10.891   3.103 -0.2491  0.1054 -0.1901
27704W        W44178  14.904  13.781   1.070 -0.1436  0.1383  0.0095
27705W        W44179   1.505  12.116   2.940 -0.2004  0.2425  0.0254
27706W        W44180   4.388   1.048  11.973  0.0744  0.2544 -0.0983
27707W        W44181  17.146  12.268  15.823  0.1541 -0.1786 -0.2007
27708W        W44182   7.312   3.995  12.490 -0.0247  0.0812  0.1389
27709W        W44183  10.879  16.427   3.289  0.2011 -0.1399  0.1989
27710W        W44184  13.151   4.081   1.898  0.0021 -0.2990 -0.1442
27711W        W44185   6.214   6.164   1.821  0.2050  0.1107  0.4131
27712W        W44186   3.927   2.225   1.827  0.0830 -0.2429 -0.3974
27713W        W44187  15.906  16.436   1.858  0.1907  0.1464  0.1196
27714W        W44188  16.832   8.905   2.172 -0.1280 -0.1739 -0.1261
27715W        W44189  12.813   3.102  16.158 -0.4296 -0.1223 -0.2118
27716W        W44190   4.960   8.041  13.624 -0.0653 -0.1300  0.2979
27717W        W44191  16.332   7.468  14.790 -0.0772 -0.1453  0.1363
27718W        W44192  10.898   9.788  16.683 -0.0174  0.1518 -0.0563
27719W        W44193  10.594   0.690   1.126 -0.0101  0.1428 -0.1159
27720W        W44194  12.540   1.157  14.794 -0.0449  0.0374  0.1332
27721W        W44195  11.610  16.033  14.434 -0.0916  0.0411 -0.1077
27722W        W44196  17.884   8.165  11.793 -0.0607  0.0512  0.0860
27723W        W44197   7.043   7.888  14.870 -0.2596  0.2700 -0.1488
27724W        W44198   8.970  13.934  13.136 -0.2315  0.0415  0.2802
27725W        W44199  15.690  16.756   0.969  0.1331 -0.0762 -0.1140
27726W        W44200  17.008   4.699   4.387  0.3199  0.2610  0.0686
27727W        W44201  10.896  12.536   5.103  0.0408 -0.1019 -0.3075
27728W        W44202  10.183  10.370  11.976 -0.1655  0.2755  0.1205
27729W        W44203   4.799   9.435  15.165  0.0501 -0.1393  0.0871
27730W        W44204   1.107   8.285  16.401  0.2692 -0.0623  0.1579
27731W        W44205   7.045   7.001  14.827  0.4534 -0.2547 -0.4492
27732W        W44206   6.408   6.753   2.834  0.0596  0.2375 -0.1002
27733W        W44207   5.152   1.684  15.151  0.1022 -0.2631  0.0034
27734W        W44208  16.048   5.633  13.940 -0.1603  0.2010  0.1348
27735W        W44209  14.957   0.559   3.756  0.0520  0.3245 -0.1607
27736W        W44210  15.899  13.140  14.454  0.0818 -0.4299  0.2599
27737W        W44211   1.232  15.141   1.884 -0.1802  0.2049 -0.1960
27738W        W44212   9.038   0.858   3.289  0.1225 -0.0204 -0.2377
27739W        W44213   2.514   3.478   3.712 -0.0748  0.3840  0.0677
27740W        W44214   3.977   3.155   1.945  0.2794 -0.3941  0.1285
27741W        W44215  12.653   1.763   1.099  0.0652 -0.2386  0.1138
27742W        W44216   0.440  13.960  16.077 -0.0201  0.5330  0.0115
27743W        W44217   6.905   4.298  12.245 -0.4440  0.0390 -0.0556
27744W        W44218   6.182   2.008   3.303  0.1733 -0.1980  0.1308
27745W        W44219   0.225   7.815   6.279 -0.1826  0.3751  0.1229
27746W        W44220   6.258   0.054   2.624 -0.0976 -0.0004  0.2093
27747W        W44221  14.348   4.806   5.282  0.1815 -0.1708  0.3013
27748W        W44222   8.918   9.373  15.685 -0.1133  0.3995 -0.3637
27749W        W44223   5.762  12.225  12.050 -0.3527  0.3440 -0.0386
27750W        W44224  10.671  11.850  14.770 -0.0656 -0.0678  0.0796
27751W        W44225  13.294   5.777  14.390 -0.3837  0.0339 -0.0217
27752W        W44226  17.881  17.648  13.649 -0.0318  0.2568 -0.3207
27753W        W44227  11.914   1.339  13.728 -0.1626 -0.2397  0.1289
27754W        W44228   5.635  16.241   3.786  0.1480  0.3317  0.1877
27755W        W44229  16.095  16.192   2.390  0.0035 -0.0910 -0.2936
27756W        W44230  12.248   7.524  16.580  0.0776 -0.2167 -0.3332
27757W        W44231  13.482   0.328   3.315  0.0244  0.1304  0.0762
27758W        W44232   5.322   9.142  11.803  0.0669 -0.1000 -0.0719
27759W        W44233   0.848  11.580  14.800 -0.0754 -0.0742 -0.0532
27760W        W44234  12.878  14.771  14.219 -0.1354  0.0319  0.1464
27761W        W44235   6.857   4.880   0.392 -0.0794  0.3453  0.1917
27762W        W44236  14.152   2.135  15.780 -0.1856  0.0318 -0.3324
27763W        W44237   4.681   0.691   2.282 -0.0172  0.2451  0.1101
27764W        W44238   8.104   5.331  15.200  0.0261 -0.1570 -0.0511
27765W        W44239   4.021   2.849   4.374 -0.1886  0.0642 -0.0915
27766W        W44240   3.845  11.913   4.522 -0.1622  0.1809  0.0097
27767W        W44241   5.899   7.437   0.363 -0.3210 -0.2861 -0.2752
27768W        W44242  13.451   2.335  16.314 -0.2518  0.0220  0.2399
27769W        W44243  10.610  14.729  15.546  0.0040 -0.0232  0.0459
27770W        W44244   5.699  10.655  16.166 -0.2041  0.1171 -0.0369
27771W        W44245   5.758  10.790   5.340  0.2168 -0.1138 -0.4180
27772W        W44246   5.191   6.853  12.152 -0.1649  0.0850 -0.1133
27773W        W44247   3.263   1.923   3.150 -0.0716 -0.1677  0.1793
27774W        W44248   7.383   5.012   0.904  0.1156 -0.2987 -0.0846
27775W        W44249   4.117   5.066   3.744 -0.0415 -0.1589  0.2186
27776W        W44250  13.132  10.974  13.526 -0.1848  0.1076  0.3370
27777W        W44251   8.887   9.522   4.897 -0.1719  0.0129 -0.1509
27778W        W44252   9.090  12.651  11.412 -0.1232 -0.0695 -0.0839
27779W        W44253   6.087   7.506  14.663 -0.1148  0.3790  0.1682
27780W        W44254   2.581   9.041  14.694  0.2630  0.0328  0.0557
27781W        W44255   5.318  17.670   4.215 -0.0691  0.1725 -0.0681
27782W        W44256   0.438   4.378  15.711  0.0738  0.0609 -0.1773
27783W        W44257   6.440  10.185  13.393  0.0317  0.0911  0.2082
27784W        W44258   9.644  14.732  15.503 -0.2663 -0.2641  0.1355
27785W        W44259   6.752   2.077   0.674  0.0681  0.3697  0.0965
27786W        W44260   0.771  15.687   4.792  0.1002  0.2495 -0.2207
27787W        W44261   4.076   9.599  12.225  0.0290 -0.2068 -0.2186
27788W        W44262   7.250   6.114  13.157  0.1757 -0.2458 -0.0520
27789W        W44263   2.463   7.746   2.433  0.0215 -0.1157 -0.2369
27790W        W44264  15.715   1.020  11.902  0.0215 -0.1886  0.2137
27791W        W44265   0.108   7.708  12.146  0.1829  0.0272  0.0391
27792W        W44266   1.778  12.915  16.047  0.1232  0.1523  0.0934
27793W        W44267  11.370  16.512   0.276  0.1407  0.0296 -0.2005
27794W        W44268   0.433   3.715  13.988 -0.1938 -0.3073  0.4100
27795W        W44269   0.819   5.226  12.481 -0.2126 -0.0537  0.1181
27796W        W44270   0.051  15.474   3.664 -0.3434  0.0616  0.0450
27797W        W44271  14.628  13.042  16.300  0.0362 -0.1469  0.1407
27798W        W44272   2.693   3.700  16.707 -0.0168  0.1061  0.2703
27799W        W44273  16.341  10.275   0.562  0.0302 -0.0305 -0.0781
27800W        W44274  11.487  16.434  14.758 -0.1744 -0.1132  0.0836
27801W        W44275  16.596  16.382  12.781  0.1098  0.0141 -0.1388
27802W        W44276  11.069   3.912   3.008  0.1259  0.1655 -0.2588
27803W        W44277  13.340  16.681   2.201  0.1221 -0.3220 -0.0374
27804W        W44278  14.585  15.069   4.208  0.0753  0.2110  0.2271
27805W        W44279   7.979  15.454   4.915 -0.3657 -0.3599  0.0000
27806W        W44280   8.499   6.796  15.365 -0.0461  0.4070  0.3441
27807W        W44281  16.146   0.681  11.964 -0.0872 -0.0385 -0.0161
27808W        W44282   9.119   8.398  12.163  0.0386  0.0682 -0.1965
27809W        W44283   1.922   3.472  12.644 -0.0082 -0.2862  0.0983
27810W        W44284   5.633   6.050  11.954  0.1116 -0.1340 -0.1882
27811W        W44285   1.547  17.678   3.399  0.0488  0.1687 -0.3049
27812W        W44286  16.358   5.669   3.782 -0.1328  0.0864 -0.0612
27813W        W44287   3.059  14.878   4.608  0.1279  0.0025  0.0994
27814W        W44288   5.340  13.557   4.926 -0.2836  0.1541  0.1218
27815W        W44289   4.129  14.111  12.073  0.3079 -0.0661 -0.0157
27816W        W44290   4.604  11.397   4.130 -0.0645  0.0821 -0.1269
27817W        W44291  11.333  13.311  13.485  0.0519 -0.1531  0.2492
27818W        W44292   6.935   0.715  13.739  0.1008  0.0279 -0.1701
27819W        W44293  13.541   7.148  16.730 -0.1151 -0.0174  0.1619
27820W        W44294  17.428   2.593   2.112  0.0157  0.0363  0.1615
27821W        W44295   4.198   3.084   3.178  0.1875 -0.1393 -0.1380
27822W        W44296  14.864   8.318   2.707 -0.0049  0.0122  0.1169
27823W        W44297  10.430   1.560  16.271  0.4252 -0.0095 -0.1578
27824W        W44298   7.273   4.920  13.906  0.0613 -0.2745  0.0598
27825W        W44299  17.533  17.036   5.762  0.0319 -0.0559 -0.0214
27826W        W44300   6.768  14.451   4.124  0.0849 -0.3146  0.1412
27827W        W44301   8.893   1.811   2.432  0.0536 -0.0739  0.4411
27828W        W44302   9.933  15.798  13.980  0.1950 -0.0168 -0.2374
27829W        W44303  10.799  10.137   0.453  0.0388  0.0858  0.1662
27830W        W44304  16.587   0.082   3.747  0.1439  0.5108 -0.0030
27831W        W44305  10.350  13.581   1.391  0.1439  0.1087  0.0351
27832W        W44306   6.422   3.970  13.800  0.1617  0.1644 -0.0933
27833W        W44307   2.147   6.111   1.760  0.1116 -0.1857 -0.0248
27834W        W44308  10.617  17.712  13.707 -0.2068 -0.2624  0.1910
27835W        W44309  11.778  10.786   4.800 -0.1595  0.1141 -0.1249
27836W        W44310  13.724   2.540   1.628  0.1115  0.3421  0.2815
27837W        W44311   1.708   4.897  16.544  0.0477  0.0802 -0.1076
27838W        W44312  17.618  15.888  14.025 -0.1282  0.0269 -0.0528
27839W        W44313   0.370  11.689   2.167  0.0151 -0.0197  0.4014
27840W        W44314   3.329  16.340  15.447 -0.1950  0.2593  0.1572
27841W        W44315   0.935   8.643   4.473  0.0324  0.0636  0.0228
27842W        W44316  13.566   2.786   5.129  0.1639  0.3311  0.1122
27843W        W44317   9.994  12.653  15.209 -0.5578 -0.1100  0.2753
27844W        W44318   7.985  12.272  12.495  0.0820  0.0044  0.1094
27845W        W44319   3.224   1.051   1.831  0.0341 -0.1155 -0.1387
27846W        W44320  12.217   8.375  13.079 -0.2692 -0.0894  0.2099
27847W        W44321   3.935   0.652  11.882  0.0799 -0.1528  0.1956
27848W        W44322  16.206   2.024  15.089  0.2092  0.0398 -0.0527
27849W        W44323  14.768  14.830  13.047 -0.1479  0.3114  0.1215
27850W        W44324   2.153  12.926  11.633 -0.0971 -0.1112 -0.0112
27851W        W44325   7.756  14.545  11.374  0.0106 -0.1565  0.1811
27852W        W44326  17.109   6.121   2.717  0.0930  0.1957 -0.0204
27853W        W44327   4.075  16.547  12.942 -0.0862  0.0096  0.1457
27854W        W44328  15.034  17.569   3.332  0.0510 -0.0823  0.3892
27855W        W44329   0.339   5.378  16.145 -0.0040  0.1016  0.3678
27856W        W44330   3.688  10.385  12.738  0.1716 -0.0448  0.1847
27857W        W44331   7.028  16.584  11.780  0.2310  0.1787 -0.0196
27858W        W44332  16.286  16.106  14.603  0.0866 -0.2945  0.1314
27859W        W44333   7.498  10.707  14.739  0.0115 -0.0229 -0.0005
27860W        W44334   6.944   2.021  14.710  0.1180  0.2632  0.0989
27861W        W44335  13.059  10.623   4.912  0.2650 -0.0598  0.0731
27862W        W44336  17.188  11.247   1.544 -0.0104 -0.1743  0.1060
27863W        W44337   1.542   4.445  15.267 -0.0019 -0.0820 -0.2168
27864W        W44338   0.578  11.463  16.766 -0.1819  0.2172  0.0756
27865W        W44339   2.917   6.441  16.226  0.0854 -0.2222 -0.0305
27866W        W44340   2.624  16.108  12.980  0.0933 -0.4085 -0.1108
27867W        W44341   6.419   0.844  11.844  0.0492  0.1835 -0.0815
27868W        W44342  15.450   6.423  11.964 -0.0211 -0.2484  0.2300
27869W        W44343  15.296  10.030   3.482 -0.2266  0.1323 -0.0560
27870W        W44344   8.219  15.585  16.378 -0.0452 -0.0199 -0.0865
27871W        W44345  13.634  12.509   1.685 -0.0210 -0.1580  0.1924
27872W        W44346   6.601  14.042  11.373 -0.0146  0.0156  0.3913
27873W        W44347   5.629  13.113  11.594  0.2964 -0.1253 -0.1466
27874W        W44348   0.185   2.540  11.712 -0.3214  0.0969 -0.1563
27875W        W44349   4.623   1.238   0.286 -0.1127  0.2056 -0.1249
27876W        W44350   7.457  12.128   2.245 -0.2469  0.0549  0.1117
27877W        W44351   4.903   5.249  15.482  0.1454  0.2682  0.1839
27878W        W44352   8.896  17.277   2.713  0.2862  0.0096  0.0890
27879W        W44353   6.609   2.284  16.031 -0.2834  0.1204 -0.0514
27880W        W44354   5.062  11.239   3.913 -0.1788 -0.0565 -0.1839
27881W        W44355  11.737   6.605  16.370 -0.0772  0.1272  0.0292
27882W        W44356  11.934   5.449   0.407  0.2641  0.1225 -0.0588
27883W        W44357   0.539  12.209  14.343  0.2867  0.1084  0.2026
27884W        W44358   1.299  15.522   0.215  0.2039 -0.1050  0.3635
27885W        W44359  15.559   9.558  14.097  0.1946 -0.2428 -0.2729
27886W        W44360  16.356  11.784   3.124 -0.1354  0.0637 -0.0112
27887W        W44361   1.841   2.664   0.503  0.0098 -0.2196 -0.0452
27888W        W44362  16.686   8.277   3.367  0.2627  0.0723  0.4145
27889W        W44363  13.831  14.928   0.406 -0.1933  0.0509 -0.0692
27890W        W44364  13.708  13.170   0.930  0.1415 -0.0491  0.1593
27891W        W44365   3.710  10.956  11.394  0.2381  0.1237 -0.2514
27892W        W44366  17.366   2.103   0.849 -0.3664  0.0155  0.0498
27893W        W44367  10.453   0.038   3.611 -0.0524  0.2176 -0.1291
27894W        W44368   6.064   5.960   0.940  0.1700  0.1297  0.0693
27895W        W44369  12.196   7.888  15.645  0.1636  0.1931  0.1601
27896W        W44370   0.641   3.172   0.674  0.4443 -0.0278  0.0139
27897W        W44371   1.917   3.019   0.104  0.2771  0.2397 -0.1606
27898W        W44372   8.942   5.482  16.665  0.3980  0.0760  0.2763
27899W        W44373   6.057   4.571   0.813 -0.1897 -0.0085  0.0598
27900W        W44374  16.860  17.234  12.752 -0.0283  0.1176  0.0750
27901W        W44375   5.689  14.525   3.727  0.0081  0.2190 -0.0985
27902W        W44376   4.517   5.367   3.208  0.1111  0.0827 -0.1939
27903W        W44377  13.632   1.893   0.551 -0.1320  0.3247  0.4565
27904W        W44378  11.503  17.233   0.912 -0.3313  0.1753 -0.3228
27905W        W44379  13.547  17.625  13.456 -0.0557 -0.1489 -0.2013
27906W        W44380  11.210   1.129   0.468 -0.1260 -0.1635  0.1020
27907W        W44381  11.194   3.646  13.972 -0.3116  0.3745  0.1375
27908W        W44382  11.850   8.688  13.159  0.2440  0.2186 -0.0764
27909W        W44383  14.835  13.776   6.001 -0.0908  0.2029  0.0599
27910W        W44384  12.075   0.711  11.555  0.0899  0.1017 -0.1117
27911W        W44385   5.801   6.036  16.380 -0.1175  0.2241 -0.1412
27912W        W44386  17.413   2.602   4.270 -0.0542 -0.6962 -0.0255
27913W        W44387   8.694  10.694   0.018  0.2532  0.0322 -0.0602
27914W        W44388   9.733  16.847  15.796 -0.1551  0.1879  0.0617
27915W        W44389   5.750  10.401   2.873  0.0336  0.0280 -0.2080
27916W        W44390   4.387  14.856  15.520 -0.2600 -0.0677 -0.3646
27917W        W44391   0.362  11.099  13.640 -0.0553 -0.3339  0.0425
27918W        W44392   4.846  12.667  12.997  0.0506  0.1441 -0.0540
27919W        W44393   5.142  17.303  13.114  0.0651  0.4157  0.0405
27920W        W44394  16.057   9.262   4.565 -0.1961 -0.1451 -0.1262
27921W        W44395  17.024  12.447   0.057 -0.2511  0.0300 -0.1688
27922W        W44396  11.911  13.294   2.786 -0.2708 -0.3141  0.0271
27923W        W44397  13.613  16.207   4.435 -0.2966  0.0329  0.0261
27924W        W44398  13.091  12.475   1.749  0.1784  0.0591 -0.0506
27925W        W44399  14.670  14.478  11.415 -0.2003 -0.1711  0.1554
27926W        W44400   4.003   6.185  15.109 -0.0251 -0.0624 -0.0446
27927W        W44401  14.254   9.890   2.234  0.1959  0.3071  0.0796
27928W        W44402  10.088   5.693   2.062 -0.1818  0.1835 -0.0573
27929W        W44403  12.053  12.160  11.910 -0.0003 -0.4282  0.0486
27930W        W44404   3.875   8.067   0.295  0.1401 -0.0938 -0.1470
27931W        W44405  14.265   5.510  14.868  0.1765 -0.4259  0.2493
27932W        W44406  17.128  13.857   1.141  0.0400 -0.1528 -0.0278
27933W        W44407   5.590   0.436   3.297  0.0321  0.1086 -0.0684
27934W        W44408   9.261  12.978  15.789 -0.0649 -0.1208 -0.0623
27935W        W44409   5.461  10.538  16.631 -0.1121  0.0339 -0.1859
27936W        W44410  16.919  11.016   6.167 -0.0153  0.0322 -0.2639
27937W        W44411   6.020  11.794  14.846 -0.3280 -0.0735 -0.2496
27938W        W44412  13.542  11.780  14.523 -0.0517 -0.1068  0.0319
27939W        W44413  16.723   5.603   6.176 -0.0063 -0.1437 -0.2613
27940W        W44414   9.867   6.993   1.450  0.0732 -0.0460  0.1770
27941W        W44415   8.546   7.851   6.564  0.0780  0.0447  0.2528
27942W        W44416  14.622   6.605  15.654 -0.2955  0.1547  0.0118
27943W        W44417  16.627  16.469   0.711 -0.1594  0.0470 -0.1057
27944W        W44418  11.524  10.601  14.018  0.3125 -0.0976  0.0152
27945W        W44419  10.717  13.773  12.088  0.1402  0.1237  0.1949
27946W        W44420   6.758   0.434  12.611 -0.1256 -0.0242  0.1846
27947W        W44421  12.997   0.143  16.734 -0.0805 -0.1808 -0.0713
27948W        W44422   5.746  15.141   1.977  0.0011 -0.0784 -0.2524
27949W        W44423  14.244   4.387  13.195  0.0712  0.2529 -0.1374
27950W        W44424   1.810  12.361  11.558 -0.0139  0.0125 -0.1715
27951W        W44425  17.888  12.758   0.519 -0.0138 -0.1188 -0.0153
27952W        W44426   3.430   3.555  13.648  0.0599 -0.0021  0.1499
27953W        W44427   5.277   8.425  16.182  0.0477  0.0042 -0.2375
27954W        W44428   3.148   4.286   1.632 -0.0251 -0.1364  0.2102
27955W        W44429   6.972  10.640   3.264  0.0785 -0.1098  0.2530
27956W        W44430   0.943   8.349  10.805 -0.4998  0.0840  0.1263
27957W        W44431  13.671   2.706   0.346 -0.3844 -0.5700  0.1235
27958W        W44432  14.105   7.015   3.361 -0.1217 -0.0075  0.1463
27959W        W44433  12.640   6.330   5.959  0.0603 -0.0364  0.0075
27960W        W44434   5.083   6.778   3.969  0.1729 -0.1993  0.3422
27961W        W44435  13.143   4.874  14.769 -0.0782 -0.1167  0.0259
27962W        W44436  16.714  15.874   3.171  0.1454 -0.1748 -0.1717
27963W        W44437   5.725  17.142   1.946  0.0985  0.2951  0.1423
27964W        W44438   3.514   2.473   2.573 -0.0674  0.1290 -0.2226
27965W        W44439   1.384  11.960  13.829  0.1452  0.0892 -0.1861
27966W        W44440  16.243  15.696  12.308 -0.0937  0.0608 -0.1019
27967W        W44441   4.243  10.920  15.905  0.3073 -0.0239  0.0465
27968W        W44442   2.341   1.720  14.344  0.0132  0.3460 -0.0308
27969W        W44443   6.033   3.134   0.647 -0.0774 -0.1417  0.0844
27970W        W44444  13.900  11.768  12.571 -0.2916 -0.0121 -0.0877
27971W        W44445   7.788  11.592   5.842 -0.2248 -0.1715  0.0235
27972W        W44446   9.496  12.606  11.793  0.0772  0.1596  0.0601
27973W        W44447  14.337   1.367  15.669 -0.0916  0.0780 -0.0942
27974W        W44448   5.137  10.973  13.110 -0.0304 -0.0865  0.1935
27975W        W44449   1.727  11.157   2.268 -0.1037 -0.0763 -0.2238
27976W        W44450   8.040   7.654  13.744  0.0731 -0.0299 -0.0016
27977W        W44451   2.301  16.106  16.158 -0.1157 -0.0738  0.1290
27978W        W44452   7.693   8.249   4.711  0.0739  0.2011  0.0821
27979W        W44453  10.740   5.060   5.511 -0.1938  0.0408 -0.0227
27980W        W44454   3.318   8.253   2.008  0.1753  0.1387 -0.0581
27981W        W44455   0.377  16.642   2.389 -0.1196 -0.0681 -0.0788
27982W        W44456   6.826   0.970  14.590  0.1163 -0.3547 -0.0189
27983W        W44457  16.701   4.253   3.409 -0.0212  0.0711 -0.1339
27984W        W44458  12.489  14.961   3.288  0.1359  0.4340  0.0233
27985W        W44459   6.261   2.917   1.976 -0.3663 -0.0404 -0.1692
27986W        W44460   5.389   8.676  14.709 -0.3093  0.1724 -0.2437
27987W        W44461  14.267   3.189   3.977  0.0209 -0.0409 -0.0133
27988W        W44462  16.785   1.774   4.952  0.1582  0.1691  0.1249
27989W        W44463   5.115  13.602  12.212 -0.0241  0.1161 -0.2194
27990W        W44464  16.383   1.586  15.065  0.2253  0.2445 -0.0782
27991W        W44465   0.542   3.619   6.442  0.1682 -0.1131 -0.0436
27992W        W44466  16.033  10.865   3.585  0.1683  0.4140 -0.2717
27993W        W44467   6.408   5.991   0.506  0.0696  0.0816  0.1246
27994W        W44468   4.208  15.953  14.292 -0.0652  0.1178  0.2783
27995W        W44469   0.060   1.988   3.733  0.1069  0.0916 -0.2093
27996W        W44470  13.328  14.000   0.653  0.1070  0.0834  0.1487
27997W        W44471  13.259  17.957  14.154  0.0884  0.0768 -0.1292
27998W        W44472  11.801  15.100   2.040 -0.3321 -0.0575 -0.2483
27999W        W44473  14.840   7.912  14.785  0.4846 -0.1357  0.3459
28000W        W44474   6.547   5.378   5.333 -0.2224 -0.2653 -0.1751
28001W        W44475   6.457   1.928  14.695 -0.1288 -0.0354 -0.1514
28002W        W44476  11.875  12.792  14.655  0.2615 -0.4008  0.0151
28003W        W44477   3.082  16.453   0.301 -0.0380 -0.2231 -0.1009
28004W        W44478  14.864  10.173   2.003  0.1531  0.0793  0.0157
28005W        W44479  15.004  15.727  14.761 -0.1399  0.1541 -0.0524
28006W        W44480  12.414   7.153   3.807  0.1778  0.1308 -0.0190
28007W        W44481  14.684   3.069   3.272  0.0069 -0.1576 -0.2782
28008W        W44482  16.055   2.841  13.159  0.2516 -0.2983 -0.0127
28009W        W44483   5.133   1.307  11.941 -0.1047 -0.3854 -0.0300
28010W        W44484  10.812   4.907  12.626  0.0762 -0.1226  0.1501
28011W        W44485   0.239   9.568  12.686  0.2589 -0.0698  0.3074
28012W        W44486   3.121   8.028   4.712 -0.0432 -0.2572 -0.3007
28013W        W44487   7.513   9.378   4.721 -0.0088  0.0445  0.1831
28014W        W44488   8.845   5.508   0.876 -0.4146  0.1008 -0.3836
28015W        W44489   7.349   6.505  14.113 -0.2968 -0.1015  0.1475
28016W        W44490  11.717  15.049  13.052  0.2103  0.0508 -0.0407
28017W        W44491  12.998  13.321   0.093 -0.1226  0.0321  0.1585
28018W        W44492  12.326   9.592  13.133 -0.1631  0.3019  0.0587
28019W        W44493  11.319  12.872   1.686  0.1205  0.0257 -0.1743
28020W        W44494  15.776   1.997  12.052  0.3358 -0.0435 -0.1220
28021W        W44495  11.426   6.342  15.128 -0.0233  0.3777  0.1229
28022W        W44496  11.021   5.053  14.425  0.0668 -0.0616 -0.1960
28023W        W44497   9.352   7.891  14.501 -0.1387  0.0877  0.1653
28024W        W44498  11.996  13.172   5.239  0.1239  0.1712  0.0006
28025W        W44499   9.951  13.060   0.656  0.1744 -0.1505  0.0525
28026W        W44500  15.051  14.699   2.346  0.0488  0.2964 -0.0076
28027W        W44501  14.438  11.579   3.467  0.0483  0.0688 -0.0185
28028W        W44502   4.399  14.844  11.627 -0.3106 -0.0335  0.5809
28029W        W44503   9.837   9.277   4.329 -0.3021  0.1102 -0.1485
28030W        W44504   1.081   8.337  14.298 -0.1300  0.0017  0.0021
28031W        W44505  16.158   1.355   6.207 -0.2269  0.5292  0.0048
28032W        W44506   8.849  12.297  14.722 -0.0017 -0.2599 -0.0030
28033W        W44507  12.807   3.202  14.974 -0.1466  0.2140  0.4192
28034W        W44508  10.727   6.795   5.816  0.1185 -0.3414  0.2746
28035W        W44509  13.451   4.238   0.305 -0.2940 -0.1069  0.1488
28036W        W44510  10.749   4.624  15.200  0.0876 -0.0259 -0.1314
28037W        W44511  16.029   4.922  16.111 -0.2561 -0.0198  0.1034
28038W        W44512   1.263  11.344   3.155  0.0678  0.2127  0.0291
28039W        W44513   4.286   5.942  11.956  0.0688  0.2567  0.0355
28040W        W44514  15.580   7.686  11.742  0.1717  0.0039  0.0083
28041W        W44515  13.505  10.372  16.249 -0.1629 -0.0674  0.2307
28042W        W44516  13.719  13.878   2.788  0.0199 -0.2744  0.1506
28043W        W44517   8.809  17.167  15.334  0.1469  0.0241  0.0122
28044W        W44518   6.233  13.294  14.015 -0.2183  0.2190 -0.2117
28045W        W44519   9.040  16.316  16.779  0.2116 -0.0628 -0.0650
28046W        W44520   9.489  13.266   4.484 -0.0880  0.2829  0.4604
28047W        W44521  16.975   0.488  15.726  0.1708  0.3836  0.1466
28048W        W44522  14.485  14.620   3.126  0.0305  0.0805 -0.0725
28049W        W44523   7.284  12.265   1.242  0.2994  0.2387  0.1839
28050W        W44524   7.109   5.211   4.482  0.0693  0.3655 -0.2491
28051W        W44525   2.165  17.778  15.755 -0.2930 -0.3043  0.2270
28052W        W44526   1.403  11.022  11.647  0.1922  0.1392  0.0169
28053W        W44527  11.798  10.799  16.485 -0.0959 -0.0873 -0.3906
28054W        W44528   2.885  10.274   1.815 -0.1744  0.0869 -0.2815
28055W        W44529   9.330   0.724   0.259  0.1874  0.3491 -0.0125
28056W        W44530  14.281   7.272  13.700  0.3632  0.2734  0.1074
28057W        W44531  14.543   7.998  14.186  0.1504  0.0203 -0.1240
28058W        W44532  10.755   6.598   4.436 -0.0906 -0.3650 -0.0011
28059W        W44533   6.176   6.883  13.965 -0.1134  0.0255  0.1285
28060W        W44534   2.324   9.938  12.812 -0.4203 -0.1325 -0.1345
28061W        W44535   2.049   7.488   4.207  0.1133  0.2723  0.0396
28062W        W44536  16.386   4.582  15.240  0.2786  0.2390 -0.0031
28063W        W44537   0.976  17.590  15.304 -0.2018 -0.0765 -0.0130
28064W        W44538  16.124  12.509  11.025  0.2780 -0.0875  0.0454
28065W        W44539   7.849  16.293  11.662 -0.0937  0.0330  0.0629
28066W        W44540  14.908   8.133  13.459  0.4067 -0.3018 -0.0072
28067W        W44541   1.210  16.875  13.647  0.1103  0.1701  0.1144
28068W        W44542  11.687   1.238   2.887  0.2651  0.0049 -0.0615
28069W        W44543   0.495   1.742   2.068  0.2230 -0.1442  0.0295
28070W        W44544   3.830  15.806   0.324 -0.1121 -0.2501 -0.0814
28071W        W44545  17.431  12.623   1.801 -0.1146 -0.1420 -0.1037
28072W        W44546   4.963   5.917  16.168 -0.1124 -0.3200 -0.6494
28073W        W44547  10.907   8.835   2.525  0.0688 -0.0104 -0.1415
28074W        W44548   2.880   5.694  12.932  0.0209 -0.2431 -0.0791
28075W        W44549  17.700   8.487   1.275 -0.0577 -0.1404  0.2825
28076W        W44550  10.978   0.247   3.485 -0.0648 -0.1852  0.1457
28077W        W44551  10.201  13.118  15.328 -0.0547 -0.3131  0.3483
28078W        W44552   9.032   8.585  12.734 -0.2559  0.1312  0.1966
28079W        W44553   8.163   9.453  12.179 -0.0860 -0.2452  0.0222
28080W        W44554  17.769   0.055   1.730  0.2049 -0.2829 -0.0582
28081W        W44555   4.544   9.213   0.824 -0.0759 -0.0303 -0.1226
28082W        W44556   8.519   0.856  12.945  0.0269  0.0635  0.3565
28083W        W44557  11.947   1.549  16.362  0.1945 -0.2306 -0.1947
28084W        W44558   9.252  16.472  14.101 -0.2603 -0.1624 -0.5186
28085W        W44559  17.920   0.013   1.273  0.0898 -0.3167  0.1210
28086W        W44560   7.459  14.965  11.648 -0.1867 -0.2719  0.0257
28087W        W44561  13.115  13.824   0.075 -0.1113 -0.3201 -0.4016
28088W        W44562   3.237  13.662  14.849  0.1106 -0.0756  0.1173
28089W        W44563  11.815  13.690   5.264 -0.2125  0.0684  0.0649
28090W        W44564  15.250   2.819  11.848  0.1739 -0.2578  0.1939
28091W        W44565   6.541  13.655   0.138 -0.1505 -0.1929  0.2088
28092W        W44566   0.655   7.343   2.534 -0.2405 -0.1716  0.0050
28093W        W44567   0.221  14.262   0.472  0.0807 -0.0819  0.2127
28094W        W44568  15.936   9.934  15.557 -0.2131 -0.2690 -0.0575
28095W        W44569   0.408   6.374  16.354  0.1374 -0.0598  0.2547
28096W        W44570   9.476   3.446   0.643 -0.2045 -0.2611  0.3387
28097W        W44571   6.800   1.209  13.467 -0.1580 -0.0045  0.3222
28098W        W44572   4.838  17.927  12.288  0.3504 -0.0699 -0.1223
28099W        W44573   3.822  12.771  14.881 -0.3678  0.0083 -0.3278
28100W        W44574  10.790   0.353   6.071  0.1964 -0.4534 -0.0080
28101W        W44575  15.193  13.093   2.799  0.0057  0.1550  0.0124
28102W        W44576   4.650  11.865  13.948 -0.0581  0.1814 -0.0337
28103W        W44577   8.922  14.389  16.759 -0.2555 -0.1659  0.1266
28104W        W44578  15.969  17.802  15.726  0.1039  0.2405  0.3834
28105W        W44579   4.707  10.723   1.958  0.0594  0.0615 -0.1515
28106W        W44580  14.873  14.111   1.437 -0.1666  0.0090  0.2522
28107W        W44581   7.923   0.145   5.424  0.0323  0.0383 -0.2851
28108W        W44582   9.159  12.858   3.496  0.0949 -0.2105  0.1642
28109W        W44583  12.591  10.524   1.234  0.1377  0.0945  0.1862
28110W        W44584   9.179   7.096  13.859 -0.1009 -0.1037  0.0913
28111W        W44585  17.998   4.615   2.248 -0.1722  0.0314  0.1744
28112W        W44586  11.823   9.674  14.637 -0.0304  0.2502  0.0724
28113W        W44587  11.044   1.277  13.209  0.4034  0.1460 -0.3761
28114W        W44588   6.283   8.430  16.304 -0.0877 -0.0833  0.1425
28115W        W44589   0.796  13.295  13.082 -0.0361  0.1261 -0.4488
28116W        W44590  17.312  12.710  12.457  0.1632 -0.2028  0.1483
28117W        W44591  13.549   2.760   3.746 -0.3066  0.0161  0.1628
28118W        W44592  12.120   1.902   3.433  0.1163  0.3046  0.3051
28119W        W44593  12.689   2.930  13.487  0.2199 -0.0211 -0.0635
28120W        W44594   1.508   3.051  15.061  0.1178  0.0321 -0.2296
28121W        W44595  13.893   0.354   5.281 -0.0983  0.0854  0.0714
28122W        W44596  16.034   7.575   5.388  0.1698 -0.2110  0.1767
28123W        W44597  10.814   5.603  16.376  0.2548 -0.0079  0.0171
28124W        W44598  10.590   4.431  11.456 -0.1112  0.0846  0.0365
28125W        W44599   1.484   6.939   1.716  0.2375 -0.1338 -0.1217
28126W        W44600  10.489   1.226  14.305  0.3267  0.1228  0.0361
28127W        W44601  10.767  12.261  15.152  0.1029  0.0272 -0.0681
28128W        W44602   8.177  15.689  15.120  0.3224  0.1473 -0.1969
28129W        W44603  13.558   3.470   4.549 -0.0894  0.0341 -0.1003
28130W        W44604   9.718  14.820  12.338 -0.1828 -0.0250  0.1621
28131W        W44605   0.512  10.461   4.997  0.0627  0.0351  0.0581
28132W        W44606   8.226  13.845  16.587 -0.0083  0.1171  0.0129
28133W        W44607  12.495  12.481  12.891 -0.5674  0.1744  0.0372
28134W        W44608  17.807   9.783  12.599  0.1521 -0.3278  0.0766
28135W        W44609   2.208  15.588   3.461 -0.2173  0.1439 -0.3710
28136W        W44610   1.718   8.828   3.170 -0.0142  0.0445  0.2085
28137W        W44611   1.318  10.645  14.801 -0.0520 -0.0756 -0.2784
28138W        W44612   7.031   7.643   3.720  0.0432  0.1048 -0.0009
28139W        W44613  13.329   2.286   5.869  0.1485  0.0972 -0.0917
28140W        W44614  13.859   6.936  13.526  0.1010  0.1217  0.3128
28141W        W44615   4.380   3.566   3.056  0.1379 -0.0805 -0.2736
28142W        W44616  17.333  16.218   4.931 -0.4108 -0.2281  0.1444
28143W        W44617   6.138   7.817   1.244 -0.0421 -0.1099 -0.2033
28144W        W44618  17.365   3.966   1.982  0.4317  0.0882  0.2829
28145W        W44619   7.215  10.649   5.310 -0.2479  0.0705  0.1787
28146W        W44620   5.502   2.866   2.007 -0.0721  0.1544 -0.0744
28147W        W44621  14.463   5.014   5.808  0.1645  0.1425  0.1381
28148W        W44622   1.918   2.502   1.020  0.1443  0.2024  0.0957
28149W        W44623  13.005   6.148  11.959 -0.0431 -0.4424  0.0899
28150W        W44624  12.468   4.900  16.073  0.0372  0.2017  0.0241
28151W        W44625   7.523  11.715   3.543  0.0417 -0.2893  0.0857
28152W        W44626  17.899  16.302  13.917 -0.5138  0.1059 -0.0521
28153W        W44627   2.132   6.071   4.022 -0.1646 -0.0886  0.1610
28154W        W44628  14.037   1.708   5.112 -0.2325 -0.1679 -0.0971
28155W        W44629  13.995   3.920   1.916  0.1434 -0.2579  0.2835
28156W        W44630   1.939  17.699   2.285 -0.2629  0.2417 -0.0251
28157W        W44631  10.571   2.954  11.933 -0.1945  0.3208 -0.2735
28158W        W44632   3.278  15.368   3.786  0.0455 -0.1297  0.1300
28159W        W44633   4.330   4.068   0.485  0.1056  0.2474  0.0189
28160W        W44634  15.278  13.556   5.787  0.4882 -0.1828  0.1068
28161W        W44635   5.399   8.551   3.340  0.1678 -0.1094 -0.0360
28162W        W44636   6.445   3.329   0.832  0.0703  0.0665 -0.4141
28163W        W44637   1.372   6.232   3.963 -0.4502 -0.0312  0.0683
28164W        W44638   6.995   3.865  15.727 -0.0894 -0.0666 -0.1697
28165W        W44639   7.943  11.095  11.995  0.0284  0.0511  0.0118
28166W        W44640  12.319  10.874   3.889  0.2945  0.0828 -0.1725
28167W        W44641   9.887  17.361   2.133 -0.0921  0.0652  0.2087
28168W        W44642   6.147   1.822  11.915 -0.0018  0.2255  0.0728
28169W        W44643  14.577   3.513   5.148  0.2488  0.0488 -0.0427
28170W        W44644   3.508  17.206   2.714 -0.0918 -0.1148 -0.2150
28171W        W44645   9.543  15.007   3.425  0.0361 -0.2808  0.3231
28172W        W44646   1.185   4.042   2.146 -0.0828  0.1304  0.2332
28173W        W44647   9.416  17.626   0.555 -0.0624  0.1456  0.2000
28174W        W44648   1.317   3.561   2.281 -0.3015  0.4349 -0.3751
28175W        W44649  10.765   8.041   3.604 -0.2279  0.2726  0.1707
28176W        W44650  17.498  11.568  14.135  0.0028  0.1904 -0.3428
28177W        W44651   5.058   9.530   1.796 -0.0525  0.3392 -0.1714
28178W        W44652   0.125   5.061   3.671 -0.1221  0.2216 -0.0513
28179W        W44653   5.997   7.680   0.790 -0.2968 -0.0620  0.1934
28180W        W44654  12.170   5.215  14.567  0.1883 -0.3992  0.1479
28181W        W44655  11.819  12.156  13.980  0.0229  0.1691 -0.1392
28182W        W44656  12.123   9.950  11.920 -0.1570  0.0931 -0.0116
28183W        W44657  11.193   9.386  12.339  0.0561  0.2165 -0.0137
28184W        W44658  14.494   9.811   4.536 -0.1160  0.1080 -0.0171
28185W        W44659  10.999   6.273   4.759  0.1409 -0.3932  0.0821
28186W        W44660  12.448   6.327  13.692  0.1945  0.0232 -0.1134
28187W        W44661  10.560   2.032   2.978  0.1244 -0.4147  0.0625
28188W        W44662  14.320  12.789  14.540  0.3838 -0.1302 -0.5799
28189W        W44663   4.035   8.950   4.040 -0.0369 -0.0325  0.1785
28190W        W44664  16.882   6.008  15.515 -0.0281 -0.0082 -0.0575
28191W        W44665   8.891  14.024   3.429  0.0821  0.0938 -0.3713
28192W        W44666  11.790   5.868   2.560 -0.2684 -0.1631 -0.0172
28193W        W44667   3.838  12.048   3.710  0.1113  0.0295  0.0284
28194W        W44668   0.083   0.318   4.169  0.1115 -0.2160 -0.3394
28195W        W44669  15.820  12.401   5.531 -0.3364 -0.0861  0.1903
28196W        W44670   0.317   7.230  12.023  0.0674 -0.1155  0.1335
28197W        W44671  11.831   0.987  12.391 -0.1010  0.2251  0.3053
28198W        W44672   7.735  10.621  13.765 -0.2278 -0.0242 -0.0036
28199W        W44673  12.537   1.836  12.903  0.1366 -0.1497 -0.1749
28200W        W44674   1.823   5.246   2.857  0.2141  0.0133 -0.0553
28201W        W44675   9.394   0.527   3.547  0.1265  0.2116  0.1209
28202W        W44676  16.947  17.954   1.445  0.0088 -0.2405  0.1252
28203W        W44677  15.419   0.104   5.788  0.2030 -0.1912 -0.1904
28204W        W44678  13.678  12.049   3.798  0.0286 -0.0359 -0.1578
28205W        W44679   6.122   4.882  12.338 -0.1476 -0.0963  0.0586
28206W        W44680   6.457   5.145   3.863 -0.0449 -0.0748  0.0290
28207W        W44681   4.141  16.131   0.601  0.0784 -0.1508  0.0635
28208W        W44682  16.517  16.788  14.067 -0.0013 -0.1615  0.1938
28209W        W44683  13.566   4.148  14.218  0.0708 -0.1009  0.2743
28210W        W44684   7.167   2.143  15.972  0.1566 -0.0139 -0.3218
28211W        W44685   4.398  15.766  14.773 -0.2963  0.0594  0.2455
28212W        W44686   8.331  14.329  12.596 -0.1386  0.2111  0.0447
28213W        W44687  17.489   3.434  13.147  0.0761  0.4745  0.1521
28214W        W44688   8.962   0.100  14.144 -0.2931 -0.2920  0.0936
28215W        W44689   4.163   6.637   4.601 -0.0360  0.0545 -0.3899
28216W        W44690   8.167   4.733   2.646 -0.0153 -0.1343  0.0640
28217W        W44691   9.521   3.842   2.551  0.0634  0.2330  0.0861
28218W        W44692  13.635  14.346  13.880  0.0906 -0.1120  0.1199
28219W        W44693  10.981   0.414   2.415 -0.0959 -0.0550  0.0021
28220W        W44694   6.242  14.009  10.968 -0.2341  0.3227  0.2539
28221W        W44695  16.094  15.776  11.641 -0.1903 -0.0464 -0.2174
28222W        W44696   8.310   6.861  15.816  0.1249  0.0694 -0.0252
28223W        W44697   2.625  12.328  16.231 -0.2387  0.2040  0.1063
28224W        W44698  16.283  11.095  13.801 -0.1379  0.1850  0.1685
28225W        W44699  12.741  17.610  15.235  0.1289 -0.1437  0.1519
28226W        W44700   4.990   5.235   4.384  0.2630  0.1227  0.0519
28227W        W44701  12.630   7.410   1.381 -0.2347  0.1699 -0.3266
28228W        W44702   0.480  13.300  16.709 -0.1378  0.0703  0.0321
28229W        W44703   6.961  17.888  13.191 -0.1870 -0.1971  0.2220
28230W        W44704  11.180  12.997   0.238 -0.2649 -0.2031 -0.2043
28231W        W44705  13.764  10.239   5.728 -0.0678  0.1019  0.0523
28232W        W44706   9.498  16.416  15.059  0.2994  0.1094  0.0422
28233W        W44707   1.472   2.981   4.353  0.1020 -0.3957  0.2706
28234W        W44708   0.695  10.244   0.523 -0.0779  0.0347 -0.0860
28235W        W44709  16.452  15.005  14.665  0.0103 -0.0444  0.4061
28236W        W44710   0.465  12.841   0.804 -0.0655 -0.3440 -0.0470
28237W        W44711  16.798   7.875   3.121  0.0708 -0.1753 -0.1339
28238W        W44712   0.100   8.864   5.472  0.2502 -0.1856  0.3124
28239W        W44713  17.352  17.438  15.325  0.0880  0.1552 -0.0212
28240W        W44714   6.310  15.878  14.996  0.2133 -0.1700 -0.0986
28241W        W44715   8.880   1.324  11.771 -0.0787  0.0800  0.1395
28242W        W44716  11.204  10.673   1.826  0.0887  0.0842 -0.1801
28243W        W44717  11.925  13.440   5.645 -0.1229  0.2013  0.2308
28244W        W44718  10.214  16.126  13.589 -0.0368 -0.1863 -0.0653
28245W        W44719  16.322  13.367  15.378  0.3200  0.1495 -0.1610
28246W        W44720  17.702  16.736  13.826  0.1390  0.0092 -0.0994
28247W        W44721  15.285   2.148  13.300  0.1774  0.1888  0.2972
28248W        W44722   8.413   5.373  12.979 -0.1119  0.1508 -0.1696
28249W        W44723   5.259  17.138   1.123 -0.1864  0.0013  0.0390
28250W        W44724   7.727   2.616  15.278 -0.0321  0.1693 -0.0409
28251W        W44725  15.367  14.976   1.077 -0.1048 -0.0098 -0.0135
28252W        W44726   9.983  17.919   3.712 -0.1093  0.0505  0.2791
28253W        W44727   4.660  12.095  12.188  0.1370 -0.1055  0.0966
28254W        W44728  11.827  16.955  13.853  0.2919  0.0406 -0.5766
28255W        W44729   2.107   1.135  16.596 -0.0551 -0.2188 -0.1133
28256W        W44730  11.240  10.955  13.304 -0.0790  0.2048  0.2015
28257W        W44731  11.424  15.076   5.980  0.0254 -0.0713 -0.0031
28258W        W44732  16.661   0.923   3.024 -0.1523  0.1962  0.0890
28259W        W44733   0.091   8.291   1.580 -0.1240 -0.0921  0.0172
28260W        W44734   6.204   0.990  14.086 -0.2325  0.0752 -0.0427
28261W        W44735  16.235  14.423  13.265  0.2339  0.0239 -0.1257
28262W        W44736  17.704   1.924   5.510 -0.1066 -0.0123 -0.0432
28263W        W44737  16.832   6.087   5.041 -0.0564 -0.0914 -0.0468
28264W        W44738   1.976  10.176   6.076  0.0691  0.0425  0.1415
28265W        W44739  16.257   5.745   0.067  0.2598  0.2708 -0.1861
28266W        W44740   6.824   7.351   0.638 -0.0094 -0.0671  0.1711
28267W        W44741   8.201  17.667   5.665  0.1347 -0.0550 -0.2324
28268W        W44742  14.051  15.984   4.667  0.0190  0.2659  0.0787
28269W        W44743   4.021   9.058  15.735  0.0026 -0.3141 -0.3743
28270W        W44744  12.228  10.105  14.486 -0.2975 -0.3041  0.2722
28271W        W44745   0.997  10.645   0.310  0.1322  0.0165  0.2526
28272W        W44746   6.686   8.423   5.914  0.1614  0.3158 -0.0769
28273W        W44747   1.816  11.727  14.019 -0.3186  0.2292 -0.1705
28274W        W44748  14.477  13.184  14.233 -0.3326 -0.0903 -0.0209
28275W        W44749   6.998  17.886  15.435 -0.0139 -0.1644 -0.1472
28276W        W44750   6.786   0.295   3.713  0.0127  0.0668  0.2020
28277W        W44751   3.749  10.441   2.108  0.0567 -0.1277  0.3034
28278W        W44752  16.345  15.449  13.908  0.0647 -0.0848 -0.2989
28279W        W44753   1.799  12.543   2.849 -0.1781 -0.0671  0.0823
28280W        W44754  14.123  12.926  11.846  0.1600  0.0411  0.2636
28281W        W44755   6.220  15.000  12.670 -0.0117  0.0698  0.0438
28282W        W44756  17.850   9.348   4.700 -0.1224  0.1249 -0.0190
28283W        W44757   3.457   7.935  14.939 -0.3057 -0.1543  0.1758
28284W        W44758  10.653   3.099   1.221  0.1142 -0.2600 -0.0409
28285W        W44759   9.056  11.306   3.341 -0.1042  0.0186  0.1650
28286W        W44760  16.066  15.221   0.465  0.2565  0.0976 -0.3067
28287W        W44761   0.223   4.765  15.366 -0.1684 -0.0384  0.2075
28288W        W44762  11.916  14.266  15.820  0.1325  0.0251  0.1044
28289W        W44763  12.946  11.436   0.913 -0.2267  0.3074  0.0258
28290W        W44764   7.127  10.553  12.477  0.1845  0.0021 -0.1401
28291W        W44765   2.315   7.950  16.284  0.4613  0.1485  0.0385
28292W        W44766  15.723   9.343  12.680  0.3272 -0.2257 -0.3112
28293W        W44767   5.004  14.614   5.314  0.2426 -0.0794  0.0304
28294W        W44768   2.241   5.812  12.024 -0.0413 -0.2596 -0.1367
28295W        W44769  11.583   3.760  12.104  0.2266 -0.0622  0.0419
28296W        W44770  12.211   3.987  16.098 -0.0706  0.1146  0.0523
28297W        W44771   0.461  12.687  15.961  0.2185  0.1057  0.3567
28298W        W44772   6.089   2.855   3.487  0.0395 -0.1101 -0.1346
28299W        W44773  11.623  10.400  16.725 -0.1979 -0.2018 -0.2537
28300W        W44774   5.573  10.409   0.762  0.1501 -0.0447 -0.0278
28301W        W44775  16.835   4.377  13.961 -0.0327  0.3357  0.0063
28302W        W44776  17.375   6.179   3.602 -0.2055  0.1249  0.1742
28303W        W44777  16.420   7.257  15.256 -0.2355 -0.1455 -0.0376
28304W        W44778  14.652  15.784   4.897  0.0395 -0.1373  0.0805
28305W        W44779   3.562  10.014   2.302 -0.4440 -0.2439 -0.0049
28306W        W44780  12.924  10.632   5.401  0.1720  0.2918 -0.1602
28307W        W44781   4.548   1.152   3.899  0.0826  0.1789  0.0038
28308W        W44782  14.156  12.398   0.753 -0.0535  0.0708 -0.1316
28309W        W44783  16.791   1.643  12.487 -0.1844 -0.1113 -0.2002
28310W        W44784  10.093  17.890  16.215 -0.0333  0.1394 -0.0130
28311W        W44785   8.903  10.700  14.069  0.1318 -0.0650 -0.1377
28312W        W44786   3.688  11.751  15.911  0.0978  0.0161  0.1195
28313W        W44787  13.079   3.791  14.862 -0.1122  0.0509 -0.0369
28314W        W44788   8.337  13.788  12.522  0.0089 -0.0058 -0.0298
28315W        W44789   0.071   1.533  11.877 -0.1028  0.2295 -0.1814
28316W        W44790   0.323   4.248   5.811  0.1021  0.3170  0.1522
28317W        W44791   1.038   0.930  14.692  0.1178 -0.0358  0.0640
28318W        W44792   7.460   1.897  13.191 -0.1726 -0.0674 -0.0545
28319W        W44793   7.470   3.306  13.862  0.0383 -0.0639  0.0958
28320W        W44794  14.765   7.344   5.686 -0.1442  0.0987  0.1043
28321W        W44795  12.180   0.027  16.654 -0.1262 -0.4373  0.1791
28322W        W44796  15.589  15.868   0.104 -0.0528  0.1000 -0.3679
28323W        W44797  14.929   4.687  14.056 -0.0237  0.2476 -0.1183
28324W        W44798   5.915   3.273  16.366 -0.3544  0.2606 -0.1788
28325W        W44799   2.661  11.060   4.363  0.1521  0.2272  0.0511
28326W        W44800   7.012  16.986  13.451  0.3492 -0.0986 -0.0491
28327W        W44801   0.236   2.495   4.378 -0.2404  0.0239  0.1041
28328W        W44802  12.835  17.870   4.232  0.0389 -0.2256 -0.2507
28329W        W44803  14.085  17.771   2.282 -0.4397  0.3094 -0.2096
28330W        W44804  17.943   6.040   2.154 -0.1293  0.2290 -0.2378
28331W        W44805  14.683   9.745   2.077 -0.0267 -0.2186  0.0396
28332W        W44806   4.049  17.689  15.048 -0.0532 -0.0201  0.0338
28333W        W44807  14.041   6.197  12.421  0.0524 -0.1562 -0.0994
28334W        W44808   7.863   2.000   5.380 -0.1577 -0.0487 -0.2964
28335W        W44809   9.483  15.947  14.615 -0.2310  0.0081  0.0286
28336W        W44810   9.694  11.423  13.240 -0.1788  0.3524 -0.1905
28337W        W44811   1.891   1.457  14.286 -0.1050 -0.1704 -0.0787
28338W        W44812   2.008   8.221  13.867  0.4014 -0.1446  0.0363
28339W        W44813   5.862   4.627   2.488 -0.2002 -0.0948 -0.1135
28340W        W44814  17.948  12.490  11.576 -0.1865  0.0787  0.0908
28341W        W44815  11.243  15.340   5.524  0.2011  0.5882 -0.0551
28342W        W44816   8.487  13.927  16.046  0.0908  0.0990  0.2243
28343W        W44817  13.455  11.373   0.584 -0.1302 -0.0591 -0.0316
28344W        W44818  12.514  10.795  12.795 -0.1594  0.2881  0.0371
28345W        W44819  14.403   4.440   0.509 -0.1841 -0.0185  0.0196
28346W        W44820   5.502   3.573  15.601  0.0781 -0.1192 -0.2019
28347W        W44821   1.744   2.416   3.662 -0.1327  0.1766 -0.2758
28348W        W44822   5.555   3.051  13.627  0.1670  0.3766  0.0920
28349W        W44823  15.961   0.716  15.301 -0.3582  0.0553 -0.1248
28350W        W44824  17.831   4.504  12.766  0.2024  0.1562  0.1000
28351W        W44825   4.297  17.039  16.394  0.1014 -0.2368  0.1819
28352W        W44826  12.267   0.237   1.429  0.3183 -0.3510  0.0699
28353W        W44827   1.936   3.212   0.561  0.0732 -0.0916 -0.1385
28354W        W44828  11.551   1.890  12.180 -0.4654 -0.0989 -0.0635
28355W        W44829  16.618   6.301   0.288  0.0194 -0.0249 -0.2426
28356W        W44830   4.085   4.532  12.607 -0.1760 -0.3441 -0.3132
28357W        W44831  17.151   5.042  16.572 -0.0334 -0.3227  0.1635
28358W        W44832  13.673   2.522   1.134 -0.1141  0.0053 -0.3028
28359W        W44833  14.683  16.862  13.969  0.1560 -0.1237  0.2151
28360W        W44834   1.051  10.189   3.491  0.1459  0.0858  0.0210
28361W        W44835   5.063   8.051  15.907 -0.0993  0.0130 -0.1774
28362W        W44836  11.065  14.875   5.488 -0.1088 -0.0483  0.2977
28363W        W44837   9.053  16.937  12.033 -0.2004  0.0267 -0.1870
28364W        W44838   9.885   6.254   4.994  0.1687 -0.1030  0.0243
28365W        W44839  17.215   0.206  13.708 -0.0038  0.1852 -0.0760
28366W        W44840   6.449   0.959   0.414 -0.3061 -0.1396 -0.1678
28367W        W44841   5.206   5.211   5.753  0.1444  0.1235  0.0189
28368W        W44842   7.055   8.649   6.281 -0.5213  0.0160  0.2021
28369W        W44843  17.010   7.498  13.290 -0.2657 -0.2271  0.0297
28370W        W44844  17.840   6.822   1.560  0.0926  0.0012  0.2742
28371W        W44845  13.867  16.757   2.130 -0.0038  0.1305 -0.1875
28372W        W44846  13.997  10.149   3.813 -0.3030 -0.0289  0.1452
28373W        W44847  16.576   3.462   4.004  0.0864  0.0663 -0.3540
28374W        W44848  11.937   7.261   0.675 -0.0118  0.2518 -0.1942
28375W        W44849  11.731   7.573  14.206 -0.3224 -0.0678  0.1018
28376W        W44850  17.625  15.376   1.077  0.2110 -0.0793  0.1747
28377W        W44851  14.750   3.272  13.747  0.0244  0.0591  0.2301
28378W        W44852   9.994   7.676   4.937  0.2281 -0.2370  0.2985
28379W        W44853   5.209   0.246  14.836 -0.1229 -0.0551  0.0855
28380W        W44854  10.208   9.002  14.720 -0.1276  0.1990 -0.1325
28381W        W44855   7.904   3.041   4.743 -0.0553  0.1079 -0.2609
28382W        W44856   2.221  12.624  16.109  0.0532 -0.0425 -0.0759
28383W        W44857  12.877   4.081   2.407  0.2721  0.0228  0.0147
28384W        W44858   3.136   4.572   6.098  0.0701  0.0220  0.3429
28385W        W44859   6.576   9.321  13.848 -0.1727 -0.3846 -0.0230
28386W        W44860   8.312  11.915   0.091 -0.3316  0.1876  0.0857
28387W        W44861  16.005  10.713  13.044  0.2143  0.0055 -0.0794
28388W        W44862   3.166   3.890  13.379 -0.1865  0.0854 -0.1272
28389W        W44863  16.485   3.430   3.449 -0.1388 -0.0956 -0.2426
28390W        W44864   6.554  13.828   2.172 -0.1942  0.0917  0.0191
28391W        W44865   7.398  10.365  10.830 -0.1163  0.2725 -0.0577
28392W        W44866   9.201  17.370   3.306  0.0033  0.2436  0.0096
28393W        W44867   8.899   0.803  11.897 -0.1899 -0.1528 -0.0115
28394W        W44868  14.674  10.428  11.988  0.0659  0.2470  0.2279
28395W        W44869   0.763   7.752   1.496  0.0043  0.1507  0.1037
28396W        W44870   8.122   4.751  15.241  0.0209  0.1083  0.1752
28397W        W44871   3.217   1.298   0.866  0.1655 -0.0467  0.1145
28398W        W44872   1.599  10.768   5.769 -0.2197  0.1057  0.0905
28399W        W44873   1.537  12.825   0.570 -0.1262 -0.0303 -0.0902
28400W        W44874  13.332  15.561  13.073  0.0223  0.1146  0.2009
28401W        W44875  11.780  10.738  11.607 -0.0306 -0.3558  0.1267
28402W        W44876  14.525   2.616   4.660  0.1136  0.0148 -0.0690
28403W        W44877  10.596  16.880   2.473 -0.1268  0.2772  0.1760
28404W        W44878  16.236  15.517  16.381  0.0695  0.0995  0.3733
28405W        W44879   5.030   2.223   3.579  0.0596  0.0062 -0.1416
28406W        W44880   7.475   7.245  16.452 -0.1740 -0.1260  0.1094
28407W        W44881   4.805   0.315   6.174 -0.1940 -0.0029 -0.0993
28408W        W44882  12.441   7.911  14.008  0.0680  0.2491  0.2502
28409W        W44883   3.813  11.209   5.144 -0.0672  0.2019 -0.1237
28410W        W44884  17.638   2.585  14.802 -0.4640  0.0226  0.1575
28411W        W44885   8.164   6.484  16.199  0.2285  0.0082  0.1112
28412W        W44886  15.372  17.597  13.779  0.1558 -0.1731  0.1390
28413W        W44887  15.610   5.310  12.493 -0.0417 -0.0569  0.1102
28414W        W44888  16.753  12.904   0.192 -0.0793  0.1014  0.0213
28415W        W44889  10.799   4.088  13.856  0.3670 -0.3248  0.2743
28416W        W44890   5.915   7.350   3.403 -0.4315  0.1032 -0.2840
28417W        W44891  12.981   8.601   1.536 -0.1221  0.4113 -0.0892
28418W        W44892  13.641   8.595  11.758  0.0804 -0.1974 -0.1208
28419W        W44893  15.145  16.743   3.911  0.1206 -0.0917 -0.0068
28420W        W44894  13.827  11.051  15.350  0.1548  0.0124 -0.1437
28421W        W44895  13.269  12.905  11.578  0.1166 -0.3088 -0.1822
28422W        W44896  12.006   9.318   2.176 -0.2775  0.0328  0.2563
28423W        W44897  15.476   6.917  12.233  0.2628  0.2888 -0.0695
28424W        W44898   2.332   8.664  14.521 -0.0906 -0.2975 -0.0670
28425W        W44899   6.022  10.725  13.043  0.1565  0.1286 -0.1233
28426W        W44900  14.327  13.231   4.014  0.0082 -0.0092  0.1658
28427W        W44901   0.499  14.954  11.104  0.2322  0.3308  0.0074
28428W        W44902   5.347   6.416  14.664 -0.0161 -0.3804 -0.0486
28429W        W44903   5.960  12.524   2.783 -0.2787 -0.1405  0.4945
28430W        W44904   8.824   8.964  13.618 -0.1450 -0.2052 -0.2311
28431W        W44905   7.089   1.064   5.886  0.2323  0.1922  0.0893
28432W        W44906   7.328  13.607  14.766  0.3700 -0.1500 -0.0935
28433W        W44907   7.011  11.569   0.331  0.1545  0.1356 -0.0500
28434W        W44908  15.668   2.059  14.389 -0.0181  0.1852  0.0111
28435W        W44909  14.657  17.594   6.237  0.1912 -0.1736  0.2746
28436W        W44910  14.768   0.508  12.071  0.0721  0.2461 -0.3924
28437W        W44911   0.367  12.134   4.229  0.1167  0.1393  0.4031
28438W        W44912   3.334  16.401  13.321  0.1566  0.1618  0.2629
28439W        W44913  10.664  14.547  10.581  0.0136  0.0076 -0.2069
28440W        W44914   4.431  17.701  11.192 -0.0649  0.2309  0.2965
28441W        W44915   6.970   4.475  11.336  0.1434 -0.2089 -0.1080
28442W        W44916  16.161   6.211  13.009  0.0847 -0.0962  0.1962
28443W        W44917   3.747  10.901  12.813  0.0734 -0.0558 -0.3291
28444W        W44918  14.156   8.443   3.501 -0.2192  0.0091 -0.1231
28445W        W44919   0.177  15.591  16.002 -0.1264 -0.0791  0.3697
28446W        W44920   4.951   0.264   1.822  0.0322  0.2789  0.2372
28447W        W44921   4.248  11.601   4.587 -0.0195  0.0731  0.2833
28448W        W44922  15.942   5.652   2.789 -0.1380  0.2002  0.0941
28449W        W44923   8.103   8.045   0.489 -0.1513  0.0909  0.0076
28450W        W44924   7.567  15.778   5.810  0.0810 -0.0626  0.1085
28451W        W44925  11.395   3.229   1.880  0.0607 -0.3760 -0.2964
28452W        W44926   7.927  17.525   4.561  0.0438 -0.1386 -0.1996
28453W        W44927  16.080  16.020   0.101  0.0877 -0.3342  0.0691
28454W        W44928   5.519  15.682   0.312 -0.1864  0.0827 -0.1087
28455W        W44929  17.331   1.650  13.144 -0.1326  0.1635  0.4440
28456W        W44930   9.487   4.441   3.443 -0.0230 -0.0733 -0.2282
28457W        W44931   7.209  10.622   2.636 -0.0550  0.2036  0.1616
28458W        W44932  17.014  11.730  15.930 -0.0398 -0.0982 -0.2307
28459W        W44933   2.712   5.842  13.520 -0.2240 -0.3183 -0.2416
28460W        W44934  11.158  11.789  12.799 -0.1788 -0.1320 -0.2093
28461W        W44935   5.481   7.340   1.500  0.2570  0.0889  0.1255
28462W        W44936   8.253  13.546  14.199  0.0361 -0.0035 -0.2983
28463W        W44937  12.180   0.767   3.677  0.3472  0.0642 -0.2032
28464W        W44938   8.185   2.124   1.049  0.3621  0.6344 -0.1471
28465W        W44939  15.211   2.257  16.046  0.1334  0.0768  0.2514
28466W        W44940   6.714   7.024   4.817  0.0360  0.0950  0.0823
28467W        W44941  14.548   8.954   4.087  0.0811  0.0596  0.1119
28468W        W44942   9.716  10.478   4.307 -0.1552 -0.4584 -0.0373
28469W        W44943   6.392   1.803   4.649  0.0750 -0.2940  0.2938
28470W        W44944  10.742  13.408  14.656 -0.1025 -0.1486 -0.1429
28471W        W44945   0.973   8.819  14.522 -0.0850 -0.0611  0.1503
28472W        W44946   2.049  14.433  14.403 -0.3073  0.1444  0.1289
28473W        W44947   1.314  17.227  15.565  0.3284  0.0234 -0.3527
28474W        W44948   3.882   6.645   3.001 -0.1026 -0.0727  0.0590
28475W        W44949  14.475   2.740  16.393 -0.1122  0.3096 -0.2018
28476W        W44950  13.312   3.901   4.490  0.0667  0.0411 -0.1895
28477W        W44951   5.316  11.187   2.516 -0.2535  0.1071 -0.1841
28478W        W44952   8.528   3.291  12.727  0.0956  0.0780 -0.0699
28479W        W44953   6.320   0.150   4.591  0.0136 -0.0307  0.1007
28480W        W44954   3.262   1.651  14.915 -0.0027 -0.1765  0.1682
28481W        W44955   3.726  11.277  11.961  0.2058 -0.0296  0.0976
28482W        W44956   2.969  17.216   2.724 -0.0782 -0.0907  0.0782
28483W        W44957  11.958  12.597  13.662  0.3069 -0.0356 -0.0348
28484W        W44958  12.018  15.708   3.888 -0.0295 -0.0507 -0.1431
28485W        W44959  15.173  15.885  13.051  0.3769  0.1632  0.3984
28486W        W44960   7.487  10.670   1.504 -0.0050  0.1613  0.1615
28487W        W44961   3.507   9.673  14.761  0.2121 -0.2794 -0.1939
28488W        W44962   6.419   5.172  14.111  0.1820 -0.0766  0.0589
28489W        W44963   8.076   5.179   1.159 -0.3281  0.0917  0.1621
28490W        W44964   8.496  16.903  11.317  0.2031 -0.2693 -0.1638
28491W        W44965   9.957  15.141  12.953  0.1433 -0.0686  0.0103
28492W        W44966   8.020   4.358   0.737 -0.0594  0.0855 -0.2767
28493W        W44967   3.784  12.415  12.957  0.4482  0.0770 -0.0766
28494W        W44968   6.041  11.422  11.593 -0.0654  0.3024 -0.1731
28495W        W44969   6.886  17.373  14.940  0.2476  0.2207  0.0827
28496W        W44970  10.237  15.111  14.683  0.0159  0.0934 -0.2971
28497W        W44971  10.426  17.068   0.993  0.2859 -0.0335 -0.1462
28498W        W44972   0.340  10.952  13.148  0.0722 -0.0087 -0.3697
28499W        W44973   6.368   4.868   1.772 -0.0789  0.1754  0.1383
28500W        W44974  13.069   4.208  13.077  0.1180 -0.0958 -0.0044
28501W        W44975   5.202  10.588  13.451  0.1880  0.1620 -0.2150
28502W        W44976   4.264  12.547   1.617  0.0607  0.0014  0.0415
28503W        W44977  16.750  17.114   1.143  0.1676 -0.1027 -0.2989
28504W        W44978   5.256   6.252  12.925  0.1899  0.2768  0.0775
28505W        W44979  12.012  16.076   3.413 -0.2498 -0.2286 -0.0954
28506W        W44980  15.991  17.428   4.772 -0.1304  0.1530  0.1863
28507W        W44981   2.794  14.758  13.670  0.1901  0.0492 -0.0644
28508W        W44982  11.107  12.690  14.424  0.0018  0.1991 -0.0634
28509W        W44983  17.880   7.752   1.720  0.1747  0.1733  0.0121
28510W        W44984  15.567   5.290  16.109 -0.1207  0.1014 -0.0800
28511W        W44985   1.795   3.315   4.075  0.0682  0.1801 -0.1011
28512W        W44986  11.098  11.868   5.709  0.1885  0.0038  0.0045
28513W        W44987   1.847   6.349  15.358  0.1636  0.0369  0.0328
28514W        W44988  17.696   3.021   2.228 -0.1390 -0.2451  0.0202
28515W        W44989  15.213   3.059  13.919  0.2083  0.1405  0.6627
28516W        W44990  11.838  14.246   0.122 -0.2740 -0.1406  0.1705
28517W        W44991  12.899   1.258   2.934  0.0735 -0.2799 -0.1155
28518W        W44992  12.416  13.741  10.768 -0.1616 -0.3403 -0.3293
28519W        W44993   0.843  14.750   0.972 -0.2475 -0.2199 -0.0951
28520W        W44994   9.612  11.858  14.654  0.0332  0.1948 -0.1888
28521W        W44995  17.251  10.730  12.261 -0.2616 -0.1826 -0.2047
28522W        W44996  15.713   8.074   4.204  0.0892  0.2826  0.0048
28523W        W44997   4.958   7.933   0.544 -0.0858  0.0360  0.1913
28524W        W44998   7.712   1.177  11.089 -0.0824  0.1115 -0.1927
28525W        W44999   5.441   5.333   2.495  0.0649 -0.0137  0.1276
28526W        W45000   5.332   3.221   3.279 -0.2808  0.3375 -0.0749
28527W        W45001  12.626  10.887  16.073  0.2308  0.1773 -0.1036
28528W        W45002  17.713   8.329  15.006  0.2474 -0.1889 -0.0332
28529W        W45003  13.447   0.433   1.487  0.0047  0.0824 -0.0663
28530W        W45004   3.760   8.147   3.678  0.1088 -0.1471 -0.0335
28531W        W45005   4.896   1.655   4.765 -0.0748  0.0903  0.0705
28532W        W45006   5.034  14.526  11.066 -0.0653 -0.2488 -0.0823
28533W        W45007  15.097  14.064  12.577 -0.2918 -0.2045  0.1862
28534W        W45008  13.124   6.888  11.932  0.1083  0.0206 -0.1052
28535W        W45009  16.151  14.795  15.025  0.1264 -0.0332  0.1799
28536W        W45010  12.121  15.714   5.109  0.0345 -0.0699  0.0489
28537W        W45011  11.676  15.389  15.339 -0.2538  0.2169  0.4152
28538W        W45012  14.526   9.927  12.452  0.0279 -0.0897  0.3064
28539W        W45013   3.335  10.792   2.376  0.0875  0.1871  0.1136
28540W        W45014  11.915   0.814   1.070 -0.0635 -0.0504 -0.0811
28541W        W45015   7.433   9.736   4.308 -0.0573  0.1912  0.0819
28542W        W45016  10.191   1.285  14.741 -0.1092 -0.2348 -0.0388
28543W        W45017  15.757   8.384   1.470 -0.1530 -0.4252  0.1309
28544W        W45018  15.492  12.141   1.417  0.3576 -0.0023 -0.4318
28545W        W45019  16.170  14.337  16.315  0.1202 -0.0585 -0.1318
28546W        W45020  16.195  14.454  11.914 -0.1045  0.0191  0.1594
28547W        W45021   0.451   8.655   4.722 -0.2027 -0.4063  0.0600
28548W        W45022   7.438  13.397   3.734 -0.0113 -0.0233  0.2924
28549W        W45023   3.907  14.548   3.944  0.0874 -0.2545 -0.0715
28550W        W45024   2.028   3.318  14.052 -0.0119  0.1392  0.0277
28551W        W45025  17.002   5.156   1.986 -0.2743  0.0674 -0.2469
28552W        W45026   4.526   1.613   3.024  0.3375  0.0457 -0.0052
28553W        W45027  12.184  14.234   3.331  0.2836  0.0023  0.2299
28554W        W45028   8.441  15.941   2.386  0.1433 -0.1210  0.2896
28555W        W45029   4.276   3.661   0.835 -0.1361 -0.0060 -0.1428
28556W        W45030   0.659   6.298   3.915 -0.1061  0.1063 -0.0574
28557W        W45031   2.274   8.383  15.949 -0.0248  0.2958 -0.0858
28558W        W45032  14.794  15.131  13.446 -0.1891  0.0413  0.2185
28559W        W45033   0.226   6.638   3.504  0.1124  0.0644  0.1214
28560W        W45034  15.148   4.957  16.282 -0.2290 -0.0882 -0.0734
28561W        W45035   5.126  13.489  16.725  0.0473 -0.0627  0.2176
28562W        W45036  14.605  11.043   2.353 -0.0056 -0.2892 -0.1229
28563W        W45037   8.895  10.523  11.877  0.1935  0.2260  0.0768
28564W        W45038  17.919   3.235   3.916  0.1845  0.0959 -0.2114
28565W        W45039   7.318   4.224  15.848  0.2469  0.1281 -0.1349
28566W        W45040   7.287   7.989   5.475  0.3805 -0.1695 -0.1840
28567W        W45041   5.024   6.456   4.992 -0.3489 -0.1606  0.1601
28568W        W45042   2.284   1.701  11.344 -0.2437 -0.3657  0.2329
28569W        W45043   6.149   7.471  16.755  0.4386  0.0394  0.0855
28570W        W45044  13.239  13.902   1.430 -0.1365 -0.3695 -0.1482
28571W        W45045  17.409   1.127   2.715  0.2801  0.4078  0.1340
28572W        W45046   1.978  11.215   2.733  0.1556 -0.0142  0.2058
28573W        W45047  10.419   5.714  11.523 -0.1041  0.3089 -0.0527
28574W        W45048   1.027   3.857   5.316  0.2159  0.0153  0.1613
28575W        W45049   9.568   8.874   4.384  0.0314  0.3113 -0.0905
28576W        W45050   1.420   9.162  14.657  0.0853 -0.2587  0.1477
28577W        W45051   5.939  17.408   2.358 -0.3924 -0.2429  0.0076
28578W        W45052   7.211  11.045  12.658 -0.1034  0.1036 -0.0466
28579W        W45053   1.039   4.492   4.498 -0.1821 -0.0266 -0.1174
28580W        W45054  10.646   2.513   3.026 -0.0740 -0.3093  0.0729
28581W        W45055  15.511   2.413  16.442 -0.0246 -0.0637  0.1556
28582W        W45056   7.479  17.398   2.531  0.2180 -0.0960  0.1402
28583W        W45057   7.912  12.953  13.920 -0.0113  0.0750  0.1145
28584W        W45058   5.050   2.011   4.101 -0.3431  0.2977 -0.2959
28585W        W45059   5.971  12.308   4.360 -0.0405 -0.1355  0.3027
28586W        W45060  14.681  13.471  12.233  0.1587 -0.0181 -0.1456
28587W        W45061   7.639  13.713   3.325 -0.0500  0.1706 -0.0436
28588W        W45062   2.745   8.384   3.403 -0.3215  0.3064 -0.1390
28589W        W45063   1.292  11.719  14.684 -0.3640  0.0256  0.0958
28590W        W45064   3.269   9.956   1.794 -0.1161  0.2387  0.1211
28591W        W45065  16.918  11.868  12.052 -0.0281 -0.0872 -0.3584
28592W        W45066   3.294   1.433  11.835  0.2436 -0.1202 -0.3983
28593W        W45067  14.821  15.014   1.388 -0.0134 -0.0338 -0.1350
28594W        W45068  15.189   2.124   0.905  0.0443 -0.0165  0.2177
28595W        W45069  12.553  14.915   1.957  0.0406  0.2754 -0.4112
28596W        W45070  16.734   0.782   3.551  0.0656  0.2400  0.1690
28597W        W45071   8.812   5.434  15.602  0.0831 -0.0393  0.1302
28598W        W45072  17.301   2.132   4.106 -0.0933 -0.1041  0.2011
28599W        W45073  15.699  10.969   4.521 -0.3080  0.1920  0.1472
28600W        W45074  11.343  11.927   1.449 -0.3733  0.0610 -0.2005
28601W        W45075   6.962  15.505   4.288  0.0454 -0.1841 -0.0172
28602W        W45076  12.259  15.074   4.700 -0.0673  0.4437  0.0590
28603W        W45077  11.728  14.260  12.226  0.1365 -0.1974 -0.2165
28604W        W45078   4.156   4.739  13.059 -0.0788 -0.3682 -0.2739
28605W        W45079   0.123  10.066  14.584 -0.2962  0.2667 -0.2253
28606W        W45080  11.401   0.381  15.040  0.1569 -0.1918 -0.0865
28607W        W45081   5.622   9.746   1.580  0.0949  0.1267  0.0076
28608W        W45082  10.597  14.260  12.056  0.2212  0.0228  0.2556
28609W        W45083  15.534   4.816  15.912 -0.0663 -0.1135 -0.1900
28610W        W45084  15.223  15.272  11.537  0.1916  0.2374 -0.3023
28611W        W45085  11.108   9.028  15.691 -0.1787  0.0550 -0.1247
28612W        W45086  17.749  10.625  12.499  0.0947  0.1221  0.3740
28613W        W45087  14.476  15.329   3.770  0.1977  0.1493  0.0412
28614W        W45088  13.725   7.007   2.399 -0.0084 -0.0309  0.2942
28615W        W45089  12.001  17.717  11.825  0.0410  0.2046 -0.0618
28616W        W45090  16.255   6.906  16.432  0.0180  0.1297  0.1161
28617W        W45091   5.238   7.203   3.700 -0.1345  0.0856  0.1070
28618W        W45092  10.670   0.248  12.470 -0.1505  0.1028  0.0663
28619W        W45093   8.012  13.897   4.450  0.1709  0.1681  0.1469
28620W        W45094   6.786  10.767   1.435 -0.1939  0.2648  0.1375
28621W        W45095   4.704  10.698   0.963 -0.1467  0.2107 -0.0337
28622W        W45096  14.232  16.456  15.577  0.0928  0.2757 -0.2168
28623W        W45097  14.122   0.009  16.203 -0.0866  0.0033  0.2245
28624W        W45098  11.502  13.157   2.522  0.2088  0.0267 -0.1190
28625W        W45099  17.094   1.675  12.038 -0.0627  0.0035  0.3192
28626W        W45100   1.089   5.351   3.692  0.0834  0.1208  0.1400
28627W        W45101  14.226  15.995  14.398 -0.2138  0.2015  0.1436
28628W        W45102  12.841  10.296   0.324  0.1125 -0.0914  0.1134
28629W        W45103   3.780  16.227  13.140  0.0125  0.2398  0.5047
28630W        W45104   2.515   7.871   2.894 -0.4036  0.1900 -0.0039
28631W        W45105  17.235   5.606  14.693  0.2472  0.0166  0.5767
28632W        W45106  15.940   5.466   5.133 -0.0179 -0.0036  0.0901
28633W        W45107  11.027   4.516  12.346 -0.0670  0.0162 -0.0046
28634W        W45108   0.714   7.461   1.946  0.2770 -0.1046  0.0381
28635W        W45109  16.658   3.152  13.854 -0.1529 -0.0152  0.0736
28636W        W45110  12.925   2.284  15.710  0.3286 -0.0145 -0.2496
28637W        W45111  10.310   6.782   4.137 -0.0208 -0.2682  0.1706
28638W        W45112   6.550   5.719   5.915  0.3384 -0.1906  0.0139
28639W        W45113  10.272  10.857   0.557 -0.0327  0.1638  0.2864
28640W        W45114   0.326  13.126  15.233  0.1654 -0.4675  0.2936
28641W        W45115   5.727   9.063   0.946 -0.0159  0.0665 -0.2971
28642W        W45116  10.244  12.133  15.072  0.1235  0.0209  0.1430
28643W        W45117  11.459   5.454   3.489 -0.0496  0.0536  0.0919
28644W        W45118  14.610  16.470   2.734  0.1506  0.1597  0.0739
28645W        W45119  15.752  12.745   1.016  0.1259 -0.0901 -0.2954
28646W        W45120   4.264  12.115  12.981  0.3268 -0.1668 -0.1814
28647W        W45121  12.373   4.941  14.162 -0.1053 -0.3060 -0.0723
28648W        W45122   5.265  16.706  11.952 -0.2246 -0.0883  0.2739
28649W        W45123   5.729   1.904  12.810 -0.2286  0.2604  0.1099
28650W        W45124   7.915   7.858  14.249  0.0251  0.2894  0.1808
28651W        W45125  15.932  13.000   3.127 -0.0599  0.1807  0.1224
28652W        W45126   9.227   5.021  13.866 -0.2088  0.1362  0.2054
28653W        W45127  15.474  15.853   5.598  0.0257 -0.0796 -0.1064
28654W        W45128   1.150   6.246  11.662  0.0671  0.3418  0.0406
28655W        W45129   9.449  13.858   1.501  0.0045 -0.1550 -0.0591
28656W        W45130   7.343   5.956  13.968 -0.0968 -0.0900  0.1471
28657W        W45131   3.812   8.612   4.635  0.1623  0.2063  0.0815
28658W        W45132   0.279   8.865  12.497  0.0795 -0.2258  0.1980
28659W        W45133  16.766   2.497   0.248 -0.0878 -0.1831  0.1951
28660W        W45134   0.071   4.109   0.771 -0.2643 -0.1011  0.0757
28661W        W45135  12.909   4.335  13.611 -0.1632 -0.0776 -0.1935
28662W        W45136   7.118   8.935  12.927  0.0729  0.0895 -0.0614
28663W        W45137   5.437   1.057   3.750 -0.3063 -0.0549 -0.0812
28664W        W45138   2.780   9.711   5.005 -0.1308  0.0705 -0.0533
28665W        W45139   9.875  13.952  11.391  0.1757  0.0953  0.0014
28666W        W45140  10.054  11.862  16.225 -0.1459  0.2835  0.0442
28667W        W45141  17.266   4.085   3.529 -0.1178 -0.1878  0.1103
28668W        W45142   9.401  16.844   3.411  0.0912  0.2765  0.1972
28669W        W45143  12.580   4.019  13.932 -0.2115  0.2062  0.1622
28670W        W45144   5.785  17.369   3.221 -0.0143  0.0252  0.3082
28671W        W45145   1.517   8.454  12.578 -0.3688 -0.2981  0.0034
28672W        W45146  16.884  14.839  11.464  0.3555 -0.1455  0.0543
28673W        W45147   0.716   3.414   5.493 -0.2698  0.1399  0.2085
28674W        W45148  14.275  17.085  15.729 -0.1709 -0.1826  0.4295
28675W        W45149  10.562  15.828   2.243 -0.1545  0.0100  0.0937
28676W        W45150   9.616  13.000   4.963 -0.2058  0.1889 -0.1770
28677W        W45151   8.045   8.859  12.736  0.0100  0.0580  0.0578
28678W        W45152   5.258   7.816  14.417  0.2424 -0.1997  0.0281
28679W        W45153  15.168   7.432   2.363  0.2915 -0.0586  0.1672
28680W        W45154   0.863   3.829  13.740 -0.0662 -0.0079 -0.1501
28681W        W45155   5.456   8.631   2.308  0.1026  0.1218 -0.0966
28682W        W45156   3.473   5.137  14.189  0.0512 -0.0535 -0.2297
28683W        W45157   3.057  11.120   0.869 -0.0356 -0.1437 -0.0357
28684W        W45158   4.844  13.059   4.224 -0.0401 -0.0830  0.0640
28685W        W45159  15.438   0.691   2.363  0.3442 -0.1898 -0.0716
28686W        W45160  17.597   8.246   3.121  0.0271  0.1938  0.1098
28687W        W45161  12.590   7.399   4.391  0.1239 -0.2262 -0.0935
28688W        W45162   8.386   4.685  16.114 -0.0231 -0.1857  0.1740
28689W        W45163  10.473   3.158   5.182 -0.0821  0.0374  0.0271
28690W        W45164  16.051   8.936   4.224 -0.1198 -0.1715 -0.1191
28691W        W45165   2.157   2.282  12.911  0.2569  0.0666  0.1371
28692W        W45166   1.078  17.733   4.550 -0.1396  0.1410  0.0873
28693W        W45167  10.919  14.080   4.171  0.1669  0.0338 -0.0730
28694W        W45168   4.782   5.482   4.967  0.3271  0.2040  0.4319
28695W        W45169  17.222   4.339   1.098  0.0235 -0.1011 -0.3415
28696W        W45170   1.245  12.568  10.738  0.0567 -0.2224  0.1380
28697W        W45171  11.303  14.749   3.816 -0.0761 -0.0811  0.2206
28698W        W45172  15.456   5.939  16.757 -0.0840 -0.1250  0.0689
28699W        W45173   4.733   6.920   3.547  0.1270  0.2237 -0.2675
28700W        W45174   6.740   6.953  15.256  0.0930 -0.1115 -0.1592
28701W        W45175  14.560  15.472   2.671  0.0898 -0.3221  0.0895
28702W        W45176   1.534   1.371  15.812  0.1408 -0.2324 -0.3167
28703W        W45177  17.163   9.949   4.684 -0.0150  0.0171 -0.0123
28704W        W45178  11.625   2.763   1.131  0.0565  0.2858 -0.0673
28705W        W45179  11.378  12.699   2.156 -0.0864  0.2419  0.0190
28706W        W45180   2.953   8.962   1.885  0.0107 -0.1125 -0.0094
28707W        W45181   1.975   0.325  13.526 -0.1767 -0.0620 -0.0359
28708W        W45182  16.265  10.610  14.443  0.0479 -0.0417 -0.0131
28709W        W45183  14.661  17.555  12.951  0.0462  0.1015 -0.0312
28710W        W45184  12.810  13.813  13.649 -0.2011  0.1007 -0.0724
28711W        W45185   5.468   1.172   2.135  0.0187  0.1832 -0.1276
28712W        W45186   3.802   1.638  15.085 -0.0063  0.3137  0.1446
28713W        W45187   9.426   9.939   5.379 -0.1993  0.1839 -0.0077
28714W        W45188   6.026   4.268   4.451 -0.1512 -0.0550  0.0490
28715W        W45189  14.632   0.467  12.585  0.1113 -0.3604  0.2519
28716W        W45190  13.492   9.767   5.040 -0.0336 -0.1489 -0.0621
28717W        W45191   3.479   8.105  12.313  0.2865  0.0771 -0.1013
28718W        W45192  11.529  16.412   3.632  0.1506 -0.1789  0.1036
28719W        W45193   5.978   4.027  11.311  0.0320 -0.3658 -0.1826
28720W        W45194   0.191   5.704   0.136 -0.0932 -0.0090  0.2804
28721W        W45195   7.786   8.901  15.368  0.4778 -0.0268 -0.1801
28722W        W45196   4.127   0.006  15.849 -0.5123  0.0245 -0.2105
28723W        W45197   7.720   3.445   0.533  0.0661 -0.2397  0.0779
28724W        W45198   9.773   5.686  12.252  0.2421 -0.2316  0.1491
28725W        W45199   1.372  15.864   5.374  0.1401 -0.1071  0.1621
28726W        W45200   1.308  11.750   0.655  0.3209 -0.5217 -0.0392
28727W        W45201   5.278   4.593   1.216 -0.1423 -0.1542  0.1346
28728W        W45202  15.725   6.723  13.672 -0.2520 -0.1874  0.2058
28729W        W45203  13.733   7.419   2.767  0.3012 -0.2030  0.1755
28730W        W45204  15.501   1.700  11.649  0.0558  0.0549  0.1773
28731W        W45205   7.056  13.071  14.652  0.3374 -0.1555 -0.2672
28732W        W45206  10.862   9.184   2.884  0.1542  0.1030 -0.0240
28733W        W45207   4.809   9.441   0.032  0.0700  0.0877  0.0798
28734W        W45208   7.372   1.649   3.900  0.1485  0.1077  0.1461
28735W        W45209   4.783   5.944   1.003 -0.1630 -0.0765 -0.1291
28736W        W45210  16.002  15.266  14.908 -0.1664 -0.1603  0.1395
28737W        W45211   3.299  10.859  14.803  0.0935 -0.0744  0.0217
28738W        W45212  14.384  16.957   4.634  0.0565 -0.0658 -0.0549
28739W        W45213  11.660   6.747  14.925 -0.1909  0.1460  0.0017
28740W        W45214   5.960   7.086  13.557 -0.3244 -0.2458 -0.1832
28741W        W45215   3.224   3.492   1.444 -0.0822  0.1697  0.1340
28742W        W45216  11.337  17.062   1.890  0.1495 -0.0202  0.2392
28743W        W45217   3.069  13.196  12.002  0.2920 -0.1604 -0.0409
28744W        W45218  13.802  17.562   2.758 -0.0327 -0.0732  0.2466
28745W        W45219  13.451  16.874  14.661  0.1727  0.3148 -0.0472
28746W        W45220   6.870   4.258  15.058  0.0490  0.0449 -0.2931
28747W        W45221  15.167   3.254  13.440  0.4796  0.0418  0.0548
28748W        W45222  10.123  12.985   2.367  0.0891 -0.4143  0.1646
28749W        W45223   6.329  14.362   1.121 -0.0526  0.3959 -0.1660
28750W        W45224  14.211   9.674  15.092 -0.1732  0.1003 -0.0999
28751W        W45225   8.537   5.219   3.737  0.0743 -0.2458  0.0099
28752W        W45226   1.865   2.244   3.039  0.3888  0.0641  0.2231
28753W        W45227  13.582  17.282   3.813 -0.1506 -0.0308 -0.4140
28754W        W45228  16.575   1.084   3.999 -0.1340  0.2544  0.2736
28755W        W45229  16.986  15.331   1.786  0.0775  0.0858 -0.1973
28756W        W45230  12.303  14.601   6.355 -0.1524  0.1108 -0.0317
28757W        W45231   0.698   9.520   4.448 -0.4031 -0.1217  0.2247
28758W        W45232   0.731  10.694   0.820 -0.2697  0.3086  0.3625
28759W        W45233  15.029   5.747   0.264 -0.0663 -0.3554  0.0239
28760W        W45234  10.388  15.421   5.812  0.1262  0.3487  0.0632
28761W        W45235  11.992   7.272  14.524  0.0351  0.3374  0.0993
28762W        W45236  17.116   8.974   4.364  0.1431 -0.0862  0.1318
28763W        W45237  15.834   4.311   5.513  0.2353  0.0617  0.1475
28764W        W45238   3.329   2.516  12.976  0.0777 -0.1441 -0.1272
28765W        W45239   0.384   5.930  14.542  0.2569 -0.0002 -0.1863
28766W        W45240   3.511  17.126  15.539  0.2172 -0.2165  0.0173
28767W        W45241   8.421   8.694   1.766 -0.2433  0.0655 -0.0936
28768W        W45242   2.417  16.600   5.390 -0.1312  0.1709  0.1561
28769W        W45243   0.173   3.380  14.626  0.0374  0.0784 -0.0098
28770W        W45244   3.995   5.954   1.563 -0.0299 -0.0066  0.1902
28771W        W45245  17.872   1.747   2.113  0.1270 -0.1809  0.0394
28772W        W45246  15.096   6.850  11.938  0.1462 -0.1210  0.2968
28773W        W45247   3.847  11.383  13.404 -0.3244 -0.0354  0.1295
28774W        W45248   4.702  13.548   1.732 -0.0201  0.0283 -0.0776
28775W        W45249  13.433  16.011  13.117 -0.1217  0.1115  0.3577
28776W        W45250   3.024   9.637  15.071  0.2457  0.1935  0.1726
28777W        W45251   6.328   2.336   0.809  0.0895  0.1108 -0.2881
28778W        W45252  12.602   8.978  14.393 -0.1046  0.0245 -0.1084
28779W        W45253   5.768  17.274   4.589  0.3346  0.0030  0.1190
28780W        W45254   2.219   1.909  14.796  0.0210 -0.2761  0.1009
28781W        W45255   3.092   8.929   4.441  0.1079 -0.1741 -0.3300
28782W        W45256   4.775   7.809   2.152 -0.0485 -0.0288  0.1117
28783W        W45257  10.990  10.707  11.580  0.4087  0.0266  0.0164
28784W        W45258  13.801  10.394  12.574  0.0787  0.2817 -0.1532
28785W        W45259   3.744   9.881   0.515  0.0656  0.1290 -0.1356
28786W        W45260   1.170  13.307  13.910 -0.2878  0.1831  0.1587
28787W        W45261  11.207   3.283  12.746  0.0238 -0.1128  0.1286
28788W        W45262   0.408  14.761  15.382  0.0101  0.1329  0.1460
28789W        W45263   1.630  12.964  12.777  0.1513  0.2553  0.2108
28790W        W45264  10.548  10.177  16.680 -0.2141 -0.2659  0.3494
28791W        W45265   0.541  11.028   0.441  0.0014  0.0996 -0.0083
28792W        W45266  12.887   8.939  13.130  0.2331 -0.0033  0.0551
28793W        W45267   4.804   6.659  13.972 -0.0089 -0.4366 -0.0531
28794W        W45268   1.188   1.247   0.050 -0.1292 -0.4034  0.1386
28795W        W45269   4.814  11.842   1.681  0.1702  0.1026 -0.0446
28796W        W45270  10.766   6.330   5.916  0.0375  0.1416  0.1598
28797W        W45271  11.253  15.555  15.579 -0.0744 -0.1645 -0.0122
28798W        W45272   8.840   7.567   0.094  0.3844 -0.0182  0.1423
28799W        W45273   6.487  11.588   3.100  0.1336 -0.1158 -0.0409
28800W        W45274   9.468  11.027   4.307 -0.0348 -0.1951  0.3164
28801W        W45275   0.213  10.671  12.734  0.3148 -0.2899 -0.0106
28802W        W45276  13.671   6.973   3.109 -0.1839 -0.2095 -0.2484
28803W        W45277   5.594   4.965  13.941  0.2561  0.0324  0.3500
28804W        W45278   1.516   1.837  16.204  0.1226  0.0297 -0.0033
28805W        W45279   7.652  13.537  11.650 -0.0702 -0.0993  0.0647
28806W        W45280  12.583   6.261   5.043  0.0559 -0.1631 -0.0228
28807W        W45281   6.370   2.721  12.775 -0.3025  0.0746 -0.1237
28808W        W45282  14.092   5.612   1.344 -0.0688  0.0728  0.1147
28809W        W45283  16.427   1.964   2.882  0.0650  0.2674  0.5349
28810W        W45284   9.948   6.429   2.686  0.3556  0.0012 -0.2825
28811W        W45285  13.986   4.299  15.026  0.0771 -0.1636 -0.2514
28812W        W45286   8.996   8.105  13.924  0.0445 -0.0094  0.2002
28813W        W45287  10.125   2.548  12.006 -0.0743  0.4538  0.2686
28814W        W45288   3.079  16.640  13.976  0.2996  0.2222 -0.1875
28815W        W45289   6.831  10.088  11.757 -0.1480  0.0042  0.1794
28816W        W45290   9.275   9.364   1.073 -0.0642 -0.0862 -0.2235
28817W        W45291  15.475   5.878  11.661 -0.0754  0.0081 -0.0025
28818W        W45292  14.962  13.188   1.057  0.2214  0.1678  0.0661
28819W        W45293   5.329   1.469  12.427 -0.2110 -0.0775 -0.0981
28820W        W45294  13.356  15.954   5.232 -0.0281 -0.0715 -0.0707
28821W        W45295   8.863   3.368   4.504 -0.0433  0.1638 -0.2033
28822W        W45296  11.524   5.415  15.134 -0.1918  0.0023 -0.1741
28823W        W45297   3.325   8.522   4.976 -0.0081  0.0092  0.2996
28824W        W45298   0.941  13.577  13.455 -0.2207 -0.2006  0.1672
28825W        W45299   3.623  10.671   4.509 -0.0477 -0.1246 -0.4158
28826W        W45300  11.717   0.483  12.054  0.2323 -0.0125  0.2711
28827W        W45301  13.840  15.554  13.213 -0.2935 -0.0061  0.0441
28828W        W45302   5.544  16.133   3.272 -0.0130 -0.0738  0.1237
28829W        W45303  11.972   0.467  12.460  0.0508  0.1077 -0.0677
28830W        W45304  10.610   9.479  11.675  0.1257  0.1223 -0.1399
28831W        W45305   0.586   2.957   5.688  0.0025  0.0648 -0.0452
28832W        W45306  14.343  13.167  16.656 -0.1576 -0.1853 -0.2968
28833W        W45307  17.173   5.443   0.143  0.0655 -0.0560 -0.0675
28834W        W45308   8.574  12.770   1.690  0.0405  0.2365  0.0597
28835W        W45309   7.963  15.795   2.077 -0.0727  0.0169 -0.1384
28836W        W45310  13.325   7.124  11.086  0.1968  0.0609  0.2624
28837W        W45311  11.457  10.376  15.728  0.2358 -0.4368 -0.1215
28838W        W45312   9.754  15.559  13.251  0.1726 -0.0821  0.1790
28839W        W45313   5.354  15.326   5.760 -0.0386 -0.0770 -0.1701
28840W        W45314   3.281  10.344   3.593  0.0424  0.2090 -0.2909
28841W        W45315   4.391  15.761  12.088 -0.0779  0.0198 -0.0331
28842W        W45316   1.208   5.660  15.698 -0.0239  0.0709 -0.0740
28843W        W45317   4.554  11.869   0.014 -0.1585 -0.3288  0.2070
28844W        W45318   1.220  10.792   0.827 -0.1028  0.0245 -0.1625
28845W        W45319   1.440   1.727   1.926  0.1007  0.1707 -0.3473
28846W        W45320   6.335   9.755   2.278  0.1651 -0.2035 -0.3658
28847W        W45321  17.240  13.793   4.305 -0.2784  0.0637 -0.1103
28848W        W45322   3.093   9.730   3.679 -0.1728 -0.2698  0.0158
28849W        W45323  13.943  11.511  13.000 -0.0108 -0.0390 -0.1034
28850W        W45324  17.529  14.254   3.508 -0.0536  0.0345 -0.1170
28851W        W45325   6.611   5.362   1.442  0.1404 -0.3237 -0.1315
28852W        W45326  10.494  13.208  12.885  0.0076  0.1055 -0.1149
28853W        W45327   7.265  14.749  12.608  0.2342  0.1846 -0.0032
28854W        W45328   2.619  10.620   5.225  0.1447 -0.0460  0.2537
28855W        W45329   9.964   1.293  16.370  0.0467  0.0299  0.0116
28856W        W45330   7.767  13.645   1.354 -0.1681  0.1057  0.2016
28857W        W45331  10.373  17.272  13.739 -0.6081  0.0178 -0.0727
28858W        W45332  11.311   0.879   2.968  0.0715 -0.1091  0.0338
28859W        W45333  10.481  10.172  13.926  0.1777  0.2036  0.0061
28860W        W45334  12.195   3.275   4.037 -0.2982  0.2497  0.0337
28861W        W45335  12.837   6.932   1.105  0.0848 -0.3395 -0.2612
28862W        W45336   5.858   7.054  14.759 -0.0064  0.2265  0.0117
28863W        W45337  13.499   8.085  14.305 -0.1334 -0.1247  0.2623
28864W        W45338  17.743   5.577  16.702 -0.1313  0.0030  0.0418
28865W        W45339   7.503   4.488  11.389  0.1921  0.0553  0.1221
28866W        W45340   3.009   3.576  15.108  0.0129 -0.0149 -0.5279
28867W        W45341  15.177  16.264  11.783  0.2096  0.0200  0.0267
28868W        W45342   7.939  17.543   2.817  0.3198 -0.0044  0.1810
28869W        W45343   5.597   2.356   1.256  0.4462  0.2543 -0.1765
28870W        W45344   2.135   8.672  13.669 -0.0689 -0.1703  0.0086
28871W        W45345  10.922   1.645   2.528  0.2187 -0.1077 -0.4727
28872W        W45346  12.432   4.172   0.345 -0.3682  0.0555 -0.2770
28873W        W45347   5.505  12.134   4.936 -0.0397 -0.1844  0.2474
28874W        W45348  13.970  12.865   2.945 -0.3355 -0.0378  0.0737
28875W        W45349  10.924   6.854  12.329  0.2446 -0.1771  0.2093
28876W        W45350   5.576  15.617   1.975 -0.4231  0.1016  0.3491
28877W        W45351   9.060   4.210  13.769  0.0882 -0.3262  0.0306
28878W        W45352  10.352   6.136   5.053  0.0824 -0.0080  0.0067
28879W        W45353   7.239   8.407   5.026 -0.1218  0.0592  0.2957
28880W        W45354  13.728  16.504   2.651 -0.1716 -0.2506  0.1010
28881W        W45355  16.383  13.405  11.541  0.3320 -0.2432  0.0447
28882W        W45356   6.757  13.885   4.904  0.0463 -0.0152 -0.1123
28883W        W45357   5.355   2.630  13.458 -0.3257 -0.0459  0.0991
28884W        W45358  17.350  16.181   5.470  0.1221 -0.0581 -0.0550
28885W        W45359   9.471   0.683   6.155  0.1247  0.0704  0.1122
28886W        W45360   5.162   0.715  14.568  0.0970 -0.2146 -0.0008
28887W        W45361   7.634  12.170   0.823  0.0784  0.1737  0.0225
28888W        W45362   0.682  11.394   5.004  0.1865  0.1411  0.4268
28889W        W45363  10.729   9.594  13.172  0.0302  0.0729 -0.0130
28890W        W45364   3.656  14.147   2.472 -0.2044 -0.0109 -0.2803
28891W        W45365   6.801  17.748  14.596 -0.1064 -0.0071 -0.2082
28892W        W45366   0.401   5.617   6.298 -0.0809  0.2260 -0.0431
28893W        W45367  10.931   7.088   1.412  0.2955 -0.0246 -0.2132
28894W        W45368  12.250  13.681  11.659 -0.0756  0.0776 -0.0036
28895W        W45369  15.376   6.256  14.900  0.1884  0.4373 -0.1260
28896W        W45370   1.482   1.330  13.967 -0.0500 -0.0330 -0.0976
28897W        W45371   0.524   4.240   0.958 -0.2096 -0.1089  0.1725
28898W        W45372  10.002  11.584   5.187  0.0145 -0.0279 -0.1216
28899W        W45373  11.556   6.851   5.103  0.0795  0.2200 -0.2700
28900W        W45374   3.777   1.000   0.207 -0.0196 -0.0011 -0.2029
28901W        W45375   0.869   4.206   1.321  0.3879  0.0069 -0.4104
28902W        W45376  16.493   5.721  15.823  0.4601  0.4373  0.3561
28903W        W45377  16.891   5.504   0.608 -0.1512 -0.0327  0.0420
28904W        W45378   3.738  16.733   2.718  0.1599 -0.2040  0.0548
28905W        W45379   2.021   6.878  14.886  0.3509  0.3159 -0.0710
28906W        W45380   9.488  14.114  14.189 -0.4703  0.0654 -0.1558
28907W        W45381  10.825  12.662   0.399  0.2796  0.0859  0.2484
28908W        W45382   4.487  11.529   1.393 -0.1265 -0.1725 -0.2094
28909W        W45383   7.829   3.411  15.740 -0.0083  0.0482 -0.0282
28910W        W45384   4.305   9.201  15.199 -0.0739  0.0018 -0.1736
28911W        W45385   1.989  16.346  16.489 -0.0129 -0.0465  0.0802
28912W        W45386  11.958   2.861  13.045 -0.2050 -0.1084  0.1867
28913W        W45387   6.233   8.895  16.035  0.0815 -0.0646  0.1439
28914W        W45388  12.588   0.940   0.077 -0.2992  0.0271 -0.1655
28915W        W45389   7.940  17.283   3.563 -0.0822  0.0368  0.3044
28916W        W45390  17.901  14.400  12.536  0.3018  0.0596  0.2133
28917W        W45391  12.549  10.278   1.723  0.2947 -0.0937  0.1089
28918W        W45392   2.692  13.690  13.894  0.2080 -0.1800 -0.1168
28919W        W45393   6.843   9.129   1.104  0.1002  0.0150  0.0233
28920W        W45394  12.404   5.522   5.396 -0.2175  0.0429 -0.3773
28921W        W45395  14.699  10.682   3.319  0.1893  0.0960 -0.3639
28922W        W45396   5.358   0.799   0.048  0.0674 -0.1337 -0.2069
28923W        W45397   7.228  13.154   5.563 -0.1902 -0.1020 -0.3414
28924W        W45398  13.033   0.359   5.122  0.0928 -0.0742 -0.1946
28925W        W45399   4.481  12.735  13.503 -0.0448 -0.0585  0.0118
28926W        W45400   4.697   8.339  12.166  0.1039 -0.0361  0.0825
28927W        W45401   2.727   9.037  12.700  0.4161 -0.2661 -0.1797
28928W        W45402  16.897  14.308  11.543 -0.0587  0.0140 -0.1032
28929W        W45403   4.604  11.541   0.707 -0.2796 -0.1670 -0.0491
28930W        W45404   3.634   1.232  13.200  0.3612 -0.0144 -0.0050
28931W        W45405   8.595  16.476  12.413 -0.2164 -0.1159  0.0049
28932W        W45406  16.986   9.397   2.178 -0.0809 -0.4071  0.1589
28933W        W45407   1.414   5.999  12.816 -0.1537 -0.0194  0.0801
28934W        W45408   4.878   4.500  16.434  0.0171  0.2386  0.1648
28935W        W45409   4.136  15.778   1.022  0.0374  0.0487 -0.1692
28936W        W45410  16.291  10.654  11.093  0.0759  0.0421 -0.1827
28937W        W45411  13.445  10.271  15.294  0.1885  0.0517  0.0587
28938W        W45412  13.991  11.559  14.503 -0.3108  0.0917 -0.4088
28939W        W45413  13.629   9.772   5.522 -0.1626  0.0957  0.1728
28940W        W45414   4.357   7.432   0.539  0.0601  0.0985  0.0894
28941W        W45415  12.950  12.176  15.889  0.0196 -0.0548 -0.0531
28942W        W45416   9.110  17.532   5.380  0.1713  0.4166 -0.2425
28943W        W45417   9.849  15.983   3.813 -0.1058  0.0848  0.1538
28944W        W45418   5.721  13.178  16.433 -0.1293  0.4554 -0.0197
28945W        W45419  16.539   6.794  16.077 -0.1052  0.0448  0.0805
28946W        W45420  15.456  13.278   2.325  0.0131  0.0784 -0.0886
28947W        W45421  15.057   1.861   5.649 -0.3209  0.2166 -0.0304
28948W        W45422   6.131   5.414   1.371 -0.0126 -0.2880 -0.2139
28949W        W45423   8.790  14.545  12.302 -0.1344  0.0543 -0.1048
28950W        W45424   6.675  16.059   2.813 -0.0786  0.2680  0.1924
28951W        W45425   0.529  11.303  10.531 -0.0064 -0.0783 -0.0030
28952W        W45426  15.458  14.741   3.822  0.1890 -0.1199  0.2455
28953W        W45427  13.833   3.096   4.691 -0.1713  0.2684 -0.2726
28954W        W45428   1.865  17.286  11.654 -0.2145  0.0313 -0.0815
28955W        W45429  15.195  15.406  16.194  0.1137 -0.0228 -0.3715
28956W        W45430  15.120  16.494   5.883  0.0273 -0.1197  0.2229
28957W        W45431  14.704  10.850  15.855 -0.0916  0.1611  0.1228
28958W        W45432   4.865   5.390  16.623 -0.1016  0.3047  0.4290
28959W        W45433  12.318  12.134   1.177 -0.0728 -0.1243  0.2734
28960W        W45434  13.406   1.157  15.175  0.2544  0.0205 -0.0490
28961W        W45435  17.967   2.327   5.582  0.1299 -0.1277 -0.1188
28962W        W45436  12.329   1.970  15.030  0.2060  0.1946 -0.1002
28963W        W45437   8.438   1.108  11.895 -0.0691 -0.1822  0.0048
28964W        W45438  14.181   6.234   2.807 -0.0965  0.2027  0.2129
28965W        W45439  15.518  16.127   3.426 -0.0222 -0.0672  0.1881
28966W        W45440   5.110   5.290   2.979  0.6337 -0.1670 -0.0812
28967W        W45441   5.533   1.678   2.130 -0.0722  0.1508  0.1877
28968W        W45442  13.173  11.267  15.191  0.0512  0.1753 -0.0801
28969W        W45443   9.422   4.512  13.527  0.0596  0.0494 -0.0857
28970W        W45444  12.451  11.677   5.537 -0.4880 -0.1393 -0.1660
28971W        W45445  13.094   0.841  12.492  0.0304 -0.0847  0.1131
28972W        W45446   7.976   3.859   0.382  0.3370 -0.1158 -0.3041
28973W        W45447   4.134   2.196   0.009 -0.0949  0.3753  0.0599
28974W        W45448   4.041  10.105   2.304  0.1032 -0.0118 -0.1534
28975W        W45449   7.052  17.330  15.422 -0.1038  0.0104 -0.0388
28976W        W45450   6.593   3.400  14.573 -0.4116  0.0527 -0.1189
28977W        W45451   6.842  17.310   2.483 -0.1144  0.0699  0.0642
28978W        W45452   5.084   6.708   2.341 -0.0895 -0.3302 -0.0136
28979W        W45453   7.316   0.264   5.043  0.0005 -0.0690 -0.2576
28980W        W45454   6.889   7.586   3.233 -0.0793  0.0254  0.0186
28981W        W45455  13.273  14.017   4.123  0.2657  0.2814 -0.3661
28982W        W45456   2.730   2.975   1.161  0.1362 -0.2073  0.1111
28983W        W45457   9.588   2.737   2.353  0.0673 -0.1956  0.1622
28984W        W45458   9.395   0.465  16.136  0.0562  0.0799  0.0099
28985W        W45459   3.950  11.876  14.550 -0.2008 -0.0662  0.1399
28986W        W45460  12.523   0.591  11.698  0.2450 -0.0807  0.1071
28987W        W45461   1.056  11.621   1.074 -0.0312  0.1616 -0.2526
28988W        W45462  10.305   9.555  16.049 -0.3805 -0.0570  0.0764
28989W        W45463  10.059   1.041   1.780  0.0666 -0.0995  0.3035
28990W        W45464   0.208   1.665   5.678  0.2415 -0.3496  0.1165
28991W        W45465  17.414  13.101   4.825 -0.1089 -0.2727 -0.0263
28992W        W45466   2.099   3.184   1.960 -0.0335 -0.1528 -0.2208
28993W        W45467   4.853   7.850   4.325 -0.3569  0.0867 -0.2120
28994W        W45468   5.230   1.327   1.735 -0.2789 -0.0975 -0.2099
28995W        W45469   8.506   9.062  11.895 -0.0898 -0.0611 -0.1191
28996W        W45470   9.578   0.133   1.947  0.0138  0.2237  0.2080
28997W        W45471  11.730  16.180  16.680 -0.3116 -0.1561  0.0441
28998W        W45472   0.318   4.453   2.715  0.1513  0.1380  0.0568
28999W        W45473  14.575  17.334   2.967  0.1232  0.2761 -0.0886
29000W        W45474  14.915   8.729   1.981  0.1283 -0.0655 -0.0484
29001W        W45475   0.636   1.813   0.797 -0.1523  0.1225 -0.0406
29002W        W45476  17.578   9.465  11.979 -0.1333 -0.0465 -0.0621
29003W        W45477   1.527   8.499   0.457  0.1576  0.0873  0.0186
29004W        W45478  13.303  10.275  14.375  0.1706 -0.1695 -0.0288
29005W        W45479   9.951  10.128  12.450 -0.2448  0.0957  0.1322
29006W        W45480   7.303   5.266  12.950 -0.0528  0.1695  0.1487
29007W        W45481   3.930   3.723  15.978  0.0813  0.0897 -0.0745
29008W        W45482   5.429  13.789  13.579  0.0578 -0.3758 -0.0973
29009W        W45483  15.164  11.009   5.865 -0.1589 -0.1083  0.1564
29010W        W45484   0.353  10.265   2.045  0.0236 -0.2685  0.0463
29011W        W45485   9.751   0.711   1.618  0.0374  0.0832 -0.1000
29012W        W45486   8.754   8.211  16.443 -0.0725 -0.1583  0.1520
29013W        W45487   4.782   3.931   0.294 -0.0638  0.0997 -0.3654
29014W        W45488  16.956   5.905   0.232  0.1489  0.1923 -0.2714
29015W        W45489   2.886   9.187   2.820  0.0487 -0.1875 -0.0877
29016W        W45490   0.726   9.248   2.054 -0.2346 -0.0148 -0.0822
29017W        W45491   9.608   9.913   3.605  0.0839 -0.0283 -0.3263
29018W        W45492   0.921   0.738  13.301  0.2928 -0.1061 -0.0781
29019W        W45493   4.448  10.742  11.691 -0.1191  0.3997  0.1168
29020W        W45494  17.900   0.023  12.786  0.0808  0.0572  0.1089
29021W        W45495  14.118  14.350  15.034 -0.4130  0.0844 -0.1250
29022W        W45496  17.709  11.728  16.605  0.0382  0.0227  0.1106
29023W        W45497  10.591   5.591   3.140  0.0148 -0.0250  0.0142
29024W        W45498  12.236   6.868  12.089  0.2259  0.1382  0.0279
29025W        W45499   5.223  16.472   4.053 -0.0810 -0.3581 -0.4855
29026W        W45500   1.631   0.578   2.201 -0.0500 -0.3535 -0.1835
29027W        W45501   5.394   2.941  11.632  0.3048 -0.0626  0.1509
29028W        W45502   1.181   4.503  14.919  0.0256 -0.2352 -0.1925
29029W        W45503  14.981   1.440  15.429  0.0241 -0.1084  0.0222
29030W        W45504  10.325  12.712  16.372  0.4108  0.0859  0.0369
29031W        W45505   6.726  16.264   2.357  0.0906 -0.1012  0.1654
29032W        W45506  17.116  13.952  16.517 -0.1570 -0.0644 -0.2475
29033W        W45507   9.831   2.869  16.369  0.0010  0.1029  0.1141
29034W        W45508  14.896   3.852  13.652 -0.0293 -0.0292 -0.0155
29035W        W45509  11.306   6.591  13.640 -0.3439  0.3660 -0.0278
29036W        W45510   6.966  15.141  11.699  0.1386 -0.0510 -0.1747
29037W        W45511   3.622  16.308  12.045 -0.1102 -0.2153  0.1785
29038W        W45512  16.738   5.709   4.100 -0.2044 -0.0400 -0.0290
29039W        W45513  10.718   3.673   5.079 -0.0106 -0.1480 -0.2386
29040W        W45514  16.069   3.708   0.740  0.0093  0.2650  0.0884
29041W        W45515   0.465   8.868  16.701  0.0018 -0.1699  0.0933
29042W        W45516  11.046   7.636   3.676 -0.1413 -0.0583  0.0340
29043W        W45517   7.075  11.219  13.173  0.1659 -0.1060 -0.3058
29044W        W45518   9.814   1.975  15.732 -0.0548  0.0525 -0.1402
29045W        W45519   1.642  16.307   4.513 -0.2371  0.0430  0.0161
29046W        W45520   3.272  10.386  16.616  0.0184 -0.2981  0.0349
29047W        W45521  14.082  16.559   6.788 -0.2067  0.0691  0.0045
29048W        W45522   6.691  13.366  13.664  0.0736  0.0535 -0.1283
29049W        W45523   9.119  16.077  11.198  0.0226  0.0697 -0.3191
29050W        W45524  12.178  14.208   1.648  0.2185  0.0956  0.1088
29051W        W45525   5.047  14.546   4.036  0.0249  0.1720  0.1273
29052W        W45526  15.456  13.722  16.518  0.2559  0.2069  0.2611
29053W        W45527   3.549   0.563  12.195  0.0261 -0.1038 -0.4251
29054W        W45528   2.278   8.211  12.525  0.1305  0.1014  0.0301
29055W        W45529   8.947   1.331  14.162  0.1499 -0.1228 -0.0370
29056W        W45530  17.936   3.608  13.243 -0.1228 -0.1407  0.1010
29057W        W45531  14.832   1.436   1.997 -0.0133  0.0901  0.3826
29058W        W45532   6.479   3.783  11.539 -0.0819 -0.0859 -0.0290
29059W        W45533  14.710  12.038   1.296 -0.0621 -0.1823 -0.0080
29060W        W45534   6.927   6.791  12.437 -0.1480  0.0066  0.2371
29061W        W45535  11.862   4.347  13.579 -0.2016  0.1092  0.0803
29062W        W45536  10.920   1.429   1.668 -0.1827 -0.1127 -0.1262
29063W        W45537  13.498   5.296  12.058 -0.0573  0.0955 -0.2493
29064W        W45538  10.555   2.524  11.757  0.0379  0.0903  0.0910
29065W        W45539  13.661  14.428   2.614 -0.3522  0.1090  0.0985
29066W        W45540  10.508   3.017   3.890 -0.2446 -0.0668  0.3443
29067W        W45541   3.472   0.904  12.548 -0.1367  0.2763  0.2436
29068W        W45542   9.865  13.609   1.202 -0.0886 -0.0799 -0.1534
29069W        W45543  11.344  11.052  13.991 -0.0927  0.2365  0.2532
29070W        W45544  11.789  13.360   6.631  0.0465 -0.2158  0.1701
29071W        W45545   8.509  17.403   3.788  0.2042  0.2204  0.1223
29072W        W45546  17.981   2.006  15.322 -0.3612 -0.0637  0.2099
29073W        W45547  11.840  12.062  11.448  0.0125  0.0601 -0.3155
29074W        W45548   4.941  16.437  13.330 -0.0747 -0.1549 -0.3550
29075W        W45549  13.241   8.634  15.513  0.2994  0.3510  0.1092
29076W        W45550   2.759   5.213   3.023 -0.2454  0.0610 -0.4836
29077W        W45551  10.242   0.803   0.263  0.1360 -0.4021  0.0720
29078W        W45552  11.465   6.135   4.593  0.0132 -0.0082 -0.1375
29079W        W45553   1.022   0.958   4.186 -0.1440  0.2501 -0.1802
29080W        W45554  10.536  12.626   3.647 -0.1054 -0.0405  0.1825
29081W        W45555  15.632   8.330  16.779 -0.0993  0.0487 -0.0829
29082W        W45556   0.261  10.140  16.148 -0.3306  0.6517  0.0415
29083W        W45557   6.074  12.407  15.988  0.1020  0.0516 -0.2813
29084W        W45558  15.658  17.477  13.091 -0.0529 -0.1958 -0.1224
29085W        W45559  13.015   3.261   0.429  0.0259  0.0406  0.0817
29086W        W45560  12.717   1.401   1.521 -0.1083 -0.2619  0.0382
29087W        W45561   3.388   3.811  14.735  0.0845 -0.1543  0.2141
29088W        W45562  11.960   7.157   1.689 -0.0124 -0.3198 -0.1709
29089W        W45563  12.569   3.957   3.699  0.1700 -0.2513 -0.0582
29090W        W45564   8.595   9.312  13.966  0.3032  0.2251  0.1452
29091W        W45565  10.255   1.676  12.282  0.1358 -0.0435 -0.1070
29092W        W45566   3.519   9.223  13.343 -0.2178  0.0492  0.0114
29093W        W45567   2.980   4.634   5.398  0.0332 -0.1601 -0.0464
29094W        W45568  15.284   3.774   2.128 -0.0361 -0.1943 -0.2334
29095W        W45569   1.088  14.988   2.358  0.1966 -0.0310 -0.2744
29096W        W45570   6.734   3.117   2.023  0.2765  0.2573 -0.0182
29097W        W45571   3.853   0.463  13.666 -0.0735 -0.2209  0.2742
29098W        W45572  11.649  16.296  15.232  0.0165  0.1567 -0.1758
29099W        W45573  11.399  11.156  16.318 -0.1948  0.0176 -0.2275
29100W        W45574   0.268   0.604  14.476 -0.0062 -0.5082  0.0678
29101W        W45575   4.304   0.339  14.338 -0.1180 -0.1539  0.1172
29102W        W45576   2.321   8.328   0.876  0.1777  0.0396  0.2624
29103W        W45577   6.455   5.026   5.874 -0.3236 -0.2135  0.1025
29104W        W45578   6.748  13.344   4.099 -0.0734  0.1154 -0.0227
29105W        W45579   0.086  13.144   2.940 -0.2153 -0.2584  0.3464
29106W        W45580   1.201   9.346   2.088 -0.1683 -0.2801 -0.1100
29107W        W45581  15.907  17.701   1.346 -0.0253 -0.0669  0.0011
29108W        W45582  14.593  14.264  14.854 -0.0168  0.1146  0.1542
29109W        W45583   3.691   9.959   5.767  0.0385  0.6734 -0.1131
29110W        W45584  16.731  15.222   4.052 -0.2938  0.3342  0.0032
29111W        W45585   0.324  16.078  15.915  0.2417 -0.5158 -0.2227
29112W        W45586  17.578  10.617  13.234  0.3536 -0.2152 -0.1391
29113W        W45587   1.728   7.640  15.742 -0.2277  0.0769  0.0877
29114W        W45588   3.561  11.461   0.289 -0.1406 -0.0721  0.0441
29115W        W45589   0.153  11.079  12.335 -0.2296  0.1559 -0.0438
29116W        W45590   7.345  15.747   1.307 -0.2004 -0.1429 -0.1114
29117W        W45591   6.551  12.166  13.181  0.4342 -0.0349  0.2815
29118W        W45592  13.034   4.721  12.996 -0.1741  0.2716 -0.1188
29119W        W45593  10.624   3.052   2.841 -0.0349  0.3001 -0.0434
29120W        W45594   4.733  10.282   1.779 -0.3095 -0.0229 -0.0119
29121W        W45595   9.690   2.215   2.331 -0.2630  0.0857  0.1232
29122W        W45596   9.670   2.067   4.103 -0.0814 -0.0804  0.0904
29123W        W45597  16.307   7.231   1.599  0.1846 -0.0207 -0.0291
29124W        W45598  11.050   5.117   3.010  0.3309  0.1651 -0.0374
29125W        W45599   9.743  16.936   5.529 -0.0601  0.0671  0.1586
29126W        W45600  11.889  12.611  15.764 -0.1315 -0.0942  0.0446
29127W        W45601  15.385  12.354   2.924  0.0852  0.2110  0.2746
29128W        W45602  16.831   0.750  14.453 -0.0439  0.1172 -0.0893
29129W        W45603   0.820  15.902  13.184 -0.1347 -0.1955 -0.0450
29130W        W45604   7.559  17.576   3.671 -0.2821  0.2412  0.0058
29131W        W45605   2.034  10.895  14.260 -0.1573 -0.0004  0.2091
29132W        W45606  11.880   7.378  12.267  0.0072 -0.1818  0.1271
29133W        W45607   1.313  10.431   3.092 -0.2652  0.1389 -0.2337
29134W        W45608   2.386   6.134   3.037  0.2452 -0.1509  0.3173
29135W        W45609  15.897   7.777   2.966  0.0247 -0.0511  0.1548
29136W        W45610  17.644   2.273  11.683 -0.3104 -0.0367 -0.0059
29137W        W45611  15.127   1.991   2.823  0.2443 -0.1240 -0.0391
29138W        W45612   3.119   0.544  14.420 -0.0035 -0.1498  0.0313
29139W        W45613   0.632   9.851   0.215 -0.0718  0.1997  0.0298
29140W        W45614   7.681  17.147   4.402 -0.0856 -0.2346 -0.1629
29141W        W45615  17.281   4.628  16.172  0.2886  0.2654  0.4212
29142W        W45616   6.778   8.934  11.984  0.3327 -0.3057  0.1578
29143W        W45617  13.179   4.448   2.815 -0.2860  0.0358  0.1293
29144W        W45618   6.588   9.470   1.959 -0.0299 -0.0604  0.0027
29145W        W45619  15.403   2.895   6.304  0.1013 -0.1693  0.2549
29146W        W45620   1.683   7.475  16.548 -0.2221 -0.0324  0.6120
29147W        W45621   6.083  15.686   0.132 -0.1368 -0.0512  0.0954
29148W        W45622   5.571   1.540  11.994 -0.1335 -0.0018  0.0512
29149W        W45623   9.505   0.273   4.449 -0.1536 -0.0402  0.1959
29150W        W45624  11.039   9.037   5.305 -0.0061  0.1403  0.1036
29151W        W45625   0.769   2.578  16.686  0.0403 -0.1648 -0.2082
29152W        W45626  17.238   8.635   1.998  0.3514  0.1424  0.1676
29153W        W45627   3.942   4.590   5.547  0.3443  0.4042 -0.1378
29154W        W45628   0.640  16.260  14.726 -0.0296  0.0443 -0.2287
29155W        W45629   6.038   3.796  12.337 -0.1368  0.1496  0.1611
29156W        W45630  14.362   5.496   5.276  0.0450  0.1872 -0.0730
29157W        W45631   4.337  10.101   4.509  0.1496 -0.3499  0.1481
29158W        W45632  15.243  11.128  15.674  0.0822 -0.4833 -0.3762
29159W        W45633  16.079   2.202  15.676 -0.1852 -0.0606 -0.1595
29160W        W45634  16.443  13.243   4.819 -0.0699 -0.0515 -0.0897
29161W        W45635   4.138   2.467  12.944 -0.0808 -0.3472 -0.3609
29162W        W45636   3.849   8.506  14.006 -0.0371  0.1420 -0.1341
29163W        W45637  17.237   7.687   2.328  0.0909  0.4593 -0.1199
29164W        W45638  17.055   9.633  11.279  0.1637 -0.2669  0.2560
29165W        W45639  17.625  17.311   1.103 -0.0734 -0.1877  0.0570
29166W        W45640   3.839   3.944  14.940  0.1614  0.1360  0.0976
29167W        W45641  16.408  12.920  15.970  0.1622  0.0742 -0.0547
29168W        W45642  14.466   3.692  12.891 -0.1876 -0.0562  0.0554
29169W        W45643   7.078   3.848  13.006  0.1380 -0.0793 -0.0280
29170W        W45644  13.078  16.432   4.226  0.0691  0.0133  0.1937
29171W        W45645   2.686   1.736  13.930 -0.0041  0.0375 -0.2105
29172W        W45646   6.775  12.503   1.976  0.0488  0.4594 -0.0188
29173W        W45647   8.462   2.431   3.034 -0.1620  0.2235 -0.0635
29174W        W45648   7.229   3.720   5.645 -0.1850  0.0319  0.2468
29175W        W45649  13.143   0.069   3.817  0.0098  0.2848 -0.2003
29176W        W45650  10.123   7.080  13.549 -0.2917  0.0508 -0.2704
29177W        W45651  12.605   1.744   5.578  0.1445 -0.2391  0.0713
29178W        W45652   0.499  11.405   3.299  0.3712 -0.1036  0.0493
29179W        W45653   1.842   6.197  16.159 -0.1448 -0.0939 -0.4021
29180W        W45654   9.637   3.322  14.334  0.0216  0.1652 -0.0338
29181W        W45655   6.695  17.427   4.212 -0.0754 -0.0287  0.0724
29182W        W45656  17.513   5.629   2.698 -0.5399 -0.0343 -0.3109
29183W        W45657   7.599  15.688  15.125 -0.0890  0.0624 -0.0211
29184W        W45658  16.506   8.916  12.444  0.0236  0.3330  0.0627
29185W        W45659   0.566  11.724  12.826 -0.2250  0.2018  0.2522
29186W        W45660  12.569  15.094   0.148 -0.0618 -0.0645 -0.0351
29187W        W45661   8.357   7.498   2.317 -0.0287 -0.2686 -0.0106
29188W        W45662   8.302  17.122  13.093 -0.2613  0.2795  0.0270
29189W        W45663   7.046  11.693  12.673  0.0666  0.0473  0.3019
29190W        W45664   1.861   0.465  12.876 -0.0509  0.4460  0.0432
29191W        W45665   7.351  17.292  13.287  0.0108 -0.0618  0.4793
29192W        W45666  11.867   1.450   3.333  0.0644  0.3052  0.3484
29193W        W45667  16.980  13.670   3.893  0.1284  0.1893 -0.3413
29194W        W45668   8.049   0.556  13.604 -0.0056 -0.0958  0.3039
29195W        W45669  11.712   7.340   1.203 -0.0624  0.2689 -0.0783
29196W        W45670  14.193   9.754  15.944  0.1948  0.1022 -0.0073
29197W        W45671  10.097   7.621  13.708 -0.0128  0.0273 -0.0742
29198W        W45672  11.122  11.419   0.454  0.0148 -0.1420 -0.2172
29199W        W45673  10.527  13.077  11.206 -0.1491  0.0692 -0.3256
29200W        W45674   6.797   9.165  11.519 -0.1809  0.0539 -0.0551
29201W        W45675   2.484   1.257   2.322  0.3823 -0.3134  0.1708
29202W        W45676  17.473  15.594   1.502  0.0357  0.3089 -0.0633
29203W        W45677  16.758   2.750   6.283  0.4608  0.0141  0.2383
29204W        W45678  11.688  16.537  13.636  0.2487  0.1693  0.2365
29205W        W45679  11.072   8.063   4.551 -0.0987  0.0970  0.1515
29206W        W45680   3.347   6.814   3.789 -0.3660 -0.1225  0.0623
29207W        W45681   6.347   2.432   2.130  0.0134 -0.1573  0.0420
29208W        W45682  12.674   7.945  13.134 -0.0255  0.2791 -0.2688
29209W        W45683  10.965   8.494  15.138  0.0234 -0.1108 -0.3179
29210W        W45684   6.900   9.847  13.409  0.0175  0.4784 -0.1285
29211W        W45685  10.093  17.200  11.337 -0.1155  0.0428  0.0451
29212W        W45686   4.327  14.544   5.240 -0.0187 -0.4638 -0.1744
29213W        W45687  17.334   4.212   2.479 -0.2411  0.1190 -0.3539
29214W        W45688  15.090  17.712   1.980 -0.2923  0.1364  0.1468
29215W        W45689   9.948   8.751  12.023 -0.3042 -0.4840  0.0290
29216W        W45690   0.365   0.112  14.417  0.4167 -0.0526 -0.3806
29217W        W45691  13.204  10.434   0.889  0.0822  0.4423  0.0983
29218W        W45692   5.410  14.383   0.723 -0.0210  0.1200  0.1933
29219W        W45693  13.755  11.319  11.388  0.1295 -0.3157 -0.0083
29220W        W45694   1.351  11.758   5.234 -0.0405 -0.0077  0.2096
29221W        W45695  16.721  16.517  13.290  0.0241  0.2238 -0.1652
29222W        W45696  15.191  17.221   0.204  0.1606  0.2695  0.0278
29223W        W45697   1.741  13.893  13.177 -0.0107  0.1748  0.3541
29224W        W45698   2.391  15.104   6.189  0.2616 -0.0285  0.1858
29225W        W45699   9.572   0.819   4.399  0.1429 -0.4052  0.3702
29226W        W45700  15.113  11.692   1.282  0.1278 -0.0834 -0.2170
29227W        W45701  15.338   8.218  13.693  0.1155 -0.3671  0.1275
29228W        W45702   8.614   0.008   2.319 -0.1672  0.0004  0.1209
29229W        W45703   7.021  11.528  12.044  0.2181  0.0782 -0.0584
29230W        W45704   9.157  15.723  13.835  0.0912  0.1680 -0.3407
29231W        W45705   9.495   8.299   5.967 -0.1045  0.3140  0.1098
29232W        W45706   8.169   4.492  15.681 -0.0519 -0.0548  0.1335
29233W        W45707   3.918   6.066   2.041 -0.1768 -0.1458  0.1853
29234W        W45708  17.028   3.297   2.640  0.3999  0.0275 -0.0923
29235W        W45709  10.018  13.564   0.726 -0.0215  0.3120 -0.0916
29236W        W45710   5.695   7.030  13.984 -0.4509  0.3510  0.1440
29237W        W45711  10.360  13.001  15.859 -0.2705 -0.4267  0.0267
29238W        W45712   8.698   5.941   4.598 -0.1917  0.2095 -0.1163
29239W        W45713  10.097  13.723  16.487 -0.1986 -0.0958  0.1241
29240W        W45714   0.195  17.394   4.222  0.0939 -0.1688 -0.0664
29241W        W45715   3.861  14.575  16.340 -0.1668 -0.3177  0.1141
29242W        W45716   9.352   9.126  16.182  0.1915 -0.0129  0.1508
29243W        W45717   3.900  12.228  10.928 -0.1439 -0.0106 -0.0601
29244W        W45718   1.846   6.589   2.353  0.0627  0.1212  0.0936
29245W        W45719   1.913  10.235   5.143  0.0526 -0.2136 -0.1056
29246W        W45720   2.128   0.578   2.672 -0.3876 -0.1152 -0.1179
29247W        W45721  17.419  17.772  12.038 -0.0177 -0.0365 -0.0156
29248W        W45722  11.194   3.111   1.052  0.0683  0.2715 -0.3195
29249W        W45723   9.766   5.147   2.058 -0.1394 -0.0830 -0.1492
29250W        W45724  10.256   5.970   0.842 -0.1173 -0.1503  0.0498
29251W        W45725   7.245   3.062   3.973  0.0788  0.3213 -0.0201
29252W        W45726  13.266   3.815   0.510 -0.1583 -0.0393  0.0185
29253W        W45727   7.650   9.668  12.875 -0.1064 -0.0179 -0.2621
29254W        W45728  14.087  12.335   2.801 -0.0712 -0.2270 -0.2032
29255W        W45729   7.725  13.138   5.492  0.0056  0.1039 -0.2176
29256W        W45730   8.072  11.398   4.212  0.0108  0.0678 -0.3511
29257W        W45731   1.964   8.436   4.186  0.1142  0.0875 -0.1726
29258W        W45732   7.493  17.327  16.639 -0.2503  0.2866 -0.2959
29259W        W45733  13.480   4.331   1.148  0.0550 -0.3253  0.0906
29260W        W45734   1.346  17.998   1.070  0.2625  0.2114 -0.2413
29261W        W45735  13.794   5.359   2.410  0.1710 -0.1395  0.0570
29262W        W45736   0.322   1.520   3.455  0.0454  0.0602  0.0028
29263W        W45737  16.406  17.762   5.826  0.1495 -0.0423 -0.1432
29264W        W45738   7.333   8.395   4.023 -0.0460  0.0639  0.0592
29265W        W45739  14.102  17.612  14.320  0.0683  0.2592 -0.0030
29266W        W45740  16.776  14.849   2.286  0.1353 -0.1895 -0.1644
29267W        W45741  11.118   7.021   4.191 -0.0210  0.3197  0.1973
29268W        W45742  17.219   7.037  14.240  0.0893  0.1961  0.2475
29269W        W45743  15.513  10.701  13.869  0.3337 -0.0413  0.0616
29270W        W45744   2.043  16.035   4.706  0.2498 -0.2456 -0.1777
29271W        W45745  14.069   7.368   3.811  0.1231 -0.1255 -0.3606
29272W        W45746   4.906   8.645   2.617  0.1031  0.0718  0.0715
29273W        W45747   3.139  10.336   2.215  0.2329 -0.2991 -0.0094
29274W        W45748  11.616   8.265   5.435 -0.3279  0.2594 -0.2056
29275W        W45749   0.860   4.434  12.751 -0.0786  0.2120 -0.0744
29276W        W45750   2.581   0.952   1.011  0.2966  0.0424 -0.2459
29277W        W45751  17.896  17.552  11.978 -0.1793 -0.2662 -0.0916
29278W        W45752   2.536  15.538   0.185 -0.0924 -0.0178  0.1589
29279W        W45753   9.588   3.096   4.595  0.2555 -0.3111  0.0267
29280W        W45754  11.942   2.554   3.025  0.0097 -0.0986  0.0357
29281W        W45755   1.678   0.853   1.326 -0.3264  0.1151  0.1032
29282W        W45756   6.151   3.880  16.342 -0.3947 -0.2690  0.1339
29283W        W45757   5.650   5.805  13.237 -0.1730 -0.1328  0.3371
29284W        W45758   8.451  16.281   2.036  0.3252 -0.2200  0.0161
29285W        W45759   7.782   1.637   4.995 -0.1185  0.2304  0.1003
29286W        W45760  14.811  16.159  16.247 -0.0460  0.0872 -0.1054
29287W        W45761  12.023  13.924  14.358 -0.0435 -0.0852 -0.0136
29288W        W45762   9.211   8.235  13.049 -0.0284  0.0452  0.2089
29289W        W45763  11.042  10.505   2.405  0.2266 -0.1416 -0.0930
29290W        W45764  17.870   3.712   4.031  0.1653 -0.0215 -0.1077
29291W        W45765   7.916   9.707   4.054 -0.1865 -0.1678  0.0293
29292W        W45766  15.807  14.022  13.215 -0.2051 -0.1959 -0.2255
29293W        W45767  15.130  17.971   2.939  0.0230  0.0747 -0.1290
29294W        W45768   5.701   3.263  14.696  0.1484 -0.4398  0.0365
29295W        W45769  11.356   6.603  12.126  0.1971 -0.1316 -0.0807
29296W        W45770  11.916   2.557   2.455 -0.2749  0.0225 -0.0341
29297W        W45771  15.513   8.121   0.891 -0.0751 -0.0601 -0.0663
29298W        W45772   5.415   1.027  12.734  0.2323 -0.0999  0.0526
29299W        W45773  17.418   8.897  15.842  0.0062  0.0336 -0.0400
29300W        W45774   9.000   7.940  13.450  0.2390  0.2110 -0.1858
29301W        W45775  12.421  17.429   2.426  0.0298 -0.3533  0.2305
29302W        W45776   0.825   0.468   0.741 -0.2303  0.0299 -0.1122
29303W        W45777   7.304  14.266  14.065 -0.2473 -0.0082 -0.1727
29304W        W45778  11.716  15.632   4.348 -0.2674 -0.2616 -0.3879
29305W        W45779  17.411  10.711   2.452  0.3979  0.0237  0.1046
29306W        W45780  12.761  16.822   4.177 -0.2412 -0.1941  0.2039
29307W        W45781  12.318  17.140   4.062 -0.2233 -0.0462 -0.2305
29308W        W45782  16.639  12.628  11.760  0.1642 -0.1203 -0.1088
29309W        W45783  11.839   6.554  12.314 -0.3698  0.1844 -0.0517
29310W        W45784  17.988   4.193   5.423  0.1951 -0.2476 -0.2052
29311W        W45785   8.849  13.663   3.830 -0.2929 -0.0547  0.2232
29312W        W45786   8.949  12.151  13.867 -0.0570 -0.1422  0.4094
29313W        W45787   1.471   2.665  15.667  0.2256 -0.1498 -0.0608
29314W        W45788  17.304   9.340   2.620 -0.0292 -0.3454 -0.1575
29315W        W45789   5.598   5.080  16.058 -0.0453  0.2562 -0.0819
29316W        W45790   8.333   1.137  15.253 -0.0048  0.0977  0.1042
29317W        W45791   3.632   8.479  16.412 -0.0003 -0.0470  0.2609
29318W        W45792   2.896  15.814  12.617  0.0405 -0.0435  0.0874
29319W        W45793   1.727   0.977   0.806  0.1385 -0.2251 -0.0754
29320W        W45794  11.958   6.706   2.555 -0.2525  0.1263  0.1217
29321W        W45795   0.157   8.442  12.858 -0.3681  0.1578 -0.0448
29322W        W45796   3.653  14.831  15.951  0.0758 -0.0749 -0.1078
29323W        W45797   7.780  12.215  15.699 -0.2290  0.2559  0.1585
29324W        W45798   6.237  16.858  15.780 -0.1276 -0.0025 -0.0966
29325W        W45799  10.830  11.449   0.002 -0.2022 -0.0772  0.0711
29326W        W45800   1.721   6.429  13.233  0.1440 -0.0085 -0.2581
29327W        W45801   9.261   6.956  13.405  0.2842  0.0153 -0.0464
29328W        W45802  12.831   9.165   5.053  0.1731  0.2451 -0.0613
29329W        W45803   4.773  16.273  16.518  0.2561  0.0495  0.1137
29330W        W45804   9.491  12.530   1.350 -0.3094  0.2260  0.0091
29331W        W45805  11.273   1.517   0.178  0.0864  0.2762  0.1718
29332W        W45806   7.712   0.851  16.429  0.0486 -0.0552  0.2788
29333W        W45807   5.882  11.931   3.642  0.1533  0.1537 -0.0127
29334W        W45808   6.591  11.816   4.127  0.0631  0.0299  0.3145
29335W        W45809   0.806   9.978  11.147  0.0222 -0.2055 -0.2146
29336W        W45810  17.899   3.248   5.024  0.0753 -0.1460  0.0972
29337W        W45811   6.191   8.280  13.718  0.0946  0.1506 -0.0342
29338W        W45812   8.127   1.069   5.450  0.3801  0.1676 -0.2083
29339W        W45813  10.337  10.425   0.301 -0.2243 -0.2984 -0.0689
29340W        W45814   3.011   8.878  15.594  0.1463 -0.1648  0.1631
29341W        W45815   6.674   2.482   3.895 -0.0226 -0.0162  0.2559
29342W        W45816  12.124   6.853   0.369  0.1469 -0.1860 -0.2223
29343W        W45817  13.611   4.775   3.000 -0.1331  0.0448 -0.1049
29344W        W45818  13.625  10.606   0.039  0.2989 -0.0112  0.3250
29345W        W45819  10.220   2.317   1.316 -0.0203  0.2358 -0.0886
29346W        W45820  11.817   1.765  13.491  0.0181 -0.0805 -0.1239
29347W        W45821   7.441   3.203   1.296 -0.0971 -0.0144  0.2323
29348W        W45822  14.492  15.142   3.094 -0.1158  0.2476  0.1088
29349W        W45823  14.186  17.294  12.167 -0.3244  0.2703  0.0899
29350W        W45824   7.624  13.571   2.463  0.0212 -0.4489 -0.1269
29351W        W45825   2.306  15.618  13.110  0.1224 -0.1517  0.0410
29352W        W45826  15.948  16.118  12.298 -0.1442  0.1085 -0.1159
29353W        W45827   4.711  16.663  15.688 -0.1600  0.1339 -0.0211
29354W        W45828   9.369  11.767   2.522 -0.0198 -0.1511  0.2935
29355W        W45829   1.469  15.085   2.825  0.0777  0.3070  0.0324
29356W        W45830   7.515  14.419  16.618  0.2094  0.0809  0.0760
29357W        W45831   3.487  13.980  15.144 -0.1702 -0.2180  0.0722
29358W        W45832   0.084  16.641   0.150 -0.1796  0.3927 -0.0295
29359W        W45833  11.340   3.498   1.430 -0.3219 -0.3023 -0.1161
29360W        W45834  11.597  13.975   4.836  0.1303  0.0537  0.0448
29361W        W45835  16.943  16.066   0.629  0.1533  0.0891 -0.0168
29362W        W45836   1.184  12.509   4.843  0.0766 -0.4003  0.0534
29363W        W45837   1.587   3.199   2.023 -0.0538 -0.1788  0.2128
29364W        W45838   7.710  17.561  12.777 -0.2831 -0.3010 -0.2609
29365W        W45839  14.285   3.861   1.205 -0.1030 -0.2229  0.1570
29366W        W45840   6.084   8.736   3.624 -0.2118  0.3847 -0.1076
29367W        W45841   3.684  14.502   1.170 -0.1041  0.1740  0.0673
29368W        W45842  15.412   4.099   5.177 -0.0987  0.0076 -0.1892
29369W        W45843   8.261  11.807  12.485 -0.1962  0.1181  0.2316
29370W        W45844  16.257   6.979  14.274  0.3987  0.0034  0.1016
29371W        W45845  11.881  12.991   2.269 -0.4839 -0.0238  0.0329
29372W        W45846  15.507  10.055   6.328  0.0334 -0.2483 -0.1326
29373W        W45847   8.155   1.129   1.260  0.0160 -0.0526 -0.1351
29374W        W45848  12.044   9.757   2.553  0.1056  0.0227 -0.1339
29375W        W45849   5.427   1.302   3.324  0.1915  0.1548 -0.2824
29376W        W45850  15.801   9.915   4.302  0.0345 -0.0004 -0.1604
29377W        W45851   6.077   6.789  12.005 -0.5271 -0.4447  0.2723
29378W        W45852   6.762   1.717   2.608  0.1231 -0.0017  0.1473
29379W        W45853   6.328  12.353  13.670 -0.1279 -0.1964  0.2149
29380W        W45854   6.538  13.093   3.288  0.2619 -0.2206 -0.0129
29381W        W45855   0.801  10.467   3.013 -0.1008 -0.0466  0.0491
29382W        W45856   3.385   0.937   4.056  0.0300  0.1837  0.0362
29383W        W45857  10.341   7.676   0.220 -0.0027  0.1320  0.3586
29384W        W45858   1.193  13.005  13.104 -0.1432  0.3645 -0.0976
29385W        W45859  14.919   5.943  13.130 -0.1888 -0.1038  0.0099
29386W        W45860   6.060  14.693   2.024 -0.1239 -0.2145  0.2488
29387W        W45861  13.310   6.092   4.522  0.1726 -0.0234 -0.1509
29388W        W45862  11.597  16.462   1.424 -0.2178  0.0922 -0.2555
29389W        W45863   0.875   5.835   5.106 -0.0888  0.4302 -0.2429
29390W        W45864   3.657  10.372   3.183  0.0889  0.2230 -0.3051
29391W        W45865  11.086   2.440   1.665 -0.0601  0.0408 -0.2134
29392W        W45866  15.840  17.149   4.282 -0.1548  0.3057  0.1197
29393W        W45867   8.524   7.888  13.655 -0.0235  0.2900 -0.1557
29394W        W45868  12.611  12.784  14.953 -0.1720  0.4594  0.2491
29395W        W45869  12.328   8.419   0.263 -0.0321  0.2226  0.1459
29396W        W45870   8.789  12.299  15.804  0.2303  0.1679 -0.0150
29397W        W45871   9.079   8.633  13.963  0.1127 -0.0616  0.4442
29398W        W45872   4.160  12.325  14.800 -0.1446 -0.3808 -0.1519
29399W        W45873   8.233   9.469   0.163  0.0627 -0.0377 -0.1066
29400W        W45874  12.486   4.839  12.946 -0.0403  0.1393 -0.0715
29401W        W45875  11.102  11.831  14.426 -0.0841  0.0629 -0.0698
29402W        W45876   7.415  12.980  15.156  0.1261 -0.2853 -0.0175
29403W        W45877   1.031  15.372   2.691  0.3335  0.0241 -0.1775
29404W        W45878  17.054   4.630  12.355  0.2664 -0.4669 -0.0309
29405W        W45879   2.075  13.334  15.090 -0.1504 -0.3971 -0.0965
29406W        W45880  14.053  10.240  13.389 -0.1648 -0.2167  0.4321
29407W        W45881  12.806  16.832   2.285  0.1646  0.3501  0.1046
29408W        W45882   3.706   5.109  11.584  0.1756 -0.0454  0.2118
29409W        W45883  12.589   9.815   1.864 -0.2834 -0.0419  0.1333
29410W        W45884   8.818  17.147   5.030 -0.0072  0.0377 -0.0825
29411W        W45885  10.850   1.209  16.340 -0.1336  0.0583  0.2872
29412W        W45886  12.755   0.825   5.706  0.0544  0.1649  0.3309
29413W        W45887  15.364  14.121   3.118  0.2535  0.1149  0.1913
29414W        W45888   3.665   3.064  13.288  0.2120 -0.0318 -0.0686
29415W        W45889   0.271   6.562  14.711 -0.0756 -0.2023  0.0603
29416W        W45890   9.842  12.075   5.179  0.0878  0.0346  0.0017
29417W        W45891  12.049  15.383   0.221 -0.1290  0.1429  0.1017
29418W        W45892  11.377   0.431   2.726 -0.0830  0.1303 -0.2592
29419W        W45893   0.244   6.991   4.631 -0.0323 -0.0971  0.3781
29420W        W45894  16.002   3.390   5.229  0.0944 -0.1091  0.0479
29421W        W45895   5.515   8.783   5.690  0.0839  0.1751 -0.0640
29422W        W45896   4.598  15.076  15.970 -0.0375 -0.3399  0.3381
29423W        W45897   5.902   7.689   1.702  0.0878  0.1622  0.1314
29424W        W45898  16.712   3.208   5.510  0.2314  0.2822  0.3538
29425W        W45899  16.787  12.557   2.521 -0.4523  0.4395 -0.2726
29426W        W45900   8.639  16.868  16.696 -0.0780  0.1567 -0.2568
29427W        W45901   3.793   8.004  16.221 -0.1200  0.0801 -0.1061
29428W        W45902  14.793  15.541   1.087  0.1582  0.2878 -0.0096
29429W        W45903  10.239  15.438  11.864 -0.0113  0.1874  0.3896
29430W        W45904   9.700   7.409  13.456 -0.0188  0.2049 -0.2597
29431W        W45905  11.030   5.932  13.239 -0.0990  0.0283  0.1340
29432W        W45906  13.124   6.085  14.020 -0.0213 -0.2414  0.1554
29433W        W45907   0.584   3.517   0.261 -0.2893  0.0418 -0.0436
29434W        W45908   6.287  10.981  11.716  0.0778 -0.1156 -0.2339
29435W        W45909   2.937  12.465  16.594 -0.2235 -0.2483 -0.2778
29436W        W45910  17.683   4.676   0.335 -0.0591  0.1219 -0.0648
29437W        W45911  11.339   9.914   0.717  0.1848 -0.0667 -0.1467
29438W        W45912  17.853  14.559   4.474  0.1749  0.0671  0.3703
29439W        W45913  14.784   0.328   2.998  0.2150  0.0874 -0.0163
29440W        W45914  13.770  15.575  12.297  0.1338  0.0204  0.0745
29441W        W45915   6.872  10.736   0.837  0.1791 -0.0527  0.1404
29442W        W45916   2.637  15.686  13.450 -0.2837  0.3253  0.1555
29443W        W45917   9.409  13.937   4.383 -0.2228  0.1062  0.0074
29444W        W45918   2.365  17.115  12.655 -0.2610  0.1008 -0.4144
29445W        W45919   6.395   5.631   3.644 -0.0327 -0.1403 -0.5988
29446W        W45920   8.636  10.849   5.004 -0.3249 -0.1333  0.2819
29447W        W45921   2.777   4.043  11.554 -0.3243  0.1777 -0.0545
29448W        W45922  17.505  17.847  15.098  0.1639  0.1426 -0.2891
29449W        W45923   8.421  16.524   3.697 -0.1893 -0.2700  0.2808
29450W        W45924   1.159   7.005  16.299  0.0304 -0.0406 -0.0692
29451W        W45925  11.738   0.500   0.150  0.1630 -0.0531  0.0533
29452W        W45926  16.195  11.552   1.956 -0.1615 -0.0244  0.1234
29453W        W45927   5.322   2.110  15.476  0.4030 -0.1145 -0.0020
29454W        W45928  10.933   0.757  13.745  0.0002  0.0031 -0.0143
29455W        W45929   8.581   0.577  15.832 -0.4569  0.0578 -0.3406
29456W        W45930   6.258   6.108  13.663  0.1501 -0.1513 -0.2007
29457W        W45931  17.399  16.366  15.434 -0.0462 -0.0374  0.0358
29458W        W45932   3.340  11.403   2.143 -0.0132  0.4477  0.2130
29459W        W45933   5.979  13.718   0.388  0.0407  0.1828  0.0314
29460W        W45934   0.921  16.795  15.710  0.0474  0.1975  0.0040
29461W        W45935  10.912  13.908  13.160 -0.3075  0.1182  0.0691
29462W        W45936   6.270  14.396   3.821 -0.0390 -0.1213 -0.1945
29463W        W45937   6.171  12.893  11.734  0.1233 -0.0088 -0.0780
29464W        W45938   2.771  16.592   4.994 -0.1049  0.1628 -0.0785
29465W        W45939  11.429   0.510   0.789 -0.0424  0.1060  0.3518
29466W        W45940  17.731   1.448   5.597  0.0166  0.2515 -0.2214
29467W        W45941   4.810  16.424   0.346  0.0693  0.0465 -0.0737
29468W        W45942  10.229   9.109  15.935  0.1799  0.1360  0.2397
29469W        W45943   4.646   5.598   4.487  0.3889  0.2413  0.2207
29470W        W45944   7.837  12.834   2.552 -0.1288 -0.0996  0.2215
29471W        W45945  10.025  17.859   1.982 -0.0398  0.0538  0.3550
29472W        W45946   2.194  13.289  12.596  0.1954 -0.0743 -0.1502
29473W        W45947  11.139   2.810   3.106 -0.0511  0.5399 -0.2216
29474W        W45948  15.622  17.074   4.741 -0.0639  0.2122 -0.3703
29475W        W45949   2.558   6.520  11.785 -0.2104  0.0033 -0.2960
29476W        W45950  11.585   0.471  15.491 -0.0548 -0.1877 -0.0713
29477W        W45951   4.533   3.525  14.854 -0.0245 -0.0516 -0.3234
29478W        W45952  14.504  17.612   0.632 -0.0633  0.0430 -0.0024
29479W        W45953   0.532   9.062   1.614 -0.3929 -0.2608 -0.0236
29480W        W45954   1.398   6.081   2.578 -0.0454  0.1033 -0.1124
29481W        W45955  11.194  13.742  11.840  0.0030 -0.1750 -0.0027
29482W        W45956  11.715   1.263   1.718 -0.1188  0.1778  0.1854
29483W        W45957   6.539  14.908  16.543 -0.1328 -0.1483  0.1346
29484W        W45958   1.289  15.736  13.415  0.0525 -0.2070  0.1488
29485W        W45959  15.638  17.958   2.861  0.2972  0.2114 -0.0687
29486W        W45960   5.953   0.632   1.727 -0.0185  0.5052  0.1767
29487W        W45961   2.461  13.120   1.732 -0.3142 -0.1708 -0.1654
29488W        W45962   7.021   7.608   1.148 -0.0450 -0.1322 -0.1781
29489W        W45963   3.706   2.324   0.259 -0.0159  0.1075 -0.1711
29490W        W45964   7.305   2.176   4.473  0.0384  0.0980  0.1113
29491W        W45965  14.046   1.458  12.161 -0.0958 -0.0051  0.1709
29492W        W45966   5.216   0.290  13.774 -0.1644 -0.0980  0.1696
29493W        W45967  11.629   3.936  14.019 -0.0759 -0.1275 -0.2846
29494W        W45968   1.795  14.301  12.062 -0.1353 -0.3142  0.1229
29495W        W45969   0.415   6.033  13.098  0.1804  0.0154  0.0728
29496W        W45970  16.974  10.739   1.235  0.0336 -0.0147  0.3414
29497W        W45971   5.043   3.199  13.477  0.0037 -0.0915 -0.2984
29498W        W45972  10.778   1.428   0.570  0.0156  0.4213 -0.1996
29499W        W45973   8.220   3.169  16.009  0.0009  0.0113  0.0598
29500W        W45974   9.299   7.153   1.625 -0.0293 -0.1449  0.0108
29501W        W45975  10.941  12.008   1.090 -0.1438  0.0554  0.1092
29502W        W45976   3.655   9.432   1.035 -0.1274 -0.1607  0.0022
29503W        W45977   2.106  14.964  15.860 -0.3771 -0.1293  0.0035
29504W        W45978   0.571   7.190  12.431 -0.0570 -0.2587  0.0481
29505W        W45979  15.206   3.861  14.653 -0.3151 -0.3963 -0.0479
29506W        W45980   8.582   9.881   1.129  0.2378  0.0674 -0.1642
29507W        W45981   3.275   2.726  13.399  0.1144  0.0508 -0.1546
29508W        W45982  13.123   8.558  11.546  0.3269 -0.2268  0.2443
29509W        W45983   2.704   8.088  15.497 -0.0130  0.2991 -0.2470
29510W        W45984   9.977   6.888  14.048 -0.1691 -0.1206 -0.0208
29511W        W45985   7.002   4.506  15.520 -0.0120  0.1173  0.2750
29512W        W45986   2.113  10.749  15.975 -0.1585 -0.1380 -0.2513
29513W        W45987   1.677   0.456  12.327 -0.2729  0.1710  0.4030
29514W        W45988   8.571   2.436   4.064 -0.0723  0.3014  0.0460
29515W        W45989  17.521  13.627  15.745 -0.1829  0.0961 -0.1659
29516W        W45990  13.659  13.760  15.970  0.0467  0.1812 -0.0336
29517W        W45991  16.205   8.948  15.998  0.5474 -0.2383  0.3669
29518W        W45992   9.649  16.548  14.478 -0.1852  0.0605 -0.2714
29519W        W45993  16.382  17.400  16.517  0.2333 -0.2716 -0.1169
29520W        W45994  13.538   7.523   1.449 -0.0752 -0.0258 -0.0186
29521W        W45995   4.163   1.583   4.772  0.0849  0.1423 -0.0008
29522W        W45996   0.603  16.450  16.190  0.2013 -0.1305 -0.0267
29523W        W45997   4.216  15.525  12.903 -0.0346  0.0374 -0.1000
29524W        W45998  12.531  15.369  14.950  0.0550  0.0683  0.1395
29525W        W45999   9.677  13.241   5.381  0.2456  0.1942 -0.1668
29526W        W46000  14.354  11.865  14.283  0.1126 -0.0963 -0.1268
29527W        W46001   4.128  13.014   1.310 -0.0898 -0.1211 -0.2730
29528W        W46002   9.544   0.633   1.130  0.0851 -0.1977 -0.1825
29529W        W46003  10.951   3.453   1.797  0.0552  0.2082 -0.1034
29530W        W46004  16.139   0.615   1.806 -0.1231 -0.0033  0.1507
29531W        W46005   0.362   2.296   0.066  0.0295 -0.0096  0.0767
29532W        W46006   3.883  14.689   5.469 -0.1128  0.0905 -0.1843
29533W        W46007   3.862   1.562   1.029  0.0511  0.0747  0.1337
29534W        W46008  12.253   4.977   2.742 -0.2131  0.2286  0.0897
29535W        W46009  17.711   2.310  15.762  0.0415  0.2085 -0.0202
29536W        W46010   7.785   1.827  12.750 -0.0558  0.0196  0.0149
29537W        W46011   4.760  13.440  15.249  0.1983  0.0883  0.0185
29538W        W46012  15.958  12.768  13.717 -0.2108 -0.3075  0.3779
29539W        W46013   7.381   9.542  14.067 -0.1079  0.1996  0.1313
29540W        W46014   3.688  12.863  16.093 -0.3462  0.0556  0.0327
29541W        W46015  12.048   5.207  13.084 -0.4055 -0.0719 -0.0295
29542W        W46016  15.657  13.530  14.250 -0.0719  0.1936 -0.1178
29543W        W46017   3.463   3.653  12.653 -0.0672 -0.0345 -0.0322
29544W        W46018  12.786  11.052  16.477 -0.1095 -0.0880 -0.1831
29545W        W46019   1.253   6.381   5.832 -0.1696 -0.0721 -0.1739
29546W        W46020   5.939   9.861  14.924 -0.0470  0.1870  0.1863
29547W        W46021  14.263  12.601   4.500  0.3513  0.2502  0.0059
29548W        W46022   4.348   9.659   1.086 -0.3486  0.0828  0.1941
29549W        W46023   5.138  12.233   0.368 -0.0757  0.1463  0.0428
29550W        W46024   7.313  15.381   0.982  0.0301 -0.2968 -0.0185
29551W        W46025  14.393  14.537   2.512  0.1583 -0.2235 -0.4793
29552W        W46026  11.451   0.377   4.360  0.0979  0.0891  0.2075
29553W        W46027  16.313  10.683   3.991 -0.1127 -0.2052 -0.0623
29554W        W46028   8.863   5.008   2.058 -0.0238  0.1086  0.0706
29555W        W46029   2.095  17.092  12.235  0.2274  0.0312 -0.1185
29556W        W46030   2.645  16.115   2.420 -0.1262  0.2476  0.0917
29557W        W46031  16.810   7.426  14.940  0.1549 -0.0880  0.0198
29558W        W46032   7.201   4.798   4.768  0.1321 -0.0299 -0.4245
29559W        W46033  17.721   0.107  13.604 -0.1853  0.1232  0.4174
29560W        W46034  12.551  13.003   0.025  0.2217 -0.2499 -0.0396
29561W        W46035   0.319  13.965  15.558 -0.1928 -0.0418 -0.0530
29562W        W46036   3.780  12.521   1.410  0.2050  0.1776  0.0058
29563W        W46037   1.849   2.796   5.480 -0.1049  0.1904  0.1106
29564W        W46038  15.496  11.752  12.289 -0.2690 -0.1288  0.1394
29565W        W46039  13.718   4.470  14.608 -0.3006 -0.3074 -0.3080
29566W        W46040   8.452   7.463  15.935 -0.0895  0.5309  0.1560
29567W        W46041   5.594   8.487  12.482 -0.1258  0.0654 -0.0305
29568W        W46042   0.630  13.412   2.304  0.3354 -0.1583  0.2346
29569W        W46043  15.345   8.548   0.485  0.0745  0.1044  0.1949
29570W        W46044  16.773  17.223  15.298  0.0009 -0.0000  0.2220
29571W        W46045   7.032   2.650  11.005 -0.1392  0.1716 -0.1196
29572W        W46046  16.673   6.955  13.981  0.1770  0.1212  0.2422
29573W        W46047  15.603   7.634   0.177  0.1034 -0.3618  0.0192
29574W        W46048   0.895   4.982   3.334  0.0282  0.2337 -0.2343
29575W        W46049   7.316  11.200  14.933 -0.3124  0.1339  0.3639
29576W        W46050  13.454  14.351   1.429  0.1110  0.4609 -0.1410
29577W        W46051   9.361   6.326   4.866  0.2058  0.2820  0.1218
29578W        W46052   1.889   8.947  14.965 -0.2300  0.1192  0.3088
29579W        W46053   0.875  11.684   3.476  0.1375 -0.1308  0.1137
29580W        W46054  13.012   8.224   0.959  0.0906 -0.1832 -0.0684
29581W        W46055   3.166  12.690   0.192  0.1291  0.1331  0.1714
29582W        W46056   7.193  15.368  16.043 -0.1356  0.1088  0.0379
29583W        W46057   2.481   1.612   1.003  0.2303 -0.0166  0.0271
29584W        W46058  13.192  15.689  15.648  0.2420 -0.1064 -0.0861
29585W        W46059   1.049   2.470  14.057  0.2240 -0.1494 -0.1080
29586W        W46060  13.863  12.093   1.920  0.1286 -0.0759 -0.3128
29587W        W46061   2.851   4.928   2.546 -0.1038  0.1062 -0.1330
29588W        W46062  12.326   0.160  15.025  0.2457  0.4403 -0.0919
29589W        W46063   5.868   1.595   3.369 -0.0106 -0.0114  0.1782
29590W        W46064   4.143  11.982  11.421  0.1204  0.1911 -0.1832
29591W        W46065  16.996  11.401   5.796  0.2431 -0.0209  0.1323
29592W        W46066   1.507   0.007   4.905 -0.0502  0.1051 -0.2056
29593W        W46067   2.461  12.843   4.902 -0.0346  0.2545 -0.2528
29594W        W46068   5.663   9.438  15.029 -0.0669 -0.0452  0.1462
29595W        W46069   4.702   5.101   0.831  0.1714 -0.1931 -0.1997
29596W        W46070   0.006   0.886  14.970  0.0076  0.0946 -0.0613
29597W        W46071  14.155  15.920  15.680 -0.3129 -0.3119  0.0199
29598W        W46072  12.060   6.094  12.284  0.0229 -0.0510 -0.0221
29599W        W46073   3.774   1.620  11.630 -0.1507  0.0628  0.2355
29600W        W46074   1.979  17.576  13.947  0.0590 -0.0217 -0.1550
29601W        W46075   1.947  12.321   1.491  0.0459 -0.2020 -0.1850
29602W        W46076   1.923   8.895   2.194  0.0928  0.2830 -0.1367
29603W        W46077   7.914   8.163   1.334 -0.0055  0.2081  0.0177
29604W        W46078   6.440  17.373  11.614 -0.1804 -0.0171  0.2674
29605W        W46079  10.720  13.641   4.593  0.0300  0.0285  0.1532
29606W        W46080  10.991  14.578  11.821  0.0054 -0.1850 -0.0189
29607W        W46081   6.204  13.238  13.509 -0.2736 -0.1735  0.2374
29608W        W46082   3.060   7.680  15.336  0.0071  0.2602  0.1076
29609W        W46083   6.464   9.641   4.512  0.5306 -0.0425 -0.1068
29610W        W46084   3.219   3.618   0.871 -0.1181  0.0697 -0.1672
29611W        W46085   5.234  11.767   2.429  0.0485  0.0207  0.2939
29612W        W46086   2.809   8.430  11.889 -0.0518  0.1688  0.0596
29613W        W46087  17.950  11.510  14.395 -0.2377  0.1831 -0.1524
29614W        W46088   2.480  15.937  13.861  0.5096 -0.2188 -0.1905
29615W        W46089   6.393  16.501   2.687 -0.0989  0.2775 -0.0015
29616W        W46090  16.946  12.150   1.323  0.0179  0.1634  0.3273
29617W        W46091   9.690   7.884   1.164 -0.0251 -0.2453  0.3309
29618W        W46092   9.041   3.822   1.592 -0.3357 -0.0645  0.0748
29619W        W46093  16.469  10.531   3.549 -0.0574  0.0513 -0.1096
29620W        W46094  12.387   3.081  13.013  0.2597  0.1322  0.0617
29621W        W46095  13.974   1.298  15.999  0.0241 -0.1132 -0.0843
29622W        W46096   1.879  11.442   0.118  0.0401  0.1250 -0.0712
29623W        W46097  11.942   4.778   0.551  0.1624 -0.1073  0.1947
29624W        W46098   1.452  11.395  16.058 -0.1003  0.0283 -0.2146
29625W        W46099  11.773  11.676   0.009 -0.0447 -0.3259  0.0640
29626W        W46100   9.581   8.366   5.118  0.2785  0.2273  0.3383
29627W        W46101  12.934  12.155   4.986 -0.0767 -0.3010  0.0872
29628W        W46102   9.240   4.131   2.863 -0.3103  0.2278  0.2057
29629W        W46103  16.333  17.100  16.071  0.0094 -0.0555 -0.0313
29630W        W46104   5.428  17.577   3.588  0.0621 -0.1383 -0.3164
29631W        W46105   8.897  16.629   3.746 -0.0411  0.0500 -0.5129
29632W        W46106  11.884   9.547  15.660  0.0007 -0.0072  0.1331
29633W        W46107  10.116  13.512   2.452  0.3220 -0.0109  0.0122
29634W        W46108   8.869  16.082   2.538  0.0272  0.0008  0.0046
29635W        W46109   3.036  11.676  16.723 -0.0795  0.3006  0.0940
29636W        W46110   7.870  15.316  11.575 -0.1503 -0.0475 -0.1523
29637W        W46111  17.698   7.339  13.710 -0.3586 -0.1420 -0.0814
29638W        W46112   9.233  11.743   3.544 -0.0333 -0.0925 -0.1605
29639W        W46113   5.703   4.376  13.323 -0.0722  0.1011 -0.1908
29640W        W46114   2.355   1.656   2.051  0.1076  0.0614  0.2606
29641W        W46115  17.603   8.797  16.643  0.1975 -0.0345  0.2185
29642W        W46116   3.733   5.079   2.157  0.1347  0.1000  0.3743
29643W        W46117   5.111  17.116  11.676 -0.1840  0.3096 -0.2268
29644W        W46118  15.447   0.509  15.225  0.1530 -0.2613  0.1578
29645W        W46119  16.872  16.280  13.840 -0.1949 -0.2624 -0.0270
29646W        W46120   8.089   0.619  16.736 -0.0348  0.0360 -0.0786
29647W        W46121   3.091   9.527  16.590 -0.1434  0.0559 -0.0087
29648W        W46122   6.656   9.927  12.895  0.4825  0.0138 -0.1597
29649W        W46123   4.960   5.532   0.849 -0.0351 -0.4996  0.0811
29650W        W46124   8.094   0.524   4.394 -0.0321 -0.1233 -0.0357
29651W        W46125   1.540   2.495   4.666 -0.0552  0.0998 -0.1702
29652W        W46126   7.750   6.682   1.904  0.2413  0.0864  0.0561
29653W        W46127   8.170   8.864   5.089  0.0134 -0.0511  0.0964
29654W        W46128   8.096   7.204  15.552 -0.0081 -0.3700 -0.0384
29655W        W46129   1.644   2.373  12.989 -0.1136  0.1551  0.2282
29656W        W46130  12.716   8.537   2.269  0.0577 -0.0407  0.1077
29657W        W46131   0.580  15.191   0.796 -0.3039 -0.0071  0.2434
29658W        W46132  13.299   9.563  15.911  0.2770 -0.1071 -0.2699
29659W        W46133  13.752   8.633   0.305  0.0636  0.2684  0.1679
29660W        W46134   0.952   9.214   3.456  0.0490 -0.2657 -0.0572
29661W        W46135  15.198  12.105  12.553 -0.0419  0.0921  0.0784
29662W        W46136   1.029   2.003  10.795 -0.0162 -0.0295  0.0338
29663W        W46137   6.943   9.113  15.515 -0.1463  0.0659  0.2216
29664W        W46138   3.651   9.704  15.325 -0.1333  0.0385 -0.0133
29665W        W46139   3.238  11.308   1.673  0.1771  0.1494 -0.0639
29666W        W46140  15.982  15.777   0.520 -0.3050  0.0876 -0.2634
29667W        W46141   3.571   5.846  12.092  0.2845  0.0757 -0.0916
29668W        W46142   5.901  10.684  15.655 -0.2959  0.1841  0.1362
29669W        W46143   7.270   3.365   2.018  0.2520 -0.3404 -0.1036
29670W        W46144   2.930  16.440   3.484 -0.0247  0.2223 -0.3228
29671W        W46145   1.292   9.025  15.487 -0.0776  0.1457  0.2324
29672W        W46146   1.441   5.493  11.561  0.0061 -0.2389  0.0964
29673W        W46147   2.407   5.812  12.964 -0.4375  0.0095  0.1735
29674W        W46148   2.944  15.046   0.796  0.0357 -0.0133  0.2638
29675W        W46149   6.290   0.570  14.530 -0.3450  0.0690  0.3311
29676W        W46150  13.592  11.041   2.007 -0.0505 -0.3471 -0.2110
29677W        W46151  12.534   2.440  13.630  0.1160 -0.1980 -0.0675
29678W        W46152  17.839   5.339  12.272  0.2026 -0.0837 -0.2084
29679W        W46153   8.278  15.759  12.365  0.0818 -0.0719  0.1065
29680W        W46154  14.640   1.156   2.362  0.1115  0.3909 -0.0054
29681W        W46155  16.726   6.440   0.746  0.1537 -0.1065  0.0030
29682W        W46156  15.607   2.526  14.705  0.1195 -0.0243  0.1001
29683W        W46157  11.154   0.626  16.616  0.0603  0.1077 -0.0021
29684W        W46158   1.505  11.180   1.727 -0.2115  0.1642 -0.0856
29685W        W46159   6.703  12.859  15.643  0.1399 -0.0659  0.0795
29686W        W46160  11.044   1.165  14.769 -0.1293  0.1822 -0.1888
29687W        W46161   1.187   8.248   4.346  0.1664 -0.1089  0.1418
29688W        W46162  16.066  10.783  15.894  0.2448 -0.1483 -0.1555
29689W        W46163  14.308   7.198  13.228  0.0452  0.2782 -0.0312
29690W        W46164   8.163  15.554   3.529  0.1965 -0.3781 -0.1290
29691W        W46165   4.935  10.741  14.086 -0.0940  0.2548 -0.1659
29692W        W46166   0.960  16.190   6.095 -0.0744 -0.4483  0.0094
29693W        W46167   2.805   8.791  13.123 -0.0637 -0.0405 -0.1682
29694W        W46168  12.994  17.951   0.463 -0.1188 -0.3193  0.4222
29695W        W46169  11.031  15.976   4.208  0.1686 -0.0740 -0.0863
29696W        W46170   1.628   8.276  14.171  0.0618  0.1254  0.3424
29697W        W46171   7.507  14.706  10.545  0.0708  0.0733  0.1798
29698W        W46172   0.381   2.554   1.824 -0.3272  0.0630  0.1671
29699W        W46173   8.349   0.904   4.068 -0.0212  0.1173  0.1036
29700W        W46174  14.203  14.085  14.549  0.0135  0.0130 -0.0007
29701W        W46175   1.188  16.396  13.754  0.2376  0.1310 -0.1433
29702W        W46176   7.214  12.964  16.508 -0.2577 -0.1719  0.0091
29703W        W46177   8.390   2.062  12.991  0.2813 -0.1424  0.0889
29704W        W46178   7.132  12.044   3.267 -0.4270 -0.0575 -0.2851
29705W        W46179   8.898  17.887   0.229  0.2456 -0.0412  0.1420
29706W        W46180  11.932   0.475   0.599 -0.1759  0.1355 -0.0682
29707W        W46181   6.752   6.783  15.762  0.1656  0.1247  0.1085
29708W        W46182   8.757  10.443   3.249 -0.1515 -0.3531 -0.0681
29709W        W46183  11.219   0.053   0.728 -0.1424 -0.0279 -0.0031
29710W        W46184   2.407   6.882  11.298 -0.2308  0.3381  0.1394
29711W        W46185  13.786  12.184   3.194 -0.1408 -0.0058 -0.0555
29712W        W46186  13.131   9.863   3.686 -0.0335 -0.2431  0.0655
29713W        W46187   6.049  12.188  14.498  0.0142  0.1059 -0.0701
29714W        W46188   3.521  16.918  11.525  0.2017 -0.1315  0.0043
29715W        W46189  11.914  15.088  16.643 -0.0505  0.1209 -0.1513
29716W        W46190  12.751   0.452   2.798 -0.1396 -0.0118  0.1565
29717W        W46191  13.826   2.039  12.332 -0.0989  0.0037 -0.1632
29718W        W46192  15.895   2.648  16.010  0.0205  0.0241 -0.1334
29719W        W46193   8.200   1.093  16.582  0.0066 -0.2155  0.0896
29720W        W46194   9.104   5.934  14.465  0.0358  0.3654 -0.5439
29721W        W46195   6.250  17.619   4.280 -0.2051  0.1395  0.0922
29722W        W46196   4.407   4.970  12.488 -0.0096  0.0306  0.2221
29723W        W46197  16.418   5.823  16.276 -0.2618  0.3406 -0.1769
29724W        W46198   1.664   3.956   1.903 -0.1020 -0.0839 -0.0776
29725W        W46199   8.010  10.716  14.693 -0.0857  0.1584 -0.2937
29726W        W46200   5.154  12.661   3.823  0.0800 -0.3725 -0.1851
29727W        W46201  11.904   9.477   4.441 -0.1330 -0.0467 -0.1210
29728W        W46202  17.897   3.231   3.140  0.0581 -0.2134  0.0887
29729W        W46203  16.138   7.116   5.220  0.1364  0.2766  0.1735
29730W        W46204  13.699  13.047   2.328  0.0094 -0.0430  0.1107
29731W        W46205  11.499   3.235   2.981 -0.0054  0.0693 -0.1720
29732W        W46206   9.103  15.264   3.229 -0.1499 -0.0901  0.1370
29733W        W46207  11.903  10.725   3.551 -0.2146 -0.0574 -0.1742
29734W        W46208  17.262  13.660  12.394  0.1206  0.2572  0.1368
29735W        W46209   8.114   1.553  15.283 -0.4538  0.0387 -0.0604
29736W        W46210   2.364   9.015  14.154  0.1711 -0.0945  0.1123
29737W        W46211  13.470   7.820   1.954  0.1946 -0.2242 -0.0044
29738W        W46212   6.126   9.293  14.786 -0.2282 -0.2736 -0.0946
29739W        W46213  16.260   3.142  14.336  0.2887  0.0453  0.2077
29740W        W46214   6.707   5.245   1.986 -0.0534  0.0420  0.4023
29741W        W46215   1.394  10.167   4.913  0.0848 -0.0176  0.0761
29742W        W46216  16.609  10.299   1.357  0.1727  0.0499  0.0430
29743W        W46217  13.769   8.725   3.169  0.0760  0.0488 -0.2695
29744W        W46218  13.029   3.833  15.885  0.2364  0.0007  0.0986
29745W        W46219   5.939  15.481  15.127  0.0610 -0.1307 -0.0026
29746W        W46220  12.407  16.508  14.878  0.3855  0.0331  0.3723
29747W        W46221  15.778   2.538   0.077  0.2711 -0.3295  0.0121
29748W        W46222   5.672   8.494   4.886  0.2105 -0.1553 -0.0495
29749W        W46223   0.023   2.550   2.941  0.0557  0.3374  0.1950
29750W        W46224  12.244  12.775   5.273  0.1202  0.0532  0.0912
29751W        W46225  17.656   1.154  16.575 -0.0194 -0.1217  0.1630
29752W        W46226   8.155  10.566   0.127  0.0921  0.3377 -0.0395
29753W        W46227   2.286   7.349  14.922  0.1473  0.0399 -0.0073
29754W        W46228  12.398  13.916  13.399 -0.0080 -0.0401 -0.3141
29755W        W46229   5.644   3.061   3.727 -0.2439  0.1826  0.0173
29756W        W46230   7.445  17.231  16.046 -0.1126 -0.0794  0.5128
29757W        W46231   3.930   6.277  11.914 -0.1709  0.0472 -0.1105
29758W        W46232  17.024  12.377   2.902  0.1970  0.2979 -0.1240
29759W        W46233   0.884   2.477  16.253  0.0339  0.0178  0.0533
29760W        W46234   8.606  15.590  16.713  0.2652  0.2902 -0.0171
29761W        W46235   0.182  12.290  16.044  0.1833 -0.0195  0.1503
29762W        W46236   0.274  16.457   0.678 -0.3983  0.1275 -0.1313
29763W        W46237  13.931   8.897  15.693 -0.2647  0.0513  0.2399
29764W        W46238   8.409  13.135   1.392 -0.2355 -0.0583  0.0454
29765W        W46239   8.243  17.574  12.198  0.1981 -0.1753  0.0093
29766W        W46240  12.368   3.008  11.924 -0.1336 -0.4148 -0.2540
29767W        W46241  11.548   4.516  15.805 -0.2136  0.1160  0.1040
29768W        W46242   1.553   9.494   0.899 -0.1575 -0.0472 -0.0817
29769W        W46243   6.614   0.688  11.401 -0.2286  0.1956  0.2498
29770W        W46244  12.632  14.462  14.548  0.1239 -0.1444  0.0993
29771W        W46245   8.520  15.579  15.506  0.2716  0.0139 -0.2491
29772W        W46246  17.626   4.981   4.873 -0.2894  0.2142 -0.1092
29773W        W46247  13.198   2.737  12.296 -0.1813 -0.0345  0.0421
29774W        W46248  11.207  12.917   0.728 -0.2470 -0.2075  0.1000
29775W        W46249   7.342   5.523  14.389  0.0288  0.0583 -0.3610
29776W        W46250   8.662   2.601   5.136  0.0613 -0.1299 -0.1217
29777W        W46251   8.682  15.292   4.138  0.3435 -0.1094  0.1758
29778W        W46252  13.973  16.754   0.231 -0.0072  0.0083  0.2081
29779W        W46253  13.546  17.869  14.981  0.0178 -0.2868 -0.1366
29780W        W46254   4.567  17.050  12.178 -0.2446  0.0300  0.0986
29781W        W46255  17.206   5.050   1.090 -0.3362  0.1445 -0.0792
29782W        W46256   9.085   1.220  15.156 -0.0001  0.2046  0.1646
29783W        W46257  10.097   4.298  15.870 -0.0488 -0.0256  0.1616
29784W        W46258  13.556   2.514   2.786  0.1017 -0.0152 -0.1083
29785W        W46259  14.559   2.152  14.931 -0.0891  0.2769 -0.1198
29786W        W46260  10.471   6.252   6.394 -0.2260  0.1665  0.0865
29787W        W46261   4.893   0.714   2.701 -0.1237 -0.3718  0.1901
29788W        W46262   2.986   5.381  13.276 -0.0946  0.0618 -0.1718
29789W        W46263  11.187   7.393   0.663 -0.0845 -0.0504 -0.6905
29790W        W46264  11.291   0.184  12.055 -0.0855 -0.1851  0.0152
29791W        W46265   9.858  12.940  12.751 -0.1346 -0.1596  0.0439
29792W        W46266  15.785   0.329   6.433  0.1020 -0.0479 -0.0477
29793W        W46267   8.883  15.926   2.045  0.0211 -0.0994  0.0076
29794W        W46268   7.465  16.441  15.521  0.0716 -0.0803 -0.0625
29795W        W46269   2.618  15.354   3.225  0.0363  0.0429  0.1530
29796W        W46270   1.057  14.637  13.832  0.2259 -0.0890 -0.1634
29797W        W46271  11.615  16.193   4.630 -0.0237  0.1048 -0.2599
29798W        W46272  15.344  15.162  15.248 -0.0729  0.1872  0.1348
29799W        W46273   0.255  15.533  14.527  0.1919  0.0147 -0.0162
29800W        W46274   8.746   8.383   1.609  0.0895 -0.0503 -0.1550
29801W        W46275   5.674   8.383   5.343 -0.1953  0.1468  0.1542
29802W        W46276  13.239   5.769   0.885 -0.0825  0.0060 -0.0643
29803W        W46277  12.716   3.853   1.959 -0.0863  0.0412  0.1775
29804W        W46278  17.596   8.475   2.353 -0.1001 -0.0767  0.0374
29805W        W46279   6.416   5.927   4.091  0.1912  0.5590 -0.5088
29806W        W46280  11.713   7.873   2.403  0.1025  0.2773 -0.3669
29807W        W46281  14.186  17.932   3.797 -0.2893  0.1499 -0.0815
29808W        W46282   8.962  10.193  14.143  0.2679  0.2365  0.1281
29809W        W46283  14.074  17.632  13.407 -0.0143  0.0106 -0.1473
29810W        W46284   3.052  16.242  13.745  0.0227 -0.0569 -0.4374
29811W        W46285   1.090  15.037  16.278 -0.1325  0.3111  0.2399
29812W        W46286  11.774   8.716  14.758 -0.1053 -0.1640  0.0615
29813W        W46287  11.681   4.069   5.917 -0.0810  0.0352 -0.0737
29814W        W46288   9.623  17.982  14.195 -0.0273  0.1787 -0.2305
29815W        W46289   6.578  12.299   5.027 -0.0860  0.1227  0.0936
29816W        W46290   3.762  16.673  15.553  0.1636 -0.2031  0.0517
29817W        W46291   7.975   8.063   5.550 -0.0130 -0.1525  0.2857
29818W        W46292  13.070   6.873   3.659  0.2274 -0.2701  0.1836
29819W        W46293  12.978   4.324   3.772 -0.0075 -0.1237  0.1245
29820W        W46294   8.297  12.260  14.726  0.0052 -0.0366 -0.2352
29821W        W46295   4.097   0.805  12.734  0.2142  0.1204 -0.0108
29822W        W46296   5.894  13.621   2.190  0.1731  0.0505 -0.0747
29823W        W46297   9.713   7.352  13.958 -0.2704 -0.2678  0.0155
29824W        W46298   2.630   7.805   1.426 -0.2227 -0.0190 -0.1256
29825W        W46299   0.611   2.039   4.684  0.3530 -0.0303 -0.1067
29826W        W46300  13.099  17.479   4.679  0.0481 -0.0622  0.1501
29827W        W46301  16.294   4.493   1.249  0.2365 -0.2098  0.0939
29828W        W46302  16.981   4.254   2.143  0.1836 -0.1231  0.0881
29829W        W46303  13.964  14.539   3.649  0.0360  0.1553  0.1260
29830W        W46304   8.788  10.186  16.157 -0.2051 -0.1984  0.0460
29831W        W46305  14.409   0.880   3.097  0.4009  0.3027 -0.3864
29832W        W46306   2.775  14.730   2.635  0.2079  0.0015  0.1913
29833W        W46307   6.409  10.636  15.638 -0.2545  0.2043 -0.0752
29834W        W46308   3.564  11.201   4.275  0.1189 -0.0159 -0.3356
29835W        W46309   6.042  10.807  12.138  0.1471  0.4960  0.0272
29836W        W46310  17.446  12.425  11.383  0.2710  0.0515  0.0243
29837W        W46311   3.790  17.231  16.467 -0.0683  0.2262  0.1387
29838W        W46312   3.910   9.184   4.482  0.0363 -0.1139 -0.0478
29839W        W46313  14.540   6.945  16.574  0.1889 -0.0884 -0.1272
29840W        W46314  11.774  10.936  15.012  0.0756 -0.1926  0.2069
29841W        W46315   0.965  14.137  14.626 -0.2840  0.4139 -0.1026
29842W        W46316   8.316  14.274   3.562 -0.1361  0.1214 -0.0266
29843W        W46317   1.713   7.695   3.907 -0.3374  0.0695  0.5041
29844W        W46318   6.875   7.341   1.687 -0.1412  0.0281  0.1632
29845W        W46319   6.318   9.624   2.792 -0.3350  0.1420 -0.2029
29846W        W46320   1.326  17.917   2.387  0.1858  0.0318  0.2365
29847W        W46321   2.266  13.839   5.328 -0.0591  0.1092 -0.0999
29848W        W46322   4.906  16.347  12.794  0.0006 -0.3168  0.0938
29849W        W46323  17.745   4.209  13.558 -0.1972  0.0648  0.0214
29850W        W46324  13.775   6.516   2.716  0.1887 -0.1276  0.1223
29851W        W46325   9.991   9.937   1.622  0.1538  0.0941  0.1204
29852W        W46326   6.829   2.643   2.211  0.2079 -0.0963  0.0917
29853W        W46327   3.687  10.305  14.030 -0.2616  0.1364 -0.2696
29854W        W46328   5.555  13.995   5.087  0.1541  0.0139 -0.0350
29855W        W46329   7.283   1.372  14.297  0.2070 -0.2421 -0.1622
29856W        W46330  11.408  14.728  13.483 -0.0472 -0.0583  0.0548
29857W        W46331  15.366   3.664   0.978 -0.1219  0.3308  0.0340
29858W        W46332  11.750   3.710  15.332  0.1707 -0.1151  0.0769
29859W        W46333  10.271  14.087  12.552  0.1069 -0.0328  0.1583
29860W        W46334  11.887   2.192   5.761 -0.0609  0.1253  0.1834
29861W        W46335  11.604   8.327   3.161  0.0252  0.1987  0.1422
29862W        W46336  12.820   7.885   5.616 -0.1068  0.0621 -0.1565
29863W        W46337   5.843  17.692  15.765 -0.0211 -0.0818  0.4309
29864W        W46338   3.560   1.188   3.672  0.0426 -0.0173  0.0266
29865W        W46339  15.006  11.962  15.805  0.2769  0.1971  0.0755
29866W        W46340   6.187   1.564  14.251  0.3269  0.1589  0.0307
29867W        W46341   4.644   5.631  11.783 -0.3265  0.0959  0.0427
29868W        W46342   0.449   2.182  14.552  0.0494 -0.0727  0.0317
29869W        W46343  15.961  13.963  12.655 -0.1580  0.1365  0.0122
29870W        W46344   8.962   1.557  13.717  0.0039 -0.5253 -0.1685
29871W        W46345   9.028  13.638  16.277 -0.1226 -0.0810 -0.0773
29872W        W46346   7.383  12.549   2.525  0.2030 -0.3551 -0.0262
29873W        W46347  15.853   0.361  14.935 -0.2390 -0.0177 -0.1564
29874W        W46348   8.873   0.887   0.528  0.1406 -0.0667 -0.2761
29875W        W46349   2.442   0.645   4.860 -0.0928 -0.1633 -0.1048
29876W        W46350   3.724   9.791   3.063 -0.0979  0.0538 -0.0076
29877W        W46351  10.993   4.101   4.519 -0.1930  0.0369 -0.0351
29878W        W46352  15.895   2.697   0.700  0.0575  0.1100 -0.3219
29879W        W46353   5.326  10.267   0.291  0.0488  0.1948  0.4911
29880W        W46354   9.433   1.977  14.506  0.2011 -0.3287  0.0778
29881W        W46355   9.324   4.673  14.621  0.1490  0.0912  0.1300
29882W        W46356  14.113  17.775  15.179  0.0470 -0.1391 -0.2315
29883W        W46357  15.903  10.084   1.915  0.2187 -0.0541 -0.1823
29884W        W46358  15.634   9.344   1.680 -0.3982  0.0565  0.0020
29885W        W46359  10.925  10.969  13.768 -0.0297 -0.0112  0.1997
29886W        W46360   8.517   5.744   5.013  0.1015  0.1607 -0.3051
29887W        W46361   0.606  16.022   1.264 -0.0971 -0.4976 -0.0680
29888W        W46362   9.036   9.355   1.559 -0.0623  0.1877 -0.3208
29889W        W46363  14.326   2.480  13.109 -0.0968 -0.1590  0.1647
29890W        W46364   9.371   3.089   1.980 -0.1348 -0.0642  0.1111
29891W        W46365  12.265   7.433  11.857  0.1748 -0.2648  0.1042
29892W        W46366  11.748   0.830   3.349 -0.0935 -0.0388 -0.2227
29893W        W46367   4.534   0.626  11.648  0.0950 -0.0509  0.1889
29894W        W46368  17.462  12.061   3.815 -0.0414  0.3339 -0.1467
29895W        W46369  12.754   6.236  12.373  0.5021 -0.0916 -0.1632
29896W        W46370   6.962  11.045   2.547  0.2842 -0.0834  0.1831
29897W        W46371  13.472   9.510  12.481 -0.1012 -0.1014  0.1035
29898W        W46372  10.965  17.514  15.244 -0.0844 -0.2430  0.2244
29899W        W46373  13.169   3.225  13.655  0.2252  0.0045  0.0444
29900W        W46374  16.971   8.875   0.609 -0.3773  0.1540  0.0216
29901W        W46375  11.563   7.782   3.787  0.3713 -0.0912 -0.2180
29902W        W46376   6.070   3.793  11.806 -0.0424  0.0691 -0.0622
29903W        W46377  17.622  15.106   0.632  0.2661 -0.3287 -0.1670
29904W        W46378   0.693  12.268  15.634 -0.0318  0.1987  0.0686
29905W        W46379  11.519  13.546   4.001  0.1465  0.0928  0.0286
29906W        W46380   6.541  15.803  12.662 -0.1836  0.2775  0.0303
29907W        W46381   5.066   8.520  15.715 -0.1131  0.1085  0.1655
29908W        W46382  16.070   9.559  11.834  0.1964 -0.0004  0.1869
29909W        W46383  17.982  15.404  12.654 -0.0378  0.1917  0.0317
29910W        W46384  13.303   7.270   3.957  0.1629 -0.1505  0.0882
29911W        W46385   1.437  14.300  13.658 -0.2133  0.2090 -0.2852
29912W        W46386   7.266   2.707   1.122  0.2783 -0.0479 -0.0761
29913W        W46387   5.808  11.051  11.779 -0.4351 -0.0334  0.0465
29914W        W46388   3.855  12.914   4.284  0.0959  0.0774  0.0013
29915W        W46389   5.485  15.361   5.244  0.0590 -0.1561 -0.1230
29916W        W46390   1.515   9.141   4.065 -0.0043  0.2327 -0.0537
29917W        W46391  13.521   1.502  14.849 -0.0567  0.1759  0.1931
29918W        W46392   3.180  17.620  14.836  0.0575 -0.1837 -0.1992
29919W        W46393  16.690   7.032   1.867  0.0251  0.0462  0.2497
29920W        W46394  17.851   9.584  14.504  0.1685 -0.0276 -0.1206
29921W        W46395   1.831  11.620  11.030 -0.0188  0.1373 -0.0936
29922W        W46396  16.464   6.824  15.574  0.0241  0.0151  0.2049
29923W        W46397   8.687   4.513   3.900  0.0934 -0.0118  0.0062
29924W        W46398  15.931  13.840   1.883 -0.1777 -0.2540  0.1614
29925W        W46399  10.357  17.080   1.875 -0.1859 -0.1646  0.0772
29926W        W46400  16.487  11.407  15.733  0.1256 -0.3091  0.1674
29927W        W46401  14.921  11.540  12.575  0.3203  0.1011  0.0129
29928W        W46402   9.489   7.246   5.262  0.1981 -0.2278 -0.0817
29929W        W46403  15.772  10.556   4.123  0.3058 -0.3095  0.0723
29930W        W46404  12.828  12.649  15.552 -0.0197 -0.0527  0.0685
29931W        W46405  17.434  14.135  15.811 -0.1132 -0.2812  0.0684
29932W        W46406   4.306  15.254   1.489 -0.1924 -0.0207 -0.1109
29933W        W46407   5.289   2.520   1.689  0.1722 -0.0674  0.0900
29934W        W46408  12.366   2.783  14.107  0.0552  0.0878 -0.3152
29935W        W46409   0.352   0.445   1.998 -0.3472  0.0730  0.1115
29936W        W46410   6.582  12.789  11.472 -0.1162 -0.1488  0.0767
29937W        W46411  16.017   5.195   4.674  0.1712  0.0101  0.1938
29938W        W46412  11.719   0.024   2.707  0.2777 -0.2141 -0.1834
29939W        W46413   8.242  16.433  13.702 -0.0598 -0.0075 -0.0879
29940W        W46414  17.790  13.306  14.503  0.1504  0.0540 -0.1467
29941W        W46415   9.631  17.547  15.343  0.0714  0.0685 -0.0446
29942W        W46416  17.622   0.761   3.036  0.1501  0.2327  0.3087
29943W        W46417   2.584  15.703   1.712 -0.1151  0.0714  0.0563
29944W        W46418  12.509   0.861   2.657 -0.2670 -0.2303  0.2872
29945W        W46419  14.889   2.762  14.607 -0.2759 -0.0999 -0.2260
29946W        W46420  12.821   4.666   2.245 -0.2857  0.0148  0.0865
29947W        W46421   2.841   1.776  16.710  0.0740 -0.3248  0.1800
29948W        W46422   4.999  17.717  14.584  0.0439 -0.3976 -0.1381
29949W        W46423   0.854   5.325   0.544 -0.2080  0.0690  0.1510
29950W        W46424   9.820  16.139   5.724 -0.0222  0.1234  0.1180
29951W        W46425   0.139   5.080  14.046  0.2083  0.2593  0.1270
29952W        W46426  11.472  16.580   1.874 -0.0741 -0.2381  0.2656
29953W        W46427  15.986  10.537   4.943  0.2881 -0.0393 -0.1460
29954W        W46428   4.856  14.213   2.544  0.1193 -0.2802 -0.0678
29955W        W46429   3.044  16.398   2.354  0.0709 -0.2269  0.1316
29956W        W46430   9.893  14.212   3.519 -0.2301 -0.0001 -0.0481
29957W        W46431   3.975  17.043   4.678 -0.0171  0.1723  0.0189
29958W        W46432  15.025   1.571  13.919 -0.0673  0.2080 -0.2010
29959W        W46433   5.239  14.270  14.941 -0.1783 -0.0767  0.3538
29960W        W46434   0.550  17.087   2.183  0.1813 -0.1842  0.1070
29961W        W46435   6.858   0.145  11.796  0.2589 -0.2528 -0.1485
29962W        W46436  13.630   1.743   0.010 -0.1784 -0.0653 -0.0827
29963W        W46437  15.496  12.800   2.426  0.0402  0.2242  0.3255
29964W        W46438  10.672   1.552  14.721 -0.0092  0.0614  0.1481
29965W        W46439  15.140  13.402   1.934 -0.2191  0.2049 -0.4079
29966W        W46440  15.219   6.424  13.340 -0.3009 -0.1227  0.2080
29967W        W46441  16.363   5.252  12.627 -0.1363 -0.0778 -0.1634
29968W        W46442   3.218  13.568   4.413  0.1949  0.0120  0.0758
29969W        W46443   6.564   2.608   0.482 -0.1038 -0.0740 -0.0124
29970W        W46444  15.669  14.884   0.575  0.0083 -0.0776 -0.0584
29971W        W46445   5.610   1.934   4.781  0.2109 -0.1340 -0.3911
29972W        W46446   0.309   4.871  15.903 -0.0105  0.2844  0.1630
29973W        W46447   7.937   3.685  15.291 -0.2642 -0.1025  0.0986
29974W        W46448   7.088  14.748   3.684  0.1062  0.1955 -0.0818
29975W        W46449   5.262   4.522  12.245 -0.0480 -0.0208 -0.1975
29976W        W46450   8.524   4.548  13.700 -0.3056  0.1617 -0.1983
29977W        W46451  13.175  10.146  14.901 -0.1123 -0.0038  0.1940
29978W        W46452   3.443  15.113  12.996  0.0955  0.0054 -0.2809
29979W        W46453   2.699   6.738   2.106  0.1126  0.1130 -0.1141
29980W        W46454   8.004   5.812   4.939 -0.0016 -0.2331  0.0376
29981W        W46455   0.520   7.944  16.166 -0.2194 -0.1227 -0.3204
29982W        W46456   2.066   0.677  13.887 -0.0254 -0.0942 -0.1034
29983W        W46457   4.194   6.712  13.393  0.1884  0.1304  0.0066
29984W        W46458  16.026  10.406   3.247  0.2826 -0.1047  0.0658
29985W        W46459  14.423   0.827  12.222 -0.1097 -0.1333  0.0092
29986W        W46460   8.000   2.471   0.614  0.0039  0.0067 -0.2144
29987W        W46461   7.110   2.654  12.703  0.3155 -0.2518 -0.1170
29988W        W46462   0.195   7.787  15.562  0.1032  0.2294  0.0436
29989W        W46463   2.902  15.111  11.607  0.0550  0.1190  0.1553
29990W        W46464   7.090  12.391  16.694  0.3569  0.3831 -0.0393
29991W        W46465  12.296   7.880   5.812 -0.0441  0.1099  0.1600
29992W        W46466  16.001   8.751  14.706 -0.0407 -0.1589  0.0325
29993W        W46467  17.426  12.973  11.518  0.0336 -0.1510 -0.1623
29994W        W46468   4.087  13.311   0.890  0.0683  0.4035 -0.0937
29995W        W46469   8.875   8.280   0.139 -0.0515 -0.2857  0.1420
29996W        W46470  11.605  16.147   3.172  0.1206 -0.0516  0.0898
29997W        W46471   3.828  11.391   4.620 -0.0857  0.0386 -0.0690
29998W        W46472  13.899   1.645   2.500 -0.3197 -0.1719  0.0414
29999W        W46473   5.031   1.752  14.387 -0.1476 -0.1435 -0.0817
30000W        W46474  16.934   7.211   2.379  0.1045 -0.0186  0.3630
30001W        W46475   0.955   6.250   0.145  0.0151 -0.1864  0.0738
30002W        W46476  13.961  11.450   4.201  0.0046 -0.1834  0.3153
30003W        W46477  17.344   1.922   3.449  0.1940 -0.0122  0.1266
30004W        W46478   2.179   9.668  12.271  0.1938 -0.1536 -0.0696
30005W        W46479   0.558  16.898   5.438  0.1012  0.1593  0.1164
30006W        W46480   8.152   6.662   4.571  0.2511  0.1110 -0.1381
30007W        W46481   0.916  10.621   1.259 -0.1218 -0.2043 -0.0261
30008W        W46482  17.037  10.452  16.343 -0.1437 -0.0247 -0.0345
30009W        W46483   2.930  16.979   5.969  0.2235  0.4308  0.2132
30010W        W46484  15.344  17.240   1.923  0.0670 -0.3996  0.1457
30011W        W46485   6.140  11.546  12.506  0.1641 -0.2894  0.0002
30012W        W46486   5.545  12.320  15.289  0.1072 -0.1901 -0.0166
30013W        W46487  10.673   6.569   5.080 -0.1246  0.3246 -0.2488
30014W        W46488  15.003   6.129   0.724  0.2182  0.1841 -0.0776
30015W        W46489   3.749   9.883  15.786 -0.0395 -0.1097 -0.2177
30016W        W46490   0.017   5.036  13.500 -0.0129 -0.3292 -0.1357
30017W        W46491  15.274  12.546  12.960 -0.3214 -0.2183 -0.1679
30018W        W46492   8.823   7.408   3.567 -0.2363  0.0699 -0.1532
30019W        W46493   4.998   7.711  12.723 -0.0134 -0.0480 -0.1641
30020W        W46494  13.134   3.106  12.655  0.3264 -0.1740 -0.1730
30021W        W46495   5.582   7.436   1.978  0.0292  0.1576 -0.1802
30022W        W46496  11.787   7.359  16.515 -0.3141  0.2548 -0.1661
30023W        W46497  13.202   6.198   2.572 -0.3673  0.1902 -0.0669
30024W        W46498   4.755  14.114   3.844  0.0339 -0.2733  0.0215
30025W        W46499  17.950  13.622  11.898  0.1457  0.4123  0.1449
30026W        W46500   0.491   5.243   3.110  0.0194  0.0973  0.0222
30027W        W46501  16.100  12.737  14.318 -0.2792  0.0252  0.1314
30028W        W46502   9.250   9.868   3.041 -0.1815 -0.1312 -0.1152
30029W        W46503   8.930   3.693  13.451 -0.0159 -0.3488 -0.0891
30030W        W46504   0.250   9.100  14.922  0.0312 -0.1654 -0.0462
30031W        W46505  11.272  15.294  13.897 -0.2903 -0.1375  0.1232
30032W        W46506   8.470   9.095   2.774  0.1438  0.0145 -0.2411
30033W        W46507  14.447  11.638   2.412  0.1329  0.1178 -0.1558
30034W        W46508  15.141   2.150   4.781 -0.3402 -0.0405 -0.1003
30035W        W46509  15.643  17.555  16.148  0.0661  0.0081  0.1014
30036W        W46510   4.514   4.027   1.547  0.0643 -0.0421  0.2197
30037W        W46511  16.223   0.752  14.695  0.1247 -0.1606  0.1086
30038W        W46512   3.082   4.117   5.706  0.1714  0.2579 -0.1663
30039W        W46513  17.454   8.861   0.866 -0.2579 -0.1013  0.3335
30040W        W46514  10.251  16.142   5.362  0.0128  0.0507  0.1635
30041W        W46515   4.783  13.569  16.304  0.2604 -0.0395  0.0195
30042W        W46516   3.423  13.740   3.321  0.1777  0.0899  0.1922
30043W        W46517  12.427  11.715  10.416 -0.0821 -0.1214  0.2794
30044W        W46518   9.544   0.495   0.648 -0.2774  0.1978  0.0459
30045W        W46519  11.709   3.574   0.550  0.1807 -0.1013 -0.1270
30046W        W46520  10.037   3.730   2.260 -0.0384  0.2686  0.2047
30047W        W46521   2.352   1.266   0.214 -0.0423 -0.2832 -0.1523
30048W        W46522  16.545   3.147  11.746 -0.0900  0.0292 -0.2505
30049W        W46523   9.921   8.357  15.306 -0.0545  0.4282  0.2099
30050W        W46524   7.628   2.184   4.964  0.3297 -0.0910  0.1433
30051W        W46525  17.409  10.532  15.311 -0.1094 -0.0663  0.0045
30052W        W46526   1.936   2.761  13.058 -0.2541  0.0788 -0.1261
30053W        W46527   4.817  15.180   1.416  0.1858 -0.0681  0.0282
30054W        W46528  16.408   1.014  12.629 -0.1525 -0.0813 -0.0963
30055W        W46529   2.504  13.362   2.674  0.0909 -0.1578  0.1882
30056W        W46530  11.754  15.265  12.559 -0.1929  0.0926  0.1514
30057W        W46531  10.637  17.131   1.424 -0.0341 -0.2542  0.0573
30058W        W46532   9.270   1.975   2.210  0.0034  0.0771  0.0470
30059W        W46533   4.828  10.216  15.742 -0.0220  0.0522 -0.0469
30060W        W46534   5.130  16.993   2.893  0.0796  0.0518 -0.2428
30061W        W46535   6.391   5.457   2.356 -0.0583  0.2011  0.1095
30062W        W46536   9.426   6.390  15.816 -0.2926 -0.3544  0.0512
30063W        W46537   9.676  13.648   4.025  0.1619  0.2781 -0.1353
30064W        W46538   7.334   5.572  14.898  0.0385 -0.1261 -0.2136
30065W        W46539  17.511   6.585   1.885  0.1097 -0.1748  0.2826
30066W        W46540   8.391   3.676   5.377 -0.1249  0.2339  0.1903
30067W        W46541   6.928   7.001   3.931 -0.0076 -0.3826 -0.1617
30068W        W46542   7.164   7.218  15.860  0.4649 -0.1437 -0.0674
30069W        W46543   9.014  16.792  13.732  0.3891  0.1278 -0.0030
30070W        W46544   8.438  14.771   2.134  0.3145  0.0044 -0.0636
30071W        W46545   5.967   8.862  11.220 -0.1170  0.1042  0.2882
30072W        W46546  12.944  10.833  15.405 -0.0136  0.1556  0.0886
30073W        W46547  17.751  14.557   2.301 -0.0535  0.2017 -0.0080
30074W        W46548  14.256  15.009  16.069 -0.1835 -0.3321  0.2763
30075W        W46549  13.319  14.273   5.266  0.0412 -0.0344 -0.1212
30076W        W46550  15.893   3.039   0.042 -0.0564  0.2543  0.1441
30077W        W46551   8.966   3.800   4.059 -0.0254  0.1076  0.2452
30078W        W46552  10.088  11.252  11.499 -0.1650  0.2074  0.2032
30079W        W46553  16.986   3.005   5.928 -0.0199 -0.1719 -0.0295
30080W        W46554  15.888   4.780   5.364  0.0571  0.3613 -0.1467
30081W        W46555   2.006  14.632   0.251  0.1122  0.3290  0.0222
30082W        W46556   0.293   5.264  15.536 -0.0395 -0.2006 -0.1415
30083W        W46557   5.039   2.981   0.678  0.0417  0.0433 -0.0273
30084W        W46558   2.296   3.429  16.615 -0.0100  0.1367  0.1928
30085W        W46559  12.301  10.912  16.484  0.2099  0.0913 -0.2618
30086W        W46560   5.694   5.498   2.110 -0.1020  0.1181  0.0287
30087W        W46561  12.029  12.326   1.803 -0.0798 -0.0326 -0.1095
30088W        W46562   3.263  14.246   1.169 -0.1232 -0.0679 -0.3711
30089W        W46563   9.879  17.941   5.435 -0.1392  0.2642  0.1200
30090W        W46564   9.564  17.729   4.114  0.1937  0.1207  0.0622
30091W        W46565   0.198  12.833  12.286  0.0854 -0.1543  0.5478
30092W        W46566   5.523  13.973   5.916 -0.0629  0.1220  0.0832
30093W        W46567   3.400  11.176  11.027 -0.0143  0.1752 -0.1256
30094W        W46568  12.050   5.306  16.193  0.0722 -0.3259  0.0079
30095W        W46569   1.754   8.100  12.288  0.1250 -0.0983 -0.1655
30096W        W46570   7.811   2.125   0.254 -0.1344  0.2748  0.1997
30097W        W46571  15.093  17.141  12.824  0.2073  0.1142 -0.2120
30098W        W46572  10.638  15.590  14.602  0.1564  0.3298  0.0209
30099W        W46573  16.121   1.821  14.673 -0.0698  0.1134  0.3195
30100W        W46574  16.408   7.611  13.474  0.2833 -0.1499 -0.3279
30101W        W46575   6.783  11.721   0.845 -0.0091  0.0670  0.1088
30102W        W46576  15.445  10.680  16.524 -0.3197 -0.1173 -0.2237
30103W        W46577  10.412   3.491   3.823  0.1448 -0.0145 -0.0787
30104W        W46578  17.053  14.650  15.605  0.0941  0.0382  0.1485
30105W        W46579  17.538   8.914   5.528 -0.0701 -0.1063 -0.1821
30106W        W46580  14.274  14.913   3.745 -0.3338  0.0340  0.2784
30107W        W46581   9.062   2.053  16.184  0.1101 -0.0229 -0.1129
30108W        W46582  11.486  17.287  13.841  0.2846  0.1884 -0.1547
30109W        W46583  15.418  13.355   1.255  0.0592  0.2460  0.1290
30110W        W46584  12.274   6.976   5.458  0.2521  0.0297  0.0761
30111W        W46585  15.581   8.377  14.667 -0.1900  0.0179 -0.2898
30112W        W46586  16.420   5.209  15.996 -0.0201 -0.1278  0.2015
30113W        W46587   4.168   2.141  12.573 -0.3196  0.0535 -0.1042
30114W        W46588   3.220   9.427  13.928 -0.0295  0.1658  0.1795
30115W        W46589  15.108  10.699  13.589  0.1422 -0.2884 -0.1583
30116W        W46590  12.074   6.292   2.849 -0.2280 -0.0091  0.0033
30117W        W46591   3.619   9.518   1.949  0.1502  0.0437  0.0511
30118W        W46592   3.310   8.386   3.316 -0.1231 -0.0297  0.2978
30119W        W46593   9.647  11.185   4.988 -0.1006 -0.0988 -0.2441
30120W        W46594  17.414  16.360  14.208  0.0394  0.0891  0.1272
30121W        W46595  14.333  11.733  12.249 -0.2825  0.0553 -0.0645
30122W        W46596   8.867  10.541   0.538 -0.2268  0.2733  0.0588
30123W        W46597  11.012   7.169  13.511  0.1914 -0.0300  0.0249
30124W        W46598   4.204   0.793   3.635 -0.0745 -0.0721 -0.0297
30125W        W46599  10.734  11.831  12.510 -0.0239 -0.1546 -0.2886
30126W        W46600  10.346  10.041  14.361 -0.0392  0.1952 -0.0137
30127W        W46601   9.667   0.976  12.305 -0.2183  0.2074  0.3433
30128W        W46602   0.141   0.869   1.193  0.1533  0.1474  0.3778
30129W        W46603   8.873   9.816   4.064 -0.0523  0.0889  0.1964
30130W        W46604  12.867   6.954   4.652  0.0978 -0.0474 -0.1402
30131W        W46605   6.791  14.419   0.797 -0.0189 -0.1361 -0.4194
30132W        W46606   2.331   6.635  13.317 -0.0852 -0.2140 -0.0282
30133W        W46607  16.215   2.444   4.077  0.0855 -0.3686 -0.1722
30134W        W46608  10.543  16.118   1.616 -0.1881 -0.2104 -0.1493
30135W        W46609   5.319   9.930   2.086 -0.0840 -0.1216  0.1167
30136W        W46610  16.110   6.983   3.750 -0.2217  0.2731 -0.0158
30137W        W46611   2.832  12.483  13.235 -0.0450 -0.2106  0.1307
30138W        W46612   5.251   1.717   0.277  0.5038 -0.0436  0.0283
30139W        W46613   9.941  16.649  16.206 -0.0786 -0.2129 -0.0738
30140W        W46614  15.916  17.297  15.774 -0.0165  0.0314 -0.0614
30141W        W46615  17.521  13.870  11.999  0.1184  0.3801 -0.1283
30142W        W46616  17.376  17.650   5.085  0.2445 -0.0416 -0.0244
30143W        W46617  14.992   6.627  14.323 -0.0283 -0.3062 -0.2115
30144W        W46618  15.520  17.937  14.833 -0.0507 -0.2633  0.1804
30145W        W46619   4.215   3.123  16.169  0.0845 -0.1320  0.1778
30146W        W46620   3.749  10.903  14.601 -0.2727 -0.1662 -0.2317
30147W        W46621   0.314  17.526   2.439 -0.0574 -0.0731  0.0820
30148W        W46622  14.157   7.347   0.954 -0.2460  0.0405  0.1489
30149W        W46623  13.950   0.538   1.835  0.1748  0.2308 -0.0442
30150W        W46624  16.752  12.386  14.144 -0.0133 -0.0421  0.0556
30151W        W46625   7.009   7.718  11.888 -0.2607 -0.0027 -0.0884
30152W        W46626   2.185  15.496  13.562 -0.1566 -0.0944  0.0527
30153W        W46627  12.831  11.273  15.632  0.1652 -0.1212  0.2794
30154W        W46628   7.072   8.899   2.864 -0.1833  0.0147 -0.0241
30155W        W46629   7.205  15.180   4.587  0.1881 -0.2420  0.1393
30156W        W46630  14.502  13.357   1.114 -0.2892 -0.1653  0.0701
30157W        W46631   5.909   3.315  13.374  0.1098  0.1873  0.0092
30158W        W46632   9.014  17.191   1.169 -0.3897 -0.0182 -0.0740
30159W        W46633   5.688   9.327   1.774  0.0637 -0.2536  0.1748
30160W        W46634   0.894   4.633   0.988  0.1088  0.2262 -0.0798
30161W        W46635  14.450   9.732   2.697 -0.2131  0.1051 -0.2444
30162W        W46636   9.304   7.201   0.793  0.2710  0.1082  0.3160
30163W        W46637  12.111   9.054   2.697  0.1151 -0.1734 -0.0761
30164W        W46638   5.879   5.745   1.736  0.3580 -0.0005 -0.0916
30165W        W46639  17.802   3.165  12.852  0.1251 -0.1179  0.1828
30166W        W46640  11.105  13.871   3.777  0.2512 -0.0774  0.0051
30167W        W46641   1.850   9.954   1.835 -0.0133  0.1906 -0.2757
30168W        W46642   2.829   8.139   5.515  0.0113  0.1061  0.1175
30169W        W46643  13.688   9.926   3.481 -0.2075 -0.1904  0.0518
30170W        W46644  10.582   9.532   3.883  0.0022  0.0764 -0.0477
30171W        W46645   8.733   1.653   4.111  0.0201  0.1205  0.3202
30172W        W46646   1.578  13.746   4.347 -0.0780 -0.1041  0.2295
30173W        W46647   1.381   8.504   2.372 -0.0292 -0.1587  0.1384
30174W        W46648  13.875  14.515   4.561  0.1743 -0.1631 -0.0160
30175W        W46649  17.177  12.978  16.507 -0.0826 -0.6082 -0.0496
30176W        W46650   6.506   8.500  15.829  0.1458  0.1050 -0.0953
30177W        W46651   2.963  17.530  13.861  0.2284 -0.0303  0.2408
30178W        W46652  10.517  16.163  15.988  0.0103  0.3575 -0.2953
30179W        W46653   3.688  13.334  14.335 -0.0188  0.4375  0.1193
30180W        W46654  11.049  15.757   2.541  0.0608  0.0993  0.0346
30181W        W46655   1.186   3.470  15.278 -0.0300 -0.0966 -0.1389
30182W        W46656  12.955   6.965   5.518  0.0385 -0.0304 -0.1251
30183W        W46657  17.599  10.046  14.471  0.3010  0.1434  0.3477
30184W        W46658  13.441  13.518  12.205 -0.3770 -0.1545 -0.3146
30185W        W46659  15.382  14.564   2.847  0.1074  0.3291  0.1401
30186W        W46660  13.431   7.931   5.347 -0.0717  0.4453  0.1114
30187W        W46661   3.723   7.440   3.288 -0.0605  0.3382 -0.2009
30188W        W46662   2.328  10.650   0.197 -0.2123  0.0142  0.1503
30189W        W46663   7.243  16.795   0.690 -0.0182  0.0582 -0.3501
30190W        W46664   7.542   3.785   1.203  0.2359 -0.0139  0.0943
30191W        W46665   9.740  17.049   3.113 -0.0155  0.0687 -0.1673
30192W        W46666   6.631   8.526   2.818 -0.2479  0.1495 -0.1036
30193W        W46667  17.418  15.220   4.615 -0.0067 -0.1013 -0.1246
30194W        W46668   8.187   0.524  11.184  0.0203  0.0078  0.2950
30195W        W46669  14.775  16.315   0.572 -0.0006 -0.3384 -0.4408
30196W        W46670  10.751  13.701  16.700  0.0217 -0.1098  0.2248
30197W        W46671  11.464  13.735   1.889 -0.2223 -0.1019  0.0024
30198W        W46672   6.540   5.044  12.054  0.4510 -0.1340  0.2272
30199W        W46673  17.546  10.953   4.243  0.0736 -0.0987 -0.1696
30200W        W46674   9.400   1.764  14.934 -0.0035 -0.2210 -0.2145
30201W        W46675   5.362   7.377  15.939 -0.1519 -0.1618 -0.3683
30202W        W46676   8.825  16.691   3.306  0.1841 -0.1017  0.0546
30203W        W46677  17.164   0.493   0.317 -0.0805 -0.3193  0.2418
30204W        W46678   2.356  13.338  13.869  0.2170  0.1372  0.0721
30205W        W46679   0.469  17.450  15.514 -0.0043 -0.4263 -0.0089
30206W        W46680  15.568   2.474  13.489 -0.2204  0.1003  0.0391
30207W        W46681   6.700  11.694   1.336 -0.4118 -0.2925 -0.0390
30208W        W46682   2.187  15.056   4.598  0.4138  0.0407  0.1775
30209W        W46683   2.371   9.508   0.618 -0.3099  0.1079 -0.1787
30210W        W46684  17.198   3.850   0.817 -0.1999 -0.2163  0.0157
30211W        W46685   5.277   7.682  15.057 -0.1845 -0.4935  0.1555
30212W        W46686  13.273  13.154   1.149  0.1723 -0.0128  0.2155
30213W        W46687   9.490   3.448  16.556 -0.0984  0.3459 -0.1482
30214W        W46688  10.656   5.287   2.261  0.0714  0.4699 -0.1063
30215W        W46689  17.291   8.914   2.399 -0.1454  0.1109  0.0423
30216W        W46690  12.651   3.082   3.360  0.1624 -0.2859 -0.1901
30217W        W46691   3.408  17.586   3.843  0.0490 -0.0836  0.0486
30218W        W46692  10.355   3.217  15.776 -0.0025 -0.0337  0.0123
30219W        W46693  11.590  11.706  13.154  0.2589 -0.1277 -0.1162
30220W        W46694  12.003   9.771   4.859 -0.1063 -0.1816  0.1000
30221W        W46695   0.281  12.930  11.387 -0.0754 -0.0247 -0.1769
30222W        W46696  16.676  13.357  16.201  0.1344  0.1867  0.2462
30223W        W46697  17.689  10.898  12.079 -0.0974 -0.2903  0.2823
30224W        W46698  11.231   6.775   2.942 -0.0498 -0.0477 -0.0499
30225W        W46699  15.053  13.290  12.508  0.0107 -0.3587 -0.2018
30226W        W46700  14.940   2.419   1.923  0.1079 -0.2003  0.0209
30227W        W46701   7.470   8.666  14.175  0.1247  0.1976  0.0070
30228W        W46702  14.999  15.783  15.913 -0.0997  0.0129  0.2046
30229W        W46703   3.617  10.360   0.386  0.2354 -0.4356  0.0383
30230W        W46704  11.478  11.666   1.004  0.0019 -0.1307  0.2860
30231W        W46705   5.470  12.236   4.445 -0.0456 -0.0009  0.1867
30232W        W46706   5.598  10.900   1.004 -0.0655 -0.0430  0.2138
30233W        W46707  16.724   0.260  15.341 -0.1188 -0.0263  0.0668
30234W        W46708   5.631  14.075  12.229  0.1129 -0.0077 -0.2504
30235W        W46709   7.195   6.508  12.791 -0.3205 -0.1772 -0.1333
30236W        W46710  10.892  15.317   1.247  0.0416 -0.0713 -0.2967
30237W        W46711  10.719  17.761   5.459  0.2916 -0.2573  0.0431
30238W        W46712   1.557  10.975  10.894  0.0365 -0.0498  0.0970
30239W        W46713  16.111   9.479  16.282 -0.1726 -0.2681 -0.1789
30240W        W46714  14.306  17.345   1.908  0.3644  0.5655 -0.0984
30241W        W46715  13.219   1.156   3.649  0.0637 -0.1012  0.1418
30242W        W46716  10.095   0.855  12.042  0.1632 -0.2804 -0.0036
30243W        W46717   5.213   9.152  13.318 -0.0257  0.0326 -0.0216
30244W        W46718   2.300   1.685   2.579  0.0757  0.2068 -0.1047
30245W        W46719  17.940  14.882   0.886  0.0844  0.0998  0.0580
30246W        W46720   5.453  15.100   3.135  0.1146 -0.1004  0.1741
30247W        W46721  17.508  17.300   0.518 -0.1046 -0.0190  0.0322
30248W        W46722   6.590  17.307  12.094  0.0639  0.4101 -0.0527
30249W        W46723   4.547   3.060  13.604  0.2603 -0.0324 -0.0219
30250W        W46724   8.854  13.853   5.572 -0.0975  0.1088 -0.1489
30251W        W46725  15.931  15.681  13.703  0.1471 -0.1399 -0.0179
30252W        W46726  12.418   6.972  15.143  0.2235  0.4051  0.2301
30253W        W46727   8.434  14.542   1.678 -0.1457  0.0065 -0.3888
30254W        W46728   6.131  10.774   2.736 -0.0249 -0.1374 -0.0157
30255W        W46729   3.084   1.802  14.243  0.1532  0.1842  0.0362
30256W        W46730  12.234   7.966  13.518 -0.0199  0.1880 -0.3235
30257W        W46731  15.366  15.423  16.724 -0.0981  0.0451  0.0880
30258W        W46732  10.805   9.442   3.365  0.1440  0.2143  0.1850
30259W        W46733  11.263   4.663  15.365  0.2242 -0.2816 -0.0087
30260W        W46734  12.602   9.813   2.724  0.1045 -0.0837 -0.0658
30261W        W46735  17.866  10.049   3.941  0.1638 -0.0768 -0.0581
30262W        W46736   7.657   0.556  15.951  0.2406 -0.1205 -0.0670
30263W        W46737  10.647  16.541   2.026  0.1748  0.1531  0.0200
30264W        W46738   4.857   6.668   4.422  0.1095  0.2903  0.0466
30265W        W46739   2.241   9.312   3.355 -0.1072 -0.0667 -0.1988
30266W        W46740  17.829  16.935  12.693 -0.2585 -0.2491  0.0190
30267W        W46741  14.292   0.689   0.091  0.1348  0.0996 -0.2537
30268W        W46742   5.332   2.967   5.188 -0.0700 -0.5072 -0.2546
30269W        W46743  11.159   6.297   3.165 -0.4325  0.2149  0.0823
30270W        W46744   1.138  15.966  16.172  0.3103 -0.0989 -0.0865
30271W        W46745   8.268   8.651  12.021 -0.1173 -0.1775  0.0673
30272W        W46746  14.309   8.980  13.168 -0.1248  0.0543 -0.1055
30273W        W46747   3.365  11.440   3.909 -0.1601  0.1023 -0.1296
30274W        W46748   2.146   2.449  11.707  0.2892 -0.1141 -0.0835
30275W        W46749  16.620   0.302  13.791  0.1026  0.2047 -0.2475
30276W        W46750  16.259  13.672   1.194  0.3446  0.1786 -0.0059
30277W        W46751  15.854  10.431   5.397  0.2003 -0.0479 -0.2715
30278W        W46752  15.100   7.546  15.698  0.2183 -0.0329 -0.0318
30279W        W46753   7.531  14.605  16.147 -0.0179  0.2294  0.1857
30280W        W46754  12.199  10.446  11.693 -0.0633  0.3219 -0.0507
30281W        W46755  17.870  13.950   2.333  0.3301 -0.1505 -0.1620
30282W        W46756   6.633  10.065   2.578  0.1391 -0.0831  0.3401
30283W        W46757  15.113  12.442   1.678 -0.1421  0.0791  0.1673
30284W        W46758  16.517   5.072   2.139  0.0737  0.4652  0.0349
30285W        W46759  10.536  15.750  13.860 -0.1513  0.3162 -0.0766
30286W        W46760   1.158  17.327   0.379 -0.1019  0.2281  0.1214
30287W        W46761  10.235   6.001  16.232 -0.0705 -0.0949  0.2425
30288W        W46762   1.280   0.046  14.154  0.1440 -0.1712 -0.0073
30289W        W46763  17.959  17.274   0.215 -0.2015  0.3426 -0.3973
30290W        W46764  14.650   8.675  14.665  0.3288 -0.2018  0.0673
30291W        W46765  17.242   5.362   5.956 -0.0741  0.1038  0.2260
30292W        W46766  16.709   7.754  14.380  0.5199 -0.0569 -0.2459
30293W        W46767  12.182   2.889   5.063 -0.1284 -0.0229  0.0300
30294W        W46768  13.113   5.471  14.743  0.2817 -0.3891  0.0762
30295W        W46769  17.670   7.079   4.096  0.0392 -0.0869 -0.0238
30296W        W46770  16.792  17.258  14.815 -0.1363 -0.1390  0.1012
30297W        W46771   9.428   3.178   3.362  0.1198 -0.0218 -0.0598
30298W        W46772  10.654   8.624   5.315 -0.2358  0.2732 -0.0003
30299W        W46773   9.477   8.103   2.141  0.0652  0.1511 -0.1592
30300W        W46774  12.944  14.834   3.473 -0.0579 -0.0482  0.0582
30301W        W46775  17.922   3.003  14.323 -0.0132  0.0266 -0.0274
30302W        W46776   0.904  16.240   0.224 -0.2555 -0.0911  0.3716
30303W        W46777  16.202  17.158   2.980  0.0788  0.2354  0.0479
30304W        W46778  12.025   2.106   1.788 -0.4123 -0.0047  0.3056
30305W        W46779   4.101   8.123   1.046  0.1450 -0.1087 -0.2763
30306W        W46780  13.072  15.717   3.611  0.2579  0.0636  0.3133
30307W        W46781  11.706  17.333  11.966  0.0747  0.3269  0.0167
30308W        W46782  10.312  11.922   4.977  0.3080 -0.0597  0.1366
30309W        W46783  15.663  14.998  13.065  0.0803  0.3440 -0.1416
30310W        W46784   1.034  11.328  16.509  0.2663  0.0338 -0.0552
30311W        W46785  10.919  14.092  11.645  0.0065 -0.1774  0.1443
30312W        W46786  13.230  16.146   3.842 -0.0786  0.0870 -0.1013
30313W        W46787  13.830   8.517  14.236 -0.2013 -0.0196  0.0125
30314W        W46788   6.288   4.242  11.643  0.0601  0.2302 -0.5561
30315W        W46789  13.121   2.912  15.800 -0.0711  0.1626  0.4694
30316W        W46790   9.782  12.325   5.624 -0.3330  0.1192  0.2412
30317W        W46791   7.188   5.244   5.466 -0.0868  0.2384  0.0089
30318W        W46792   9.815   6.861  13.236  0.0825 -0.0734  0.0843
30319W        W46793   2.392  12.715  15.653 -0.0042  0.0743 -0.3416
30320W        W46794   6.399   7.098  15.543  0.1328 -0.1744 -0.2774
30321W        W46795  11.279  15.462   3.427  0.0544  0.0025  0.0738
30322W        W46796   6.259  14.494  11.149 -0.2245  0.4779  0.1896
30323W        W46797  10.102  13.611  15.494 -0.1346  0.0222  0.4251
30324W        W46798   8.345  12.433  12.895  0.0859 -0.1176 -0.0327
30325W        W46799   9.873   6.276  16.055 -0.0052  0.0282  0.3779
30326W        W46800  13.302  11.007   2.970 -0.0906 -0.1452 -0.3215
30327W        W46801  11.313   0.970   1.778 -0.1949 -0.2771 -0.0070
30328W        W46802   4.816  12.375   4.529  0.4660 -0.0542  0.0403
30329W        W46803  10.592   5.143   2.757 -0.0279  0.0543  0.2165
30330W        W46804   0.294  17.596   4.809  0.3271  0.1382 -0.0100
30331W        W46805   7.335   4.882  11.792  0.2743  0.1856  0.0059
30332W        W46806  16.309  16.167   0.521  0.3104  0.0605 -0.2751
30333W        W46807  17.614   7.733  12.962 -0.0240  0.0804  0.1229
30334W        W46808   7.310  16.084  12.712  0.0667 -0.2238 -0.1294
30335W        W46809   3.417   5.020  14.755  0.2420 -0.0987  0.1671
30336W        W46810   9.577  10.949  15.703  0.3324 -0.1626 -0.2636
30337W        W46811   8.506  14.834  12.615 -0.0181 -0.1033 -0.1345
30338W        W46812  14.590   3.707   4.032  0.0255  0.4623  0.1174
30339W        W46813   3.951   5.062   4.348 -0.0026  0.1967 -0.0798
30340W        W46814  11.559   7.891  16.755  0.0113 -0.0572 -0.1297
30341W        W46815   9.347  16.354   4.554  0.0335 -0.0849 -0.0664
30342W        W46816  13.015  16.013  12.795 -0.0459  0.1330  0.0545
30343W        W46817   9.334   5.118  16.555  0.1947  0.1015 -0.0945
30344W        W46818   9.484  10.155  12.738  0.0322  0.0782 -0.0184
30345W        W46819   9.560  12.722   4.510  0.3424  0.2452  0.1425
30346W        W46820   3.984   4.425  16.730 -0.1516  0.0951  0.3589
30347W        W46821   2.961  14.946  13.209 -0.3944 -0.2502  0.4374
30348W        W46822   7.053  11.042  12.096 -0.1176  0.0918 -0.3709
30349W        W46823   4.314   9.905  14.579 -0.0685  0.1602  0.0473
30350W        W46824  17.048   5.487   2.795 -0.1233  0.2092  0.1642
30351W        W46825   3.369  13.689   2.285  0.2536  0.0041 -0.1136
30352W        W46826  11.872   9.760   0.573  0.1347 -0.0671  0.0115
30353W        W46827   0.107   8.802   0.744  0.1042 -0.0045  0.1926
30354W        W46828  15.539   3.233  11.800  0.0847 -0.1093 -0.0989
30355W        W46829   7.843  17.795   3.283 -0.1998 -0.1373  0.0066
30356W        W46830   0.551  15.271   5.047  0.3026 -0.2651  0.0583
30357W        W46831  17.955   3.034  12.060  0.2002  0.2175  0.0240
30358W        W46832   5.562   5.253   1.713  0.0715 -0.0829  0.2210
30359W        W46833   1.567  13.181  16.427  0.1907  0.1401 -0.3500
30360W        W46834   2.636   8.714   1.621 -0.2259 -0.0763  0.2340
30361W        W46835   7.728   6.265  16.502  0.0167 -0.2460 -0.3257
30362W        W46836   8.154  15.204  13.114  0.2497  0.0213 -0.1380
30363W        W46837   9.089   8.048  15.441  0.1701  0.1329 -0.3864
30364W        W46838   1.248  16.805   3.340 -0.0599 -0.1346  0.2581
30365W        W46839   7.650  12.635   3.463 -0.0167  0.0489  0.3162
30366W        W46840   4.242   1.255  14.540  0.0049 -0.1136 -0.0149
30367W        W46841   1.448  15.029   3.816  0.1914 -0.1153 -0.2161
30368W        W46842  15.728   8.259   5.510  0.2578  0.2103 -0.3220
30369W        W46843   6.530  16.747  13.527 -0.1153  0.0982 -0.2273
30370W        W46844   1.409   0.126  12.656  0.0067 -0.2515  0.1393
30371W        W46845  16.303   6.518   1.309  0.2583  0.3321  0.0177
30372W        W46846   7.870   4.128  14.373  0.1449 -0.0721 -0.0203
30373W        W46847  12.212   3.416  14.487 -0.0893  0.0240  0.1134
30374W        W46848  11.797   7.845   1.405  0.0254  0.0452 -0.2546
30375W        W46849  16.894  15.744  16.621  0.0221  0.1174  0.1592
30376W        W46850  13.605   8.493  12.578  0.0026  0.2202 -0.0726
30377W        W46851   2.839  12.424   3.181 -0.0335 -0.0553  0.1296
30378W        W46852   6.219  17.579  14.512 -0.1147 -0.3912  0.0070
30379W        W46853   6.576   8.626   3.538 -0.3834 -0.0589  0.2539
30380W        W46854  14.858  12.520   1.272  0.1875 -0.1368 -0.4152
30381W        W46855  13.669   5.723   3.850  0.0602 -0.0938 -0.2487
30382W        W46856  14.329  16.329   1.452 -0.1502 -0.1315  0.1515
30383W        W46857  10.400   8.828  14.294  0.0783 -0.2035  0.0091
30384W        W46858  17.247   6.553  11.824 -0.2079 -0.0319 -0.0035
30385W        W46859  13.116  16.776   0.564 -0.0980 -0.2283 -0.1016
30386W        W46860   7.659   4.841   2.511  0.0993  0.0667 -0.0652
30387W        W46861  12.204   9.586   1.544 -0.1579  0.0946 -0.1569
30388W        W46862   3.962  10.803   4.834  0.0413 -0.1112 -0.1624
30389W        W46863  16.562   3.912   0.703  0.0054 -0.1564  0.0003
30390W        W46864   4.584   2.835   2.937 -0.1341  0.1210 -0.1788
30391W        W46865   2.430   0.278   3.153  0.0305 -0.1201  0.0003
30392W        W46866  15.679   9.003   1.280  0.1493  0.1451 -0.2844
30393W        W46867   4.548   6.668  14.596 -0.2321  0.1254 -0.0037
30394W        W46868   1.355   3.864  14.998  0.0289 -0.1201  0.0052
30395W        W46869   2.819  13.476   1.650 -0.0587  0.0797 -0.0559
30396W        W46870  16.679   0.716   0.196  0.0180 -0.1652  0.1567
30397W        W46871  11.510   3.306   5.547  0.0434  0.0100 -0.2801
30398W        W46872  12.911  12.356  14.096 -0.3880  0.1713  0.2219
30399W        W46873   7.375  12.008  15.957  0.0639  0.0381  0.1910
30400W        W46874   6.889   7.706  12.453 -0.1614  0.2432  0.2241
30401W        W46875   2.204   9.253   4.715 -0.0040 -0.1205  0.3525
30402W        W46876  15.070   5.159   4.930 -0.1487 -0.0736  0.0432
30403W        W46877  14.503  11.531   5.423  0.1286 -0.2099  0.0333
30404W        W46878   8.037   1.792   1.956  0.0368  0.0594 -0.0978
30405W        W46879   4.280  14.286  12.843 -0.1960  0.2368 -0.0971
30406W        W46880  10.242  10.099  12.935  0.2114  0.2862 -0.2497
30407W        W46881   2.441   4.324  16.695  0.0423 -0.2633  0.0037
30408W        W46882  16.037   5.294  14.270 -0.0008  0.0868  0.2524
30409W        W46883  16.426   3.635   5.730  0.0868  0.0579 -0.0441
30410W        W46884   4.730  13.097  14.812  0.1281  0.0492  0.1242
30411W        W46885   0.507   0.874  14.862  0.2768  0.1511 -0.2092
30412W        W46886   0.847  14.605   5.981 -0.2690  0.1030 -0.0365
30413W        W46887   2.798   1.760   5.247 -0.1376  0.1789  0.1401
30414W        W46888  17.890  10.572  15.749 -0.2353  0.1061 -0.0334
30415W        W46889   2.997   0.745   4.338  0.0126 -0.4358  0.1292
30416W        W46890   9.819  15.037  16.554 -0.0498  0.0326 -0.3351
30417W        W46891  10.861  11.473  16.249  0.0429 -0.0203  0.1049
30418W        W46892   1.585   2.211   0.336 -0.0047  0.1180  0.1496
30419W        W46893   8.183  15.076   3.385 -0.4407  0.1931 -0.0549
30420W        W46894  12.224   0.752  13.919 -0.2394 -0.0683  0.1987
30421W        W46895   6.491   0.567   2.046 -0.1235 -0.3401  0.0351
30422W        W46896  13.131   1.769   5.442  0.4562 -0.0074  0.1749
30423W        W46897  15.644   3.623  14.664 -0.0967 -0.2084 -0.1866
30424W        W46898  15.650   6.298  16.053 -0.1038  0.2658 -0.1416
30425W        W46899   7.972  13.377   4.756  0.0276  0.0056 -0.2599
30426W        W46900  11.479   7.937  11.821  0.2207 -0.0913 -0.2289
30427W        W46901   3.937  15.165   2.788  0.1528 -0.0326 -0.1266
30428W        W46902   6.710  13.256   0.408  0.2199  0.2078 -0.1865
30429W        W46903  17.522   3.796   0.257 -0.4119 -0.1577 -0.0646
30430W        W46904   2.604   8.807  16.717 -0.2252  0.2764  0.0751
30431W        W46905   5.640   3.048  12.177 -0.0252  0.1071 -0.1929
30432W        W46906  14.410   3.084  12.919 -0.0052 -0.1215 -0.2420
30433W        W46907   3.461  13.754  16.453 -0.1648 -0.3653 -0.0195
30434W        W46908   7.954  11.791   0.735 -0.0160 -0.1328 -0.2712
30435W        W46909   4.131  15.421   4.292 -0.3009 -0.0463  0.1376
30436W        W46910  17.651   4.566   1.300  0.0404  0.2297 -0.1603
30437W        W46911   6.966   2.859   4.894 -0.3551  0.1974  0.1793
30438W        W46912  17.820   9.234   0.110 -0.1782  0.1091  0.2772
30439W        W46913  11.697   3.514   4.188  0.0778 -0.0028  0.1075
30440W        W46914  15.681   4.322  14.150 -0.0123 -0.0363  0.0919
30441W        W46915   1.055  12.871   1.214  0.1959 -0.0466  0.0575
30442W        W46916   7.221  11.252  16.156 -0.0601 -0.2854  0.1007
30443W        W46917   0.804   5.285   5.009  0.0700  0.1224 -0.1078
30444W        W46918   3.754  11.701  12.286 -0.1170  0.1439  0.1669
30445W        W46919  17.307   3.907  12.902 -0.3253  0.1034 -0.2916
30446W        W46920   0.304   6.363  15.286 -0.0077  0.1334  0.0622
30447W        W46921  16.447  15.568  14.714 -0.0717  0.2272 -0.2032
30448W        W46922  15.773  10.964  13.560 -0.2912  0.0538 -0.3471
30449W        W46923  11.429   1.731  13.167 -0.0056  0.2196  0.0458
30450W        W46924  13.005  10.581  16.072  0.0600 -0.1477  0.3406
30451W        W46925   1.304   6.199  12.270  0.0561  0.2794  0.1167
30452W        W46926  16.389  16.508   3.658 -0.1020  0.0923  0.2201
30453W        W46927  14.258   0.547  14.113 -0.0661  0.2569  0.2156
30454W        W46928   3.101   9.724  14.378 -0.1210  0.1967  0.1451
30455W        W46929  12.350  17.173   2.907 -0.0660 -0.4034 -0.1237
30456W        W46930  13.108  13.861   5.574 -0.1999 -0.1993 -0.0121
30457W        W46931  12.688   5.086   5.415  0.1805 -0.0922  0.0919
30458W        W46932   4.851   5.693   3.529 -0.2092  0.0244 -0.3158
30459W        W46933   5.866   0.161   1.857 -0.1484 -0.2895  0.0992
30460W        W46934  15.468   9.953  11.479 -0.0541  0.0872  0.0028
30461W        W46935  15.561   5.760   5.971  0.2072 -0.0697 -0.0429
30462W        W46936   7.699  12.055  11.695 -0.0793  0.1614  0.1731
30463W        W46937  17.850   9.417   2.917 -0.0460  0.1475  0.0631
30464W        W46938   2.496   8.977   2.116  0.1749  0.1025 -0.0901
30465W        W46939   7.145  13.413  13.761  0.1480  0.1304 -0.0271
30466W        W46940  11.485   1.717  14.139 -0.1661 -0.1219  0.1409
30467W        W46941  17.795   9.298  15.207  0.1864  0.3474 -0.1604
30468W        W46942   8.962  10.155  14.824  0.1277 -0.1484  0.1877
30469W        W46943  12.793   9.665   3.188 -0.1068 -0.0911 -0.0259
30470W        W46944   0.007   9.022  16.528 -0.0137  0.0270 -0.0799
30471W        W46945   8.167   3.459  10.648 -0.1748 -0.2829  0.2038
30472W        W46946  17.416   1.592   3.017  0.1500 -0.2087 -0.1519
30473W        W46947  12.833   8.950  16.403 -0.0314 -0.2436 -0.1251
30474W        W46948  12.324   7.879   1.617  0.0126 -0.2092  0.0047
30475W        W46949   7.830   2.740  13.247  0.0112  0.1914 -0.3788
30476W        W46950  11.761  14.534  12.927  0.1396 -0.2385 -0.2358
30477W        W46951  12.592  14.185   4.799 -0.1812  0.0173  0.1861
30478W        W46952  11.854  17.780   3.618  0.1434  0.2434 -0.0577
30479W        W46953   2.603  14.307  12.846  0.1659 -0.1453 -0.2865
30480W        W46954  16.451   1.537  12.838 -0.0970  0.0471  0.0431
30481W        W46955   2.752   2.839  11.750 -0.2667 -0.0625 -0.1500
30482W        W46956   0.960  14.920   2.884  0.0947 -0.2392  0.0926
30483W        W46957  14.922  13.126   3.228 -0.0679  0.1356  0.0159
30484W        W46958  15.470   7.679   1.150  0.1322  0.2148 -0.1567
30485W        W46959  10.992  13.135  12.710  0.1816  0.1810 -0.1363
30486W        W46960   5.387   4.351  12.796 -0.4659 -0.1348  0.0076
30487W        W46961  16.412   9.287   3.019 -0.1746  0.2177  0.1968
30488W        W46962   7.984  10.955  12.884 -0.0913  0.2598 -0.1891
30489W        W46963   0.625  14.447  14.398  0.1641 -0.2339  0.0252
30490W        W46964  14.156  12.932   2.501 -0.2583  0.0329 -0.0525
30491W        W46965  17.364   7.914  12.568 -0.2617  0.0923 -0.0077
30492W        W46966  17.048  11.443  13.806  0.1795  0.0466 -0.0718
30493W        W46967  15.535   1.366   1.733  0.0727  0.2727  0.0089
30494W        W46968  12.760   8.083  15.641 -0.2762 -0.1584 -0.0780
30495W        W46969  10.812   5.897   5.113  0.0202  0.0473 -0.1586
30496W        W46970  11.851  11.220   2.318  0.0470 -0.1299 -0.0650
30497W        W46971   4.390   9.762   2.474 -0.0247  0.5011 -0.0569
30498W        W46972  11.876   2.181  15.149 -0.0660  0.0877  0.3501
30499W        W46973   5.227  10.678   2.966 -0.1587 -0.0402  0.0352
30500W        W46974   9.198   1.208   0.430  0.1141  0.2100  0.4325
30501W        W46975   0.765   6.123  13.479  0.0153  0.3223 -0.0289
30502W        W46976  15.831   2.487  12.211 -0.1917 -0.0179  0.0454
30503W        W46977   9.736  16.775  11.281 -0.0073 -0.0133 -0.2118
30504W        W46978   4.606   3.973   5.072  0.1469  0.2913  0.0289
30505W        W46979  13.681   7.257  12.631 -0.1517 -0.3243 -0.4071
30506W        W46980  13.379   5.189   2.645 -0.0568 -0.0674  0.2558
30507W        W46981  16.121   8.259  14.948  0.0217 -0.0712  0.0775
30508W        W46982   1.414   7.975   2.196 -0.0435  0.2047  0.0148
30509W        W46983  15.354  12.225  10.712 -0.1316 -0.0576  0.0125
30510W        W46984   4.842  13.677   0.321  0.2702 -0.1046 -0.2531
30511W        W46985   8.307  14.442  14.273 -0.1120  0.0264  0.1191
30512W        W46986   4.834   9.902   2.065  0.0110  0.0981  0.0140
30513W        W46987   7.778   4.590  14.094 -0.2125  0.3774  0.2321
30514W        W46988  17.211   3.682  16.661  0.1749  0.2770 -0.1967
30515W        W46989   9.460   4.901   0.284 -0.2277  0.0063 -0.1799
30516W        W46990   2.000   3.636   0.876  0.0413  0.0573  0.1006
30517W        W46991  12.882  12.087   2.716  0.0054  0.3212 -0.0525
30518W        W46992  12.164   1.957  16.132 -0.3363  0.1050 -0.2410
30519W        W46993  17.123   2.960  16.339 -0.2097  0.0782  0.0596
30520W        W46994   2.632  10.224  13.133 -0.2327 -0.2229 -0.2206
30521W        W46995  14.455  14.575   5.229  0.1730 -0.3151  0.2181
30522W        W46996  12.134   5.912   5.329  0.2789 -0.0624 -0.0326
30523W        W46997  13.219   8.371   2.447 -0.0716  0.1698 -0.0209
30524W        W46998   6.922   1.571   5.173 -0.1461  0.0001  0.2231
30525W        W46999   2.693  10.899   0.665  0.3019 -0.1193  0.3976
30526W        W47000  17.010  17.554  13.106  0.1064 -0.3498 -0.2335
30527W        W47001   8.650  12.212  13.340 -0.1880  0.0846  0.5057
30528W        W47002  11.894   1.962   1.335  0.1580 -0.1331 -0.0111
30529W        W47003  16.302  14.919   2.024  0.1640 -0.0660  0.0503
30530W        W47004   7.511  17.335  14.610  0.2001  0.0273 -0.0077
30531W        W47005   8.746   7.043   1.665  0.2855 -0.1827  0.2211
30532W        W47006   3.281   5.297   3.507 -0.1898  0.2311 -0.1454
30533W        W47007  12.240   2.768   4.558 -0.4156  0.0998  0.3792
30534W        W47008   3.059   5.916  11.946  0.1253  0.1543 -0.0218
30535W        W47009   4.441  12.318  16.076  0.2171 -0.2297 -0.0986
30536W        W47010  11.008   0.800   4.364  0.1774 -0.3384 -0.3306
30537W        W47011   8.198   5.057   0.380  0.0408 -0.3196 -0.0696
30538W        W47012   8.227  10.920  15.286 -0.2756 -0.3883  0.2976
30539W        W47013  17.708   2.737   3.232 -0.0456 -0.1475  0.5392
30540W        W47014  11.237   7.106  11.933  0.0373  0.3737  0.0555
30541W        W47015   5.808  11.209   1.341 -0.1246  0.1670  0.1203
30542W        W47016   5.777   8.648  15.104  0.0945  0.0164  0.1969
30543W        W47017   4.069   5.824   6.085 -0.2632  0.0907 -0.3147
30544W        W47018   7.689   6.426  12.733  0.1465 -0.2053  0.0855
30545W        W47019   2.740   7.057  14.071  0.0579  0.1144 -0.0960
30546W        W47020   7.235  13.412   5.998  0.1557  0.1878 -0.2837
30547W        W47021  11.236  10.154  16.136 -0.3393 -0.0475  0.2659
30548W        W47022  11.176   6.434   4.220 -0.0054  0.0864  0.0084
30549W        W47023  15.901  17.635   3.186 -0.0583 -0.0309 -0.3611
30550W        W47024   2.355  13.455  15.527  0.6070  0.2357  0.1174
30551W        W47025   9.658  11.469   2.270  0.0457 -0.4553 -0.3941
30552W        W47026  11.400   3.815   4.429 -0.2265  0.0218 -0.0753
30553W        W47027   3.304   1.906   0.117 -0.0555 -0.0105  0.0600
30554W        W47028  12.758  10.674   3.976  0.2235  0.1210  0.3128
30555W        W47029  16.118  13.128  13.089  0.1519 -0.2110 -0.1109
30556W        W47030   9.259   2.913   3.779 -0.0418 -0.2379 -0.0788
30557W        W47031  12.523   7.573   2.530 -0.0423 -0.1858  0.1985
30558W        W47032  11.058  14.279  13.513 -0.1022  0.0663 -0.1311
30559W        W47033  10.506   8.586  14.730 -0.0113 -0.1416 -0.0838
30560W        W47034  16.145  15.330  11.885 -0.0954 -0.0138 -0.0485
30561W        W47035   6.434  13.444   1.253 -0.2415  0.1581 -0.1414
30562W        W47036   0.603  13.891   4.652 -0.0301 -0.2752 -0.2299
30563W        W47037   3.893  15.415   1.782  0.1798 -0.1946  0.2663
30564W        W47038  16.664  14.775   3.123  0.1148  0.0696 -0.0174
30565W        W47039   4.439  12.332   0.783 -0.0694 -0.1450 -0.0438
30566W        W47040  13.786   1.378   1.905  0.2543  0.5050  0.3665
30567W        W47041   8.239  13.625  12.977 -0.0847 -0.0019  0.2257
30568W        W47042  11.824   8.620  14.153  0.1355  0.1009 -0.0473
30569W        W47043  14.178  12.027  11.808 -0.1182 -0.1595 -0.1540
30570W        W47044  15.741   6.019  14.684  0.0282 -0.0047 -0.0125
30571W        W47045  17.124  17.180   4.415  0.0285  0.1697  0.0478
30572W        W47046   2.022   7.806  12.649  0.2062 -0.1781 -0.0906
30573W        W47047   3.843  17.013  15.217 -0.0735 -0.4489  0.1087
30574W        W47048   2.325   0.308  11.499  0.0746  0.0957 -0.0047
30575W        W47049   1.401  15.245  13.469  0.3837 -0.2405 -0.1097
30576W        W47050   6.822   1.434   1.541  0.0438 -0.1852  0.4499
30577W        W47051  11.083   8.862   5.835  0.0283  0.2093  0.0211
30578W        W47052   3.607   0.139  16.013  0.0724 -0.1855 -0.3159
30579W        W47053   6.071   8.439  12.894  0.3189 -0.1925 -0.2364
30580W        W47054  14.603  12.099   3.590  0.0446  0.0421 -0.2681
30581W        W47055  16.342   4.397   2.838 -0.0013 -0.0200  0.0118
30582W        W47056   8.490  13.544  15.336  0.1448  0.1198 -0.0562
30583W        W47057  17.565  12.362   4.238 -0.1701  0.1616 -0.1650
30584W        W47058  17.614   9.822   0.472  0.0829 -0.2066 -0.3094
30585W        W47059   3.967   6.631  12.952  0.2623  0.0673 -0.0723
30586W        W47060  15.093  10.455  13.077  0.0577  0.1884  0.1314
30587W        W47061   0.675  10.913  16.740  0.2883  0.1736 -0.1629
30588W        W47062   8.652   2.995   1.461  0.0349  0.1432 -0.0157
30589W        W47063   1.913  13.624  15.492  0.2133 -0.2459 -0.1986
30590W        W47064   8.671   2.435  14.826 -0.1497  0.1662  0.2510
30591W        W47065   8.404   1.310  16.165 -0.0339  0.1028 -0.0781
30592W        W47066   8.679   0.894  14.320  0.0395  0.0052 -0.3761
30593W        W47067   5.172   0.336   0.096  0.0327  0.0611  0.1457
30594W        W47068  17.930  15.454   1.689  0.3201  0.1034 -0.0560
30595W        W47069   1.102   7.239   1.722  0.1781  0.1385  0.1382
30596W        W47070  17.705   6.055   4.046 -0.1245 -0.0817 -0.1948
30597W        W47071   3.773   1.181  11.869  0.2437 -0.1030  0.1614
30598W        W47072   4.494   8.904   5.844 -0.2436  0.3575  0.1274
30599W        W47073   7.065  12.874  11.807 -0.2085  0.1823 -0.2438
30600W        W47074   9.230   0.874   1.695  0.2971 -0.3069  0.0872
30601W        W47075   7.937  13.850  13.952 -0.2512  0.0942 -0.1429
30602W        W47076  13.476   8.169  12.919  0.2560 -0.1759  0.1254
30603W        W47077  10.483  11.009  12.581  0.0308  0.1164 -0.1420
30604W        W47078  10.242   2.036  15.421  0.0797 -0.3187 -0.1653
30605W        W47079   8.426  12.498  15.433  0.2373  0.0411 -0.0687
30606W        W47080   9.428   7.204  14.616 -0.1121 -0.1181  0.0634
30607W        W47081  12.245   0.433   4.926  0.3317  0.1556  0.1338
30608W        W47082   9.350   2.778   1.500  0.2164  0.0175 -0.0490
30609W        W47083  14.596  11.150   4.609 -0.0320 -0.2278  0.0030
30610W        W47084  16.031  14.514  15.442 -0.3368 -0.1519  0.0137
30611W        W47085   9.394   4.416   2.436  0.0388  0.0158 -0.0368
30612W        W47086   6.981   3.848   1.280  0.1633  0.1865 -0.0835
30613W        W47087   8.348   4.100   3.108 -0.2925 -0.1199  0.0209
30614W        W47088  12.186  15.588   5.675 -0.1194  0.1650  0.0449
30615W        W47089   2.868  14.552  15.438 -0.2095 -0.1195 -0.0547
30616W        W47090   2.546  11.897   0.940  0.0639 -0.0174  0.2077
30617W        W47091   9.215   9.312   2.856  0.0978 -0.0462 -0.1609
30618W        W47092   3.845   8.978  14.306  0.3513 -0.1688  0.0008
30619W        W47093   5.624   0.421   2.500 -0.1090 -0.0771  0.2849
30620W        W47094   0.714  16.521  12.899 -0.1148  0.0584  0.1934
30621W        W47095  17.992   7.698  13.365 -0.0319 -0.0341  0.1701
30622W        W47096   6.464  10.631   0.120  0.0544  0.3487 -0.1459
30623W        W47097   5.917  17.975   5.073  0.1893 -0.1593  0.0945
30624W        W47098   3.721   2.867   1.592  0.0415 -0.0069  0.1461
30625W        W47099   1.006   1.965  15.301 -0.2035 -0.1817  0.0524
30626W        W47100  16.932  12.957  12.728 -0.0282 -0.0173 -0.1860
30627W        W47101   4.290   5.128   5.598  0.0689 -0.1544  0.1121
30628W        W47102  12.483  14.057   3.750 -0.2180 -0.0513  0.1031
30629W        W47103   2.910  15.353  14.882 -0.2612  0.2382 -0.0831
30630W        W47104  14.798  15.621  12.401 -0.1164  0.0418  0.4632
30631W        W47105   0.008  16.058   3.368 -0.0894  0.3385  0.2101
30632W        W47106   0.463  15.120   1.621  0.2796  0.0063 -0.0326
30633W        W47107   6.966   5.038  16.323 -0.1851 -0.2890 -0.0844
30634W        W47108   4.832   6.367  13.364 -0.0805  0.1287 -0.1171
30635W        W47109  10.010   2.418   5.701 -0.0850 -0.1925 -0.2576
30636W        W47110  12.404   7.405   1.835  0.1739 -0.1584 -0.0793
30637W        W47111  14.100   0.675  14.645  0.1739 -0.0162 -0.0517
30638W        W47112  17.859   8.821   6.013 -0.1474  0.1876 -0.0385
30639W        W47113   0.165  16.664  16.451 -0.0822  0.1092  0.0895
30640W        W47114  13.260   1.921  15.767 -0.2454 -0.0277  0.3603
30641W        W47115   3.590   0.392  12.720  0.1805 -0.1478 -0.0924
30642W        W47116   0.836   9.199  16.728 -0.3032  0.0582  0.2336
30643W        W47117   8.103   2.903   2.946 -0.1151 -0.0626 -0.1020
30644W        W47118  13.423   4.315   5.244 -0.1214 -0.0904  0.3390
30645W        W47119  11.475  17.510   3.830  0.3155  0.1231 -0.2772
30646W        W47120   0.347  11.200  14.160  0.1211 -0.0003 -0.0218
30647W        W47121   0.498   1.455  15.885 -0.1580 -0.0525 -0.1692
30648W        W47122  12.203  10.420  14.070  0.1190 -0.1771 -0.6434
30649W        W47123   1.217  15.926   4.857  0.1093 -0.1297  0.2413
30650W        W47124  11.505  17.537   3.357  0.1137 -0.0222  0.1219
30651W        W47125   2.304   2.940   2.945 -0.4472  0.2538  0.0573
30652W        W47126   0.124   2.841   4.823  0.1334 -0.2385 -0.2197
30653W        W47127  10.327   5.378   5.592  0.0419  0.0292  0.0690
30654W        W47128   7.209  13.201  12.380 -0.0185 -0.2352 -0.1026
30655W        W47129   2.020   3.020  16.246  0.0294 -0.0346  0.2541
30656W        W47130  16.507  12.659  13.422  0.3474  0.1973 -0.0883
30657W        W47131   6.082  13.741  14.799 -0.1054 -0.1141 -0.0848
30658W        W47132   4.276   6.433  16.575  0.2614 -0.0270 -0.0609
30659W        W47133  15.890   0.415   3.697  0.0431  0.0915  0.1775
30660W        W47134   3.092   8.390  11.395  0.0265  0.1742  0.1152
30661W        W47135   1.276   1.917  15.752 -0.0052 -0.3608  0.0578
30662W        W47136   3.404   8.838   2.707  0.3599 -0.1343 -0.2145
30663W        W47137   1.914  14.471  15.747  0.0248  0.1084  0.0689
30664W        W47138   4.396   7.182  13.460 -0.1199 -0.1693 -0.0146
30665W        W47139  16.188   4.064   1.090  0.0853  0.1749  0.0241
30666W        W47140   6.568   6.751  14.855 -0.1929  0.1309  0.0027
30667W        W47141  14.861   7.042  15.610 -0.0026 -0.0560 -0.3040
30668W        W47142   9.546   8.853   4.973  0.1106  0.1793 -0.0945
30669W        W47143  10.978   3.350  16.523  0.2059 -0.2001 -0.1282
30670W        W47144   5.990  16.745  15.317 -0.1505  0.0229 -0.0164
30671W        W47145   0.424   2.502   5.755  0.1900  0.0025  0.1419
30672W        W47146   5.114   4.924   2.491 -0.1017  0.0281  0.0241
30673W        W47147   5.957  15.062  11.676  0.1703 -0.1948  0.0257
30674W        W47148  14.454   8.376   4.562  0.0414 -0.1633 -0.0036
30675W        W47149  12.340  14.702  14.230  0.2246  0.0784 -0.0391
30676W        W47150   5.604   8.798  12.976  0.0971  0.1586  0.5300
30677W        W47151   6.328  16.916   1.322 -0.0241 -0.1802 -0.0246
30678W        W47152  15.388  12.193   5.634  0.0531 -0.1487  0.0396
30679W        W47153  11.587  15.068   3.606  0.0775  0.2179  0.1847
30680W        W47154   8.762   0.097   1.745 -0.1869 -0.0481  0.1864
30681W        W47155   5.998   4.051   1.700  0.0113 -0.2653  0.2445
30682W        W47156  10.399   3.781  13.895 -0.1225  0.1090 -0.2435
30683W        W47157   0.630   8.566   5.358  0.1725 -0.2855 -0.0174
30684W        W47158  13.228  15.268   3.223  0.2078 -0.0335 -0.0742
30685W        W47159  17.584  11.473   1.107  0.3010 -0.0058 -0.2332
30686W        W47160  12.217  13.559  12.113  0.1058 -0.0764 -0.0379
30687W        W47161   7.886   5.933   0.050  0.0077 -0.0615 -0.0204
30688W        W47162   6.199   3.126  14.362  0.0547 -0.1703 -0.4853
30689W        W47163   4.406   5.637   1.099  0.1530  0.1147  0.0852
30690W        W47164   5.612   9.262   2.939 -0.2877  0.2063  0.1026
30691W        W47165  15.164  10.667   1.051  0.1624  0.0822  0.1718
30692W        W47166   5.135   8.840   1.195  0.1540 -0.2065  0.0481
30693W        W47167   7.171  15.477   2.486  0.3808 -0.0623  0.1925
30694W        W47168   5.259  10.364  15.962 -0.1120 -0.0507  0.1816
30695W        W47169   8.135   4.417   5.156  0.2522  0.4272  0.0123
30696W        W47170   5.427   2.858  14.700  0.1328 -0.0412  0.1312
30697W        W47171  14.791   2.269   3.008 -0.3186  0.3030 -0.0905
30698W        W47172   9.069  16.844   4.289  0.1336  0.0177  0.0600
30699W        W47173  11.968  10.060   6.458  0.3556  0.1048 -0.2627
30700W        W47174   0.833   4.734  12.116 -0.0121 -0.3157  0.0740
30701W        W47175  12.320   3.963   5.377  0.0069  0.0289 -0.0360
30702W        W47176   2.623  13.692   4.958  0.2206  0.3679  0.1918
30703W        W47177   7.842  15.147   1.493  0.1766 -0.0662 -0.1789
30704W        W47178   1.839   8.290  16.359  0.0098  0.1024 -0.0973
30705W        W47179   2.026   5.497  12.395 -0.1061 -0.2347  0.1679
30706W        W47180  14.641   1.176   5.427  0.1275 -0.0465  0.0415
30707W        W47181   6.280   2.859  15.994 -0.2927 -0.4297  0.0924
30708W        W47182  17.396   3.698   3.837  0.3322 -0.1094 -0.1315
30709W        W47183  15.546   6.726   5.702 -0.0761  0.2643 -0.2754
30710W        W47184  15.520  10.254   3.090 -0.0822 -0.0691 -0.0453
30711W        W47185  17.082   6.999   3.203 -0.1262  0.0687 -0.1653
30712W        W47186   9.322   3.151  12.070  0.0279 -0.0219  0.0267
30713W        W47187   7.039   1.526   0.532  0.1716  0.1954  0.0954
30714W        W47188  13.421   5.419   5.147  0.0332  0.0465 -0.0384
30715W        W47189  16.920   8.018   0.542  0.0443 -0.0200  0.0245
30716W        W47190  15.617   3.386   0.675  0.0479  0.0318  0.4153
30717W        W47191  14.340  15.491   0.918 -0.2234 -0.0210  0.0144
30718W        W47192   6.471  17.073  12.538  0.0339  0.0333 -0.1452
30719W        W47193  13.513   9.050   3.857 -0.0260  0.0476  0.0930
30720W        W47194   2.403   6.380   0.959  0.1024  0.0238 -0.2269
30721W        W47195   0.951   1.005   0.941 -0.0373  0.1943 -0.0653
30722W        W47196  15.793  16.462   0.153 -0.0158  0.2904 -0.0107
30723W        W47197   6.247   2.852   0.015  0.0593  0.0633 -0.1269
30724W        W47198   2.550   6.275   2.295 -0.2047  0.1043 -0.3392
30725W        W47199   3.248   7.160  14.002 -0.2539  0.0838  0.0586
30726W        W47200   9.880   3.499  12.126 -0.2240  0.0436 -0.1787
30727W        W47201  13.563   3.944   4.890 -0.1297  0.1464 -0.1849
30728W        W47202   5.320   4.577  13.796 -0.1186  0.2934 -0.0700
30729W        W47203   6.760   0.255   4.900  0.3521 -0.2179 -0.4505
30730W        W47204  10.856   7.648  16.162  0.3418  0.1642 -0.2092
30731W        W47205  13.505  16.904  15.136  0.0661 -0.2706  0.0287
30732W        W47206  14.814  14.408  15.454 -0.0263 -0.1754  0.1647
30733W        W47207  17.108   7.958  12.052 -0.2622 -0.3394  0.0180
30734W        W47208  10.525   7.352   1.848 -0.1100  0.2726  0.3305
30735W        W47209   9.860  10.587   3.810 -0.0416  0.4283  0.0479
30736W        W47210   0.341   3.411   1.343 -0.1782 -0.1875 -0.0457
30737W        W47211  12.036   4.368   4.371  0.0845 -0.0519  0.0028
30738W        W47212   9.730   8.914  15.110 -0.1285 -0.0516  0.0306
30739W        W47213   1.883  17.914   3.782 -0.0294  0.0154  0.1936
30740W        W47214   8.621  14.581  16.310  0.0461 -0.1082  0.3081
30741W        W47215   1.050  14.177  15.232 -0.0558  0.1008 -0.0328
30742W        W47216  17.481   0.443   1.608 -0.0845 -0.0127  0.0867
30743W        W47217  11.578   0.455  13.134  0.1923  0.1322  0.1249
30744W        W47218   8.641   5.513  15.119  0.1750  0.2229  0.0532
30745W        W47219   6.489  10.999  14.815 -0.1207  0.0827 -0.0467
30746W        W47220   9.727   4.458  14.392 -0.1652 -0.0158  0.0312
30747W        W47221   1.824   4.145   0.317 -0.5274  0.0092  0.0967
30748W        W47222  12.141   2.523  12.191 -0.2542  0.1867  0.0954
30749W        W47223   6.063  16.661  16.275  0.1358  0.2071 -0.0673
30750W        W47224  14.408  14.166   2.919 -0.0758  0.0137  0.1279
30751W        W47225   0.438  14.633  14.913  0.0822 -0.0509  0.2461
30752W        W47226  12.712   0.098  11.933  0.2072 -0.0998 -0.2242
30753W        W47227   3.783   6.819  13.675 -0.0139 -0.1604 -0.0400
30754W        W47228  15.710  16.954  15.506  0.2219 -0.0930  0.0116
30755W        W47229  11.868   0.841  13.007  0.2857 -0.2694  0.2142
30756W        W47230   8.889  17.968   5.356 -0.0559  0.0436  0.1949
30757W        W47231  12.458  10.854   3.014 -0.0451  0.0828 -0.3776
30758W        W47232  12.605  14.407   3.424 -0.1083 -0.1654  0.1480
30759W        W47233  16.270   1.821  16.228 -0.1420 -0.2752  0.2564
30760W        W47234   0.485   6.128   2.147  0.0304 -0.1254  0.0460
30761W        W47235  17.497  13.884   5.605  0.0947  0.2950 -0.1305
30762W        W47236   7.494   7.875   6.404  0.1053 -0.1549 -0.0451
30763W        W47237   6.167  17.838  15.458  0.2148  0.0802  0.3200
30764W        W47238   6.768   4.384   0.198 -0.0565 -0.0133 -0.0814
30765W        W47239  14.419   1.922  14.272  0.0865  0.1270 -0.2357
30766W        W47240  16.260   1.877  12.557  0.0817  0.0735 -0.0353
30767W        W47241  13.425   7.399  12.236  0.0190  0.0791 -0.4958
30768W        W47242   3.457  17.967  12.400 -0.0060  0.2772  0.2174
30769W        W47243  16.818   6.174   4.516  0.1152 -0.0850 -0.2584
30770W        W47244  14.536   0.944  14.727 -0.2338  0.0513  0.2716
30771W        W47245   6.888  10.276  13.168  0.4746  0.0271  0.4024
30772W        W47246  17.324  12.870  11.048  0.1198  0.1959 -0.4283
30773W        W47247   5.475  11.881   0.174  0.2760 -0.0522 -0.1646
30774W        W47248   3.617   3.701   2.989  0.0232 -0.0099 -0.0982
30775W        W47249  11.926   5.406   6.091  0.1032  0.2096 -0.0422
30776W        W47250   0.415   7.123  14.472 -0.2431  0.0792  0.0416
30777W        W47251  10.360  16.654  12.497  0.1459 -0.2370 -0.2099
30778W        W47252  10.229  15.922   2.617  0.2113 -0.0941  0.1824
30779W        W47253   3.897   8.173   1.909  0.1241  0.1949 -0.0757
30780W        W47254  15.619   1.206  13.146 -0.1687  0.0631  0.0929
30781W        W47255  17.718  16.241   0.731  0.0176 -0.1452 -0.0169
30782W        W47256   1.534  11.792   4.251  0.1154  0.2070 -0.1825
30783W        W47257  16.333   4.304   4.937 -0.0207 -0.1742  0.0124
30784W        W47258   1.622   1.191  13.410  0.1174 -0.0419  0.2231
30785W        W47259   3.249   9.348  15.426 -0.0073  0.2799 -0.2680
30786W        W47260   6.756  14.322   1.328 -0.1033 -0.0002 -0.1935
30787W        W47261   0.614   2.157  13.165 -0.0693  0.1183  0.0763
30788W        W47262  17.042  10.308  15.604  0.1653 -0.1084  0.3089
30789W        W47263   0.376   4.418  12.331 -0.1135 -0.1813  0.0227
30790W        W47264   7.261  14.907  14.638  0.0389  0.1086  0.0788
30791W        W47265  14.968   5.292   1.709  0.0911 -0.1996  0.2450
30792W        W47266   9.094   5.245   1.356  0.1385  0.0502  0.0998
30793W        W47267  13.418  14.737   1.141  0.3033 -0.1241 -0.1621
30794W        W47268  16.938  12.016  11.138 -0.0573  0.0832 -0.1148
30795W        W47269   3.744   3.479  14.552 -0.0096 -0.0942 -0.1608
30796W        W47270  14.758   2.163   4.433  0.0798 -0.0125  0.1081
30797W        W47271   9.748  11.984   6.135 -0.1386 -0.1698 -0.1945
30798W        W47272   9.276   3.297   5.365 -0.0639 -0.3369 -0.1186
30799W        W47273  12.498  16.504  12.443  0.2261  0.0926 -0.1502
30800W        W47274  13.874  12.446  12.002  0.2691  0.2691  0.0371
30801W        W47275   0.244  13.080   2.455 -0.0058 -0.2467  0.0115
30802W        W47276  12.469  15.948  14.510 -0.0892  0.1496  0.1117
30803W        W47277  15.859  16.590   3.288 -0.1611  0.1382  0.0794
30804W        W47278  16.443   5.504  13.631 -0.0884  0.3909 -0.3129
30805W        W47279   5.616  13.580  12.003  0.1760 -0.0947 -0.1515
30806W        W47280   2.299  14.309  11.173 -0.5562 -0.1630  0.4198
30807W        W47281   1.839   4.993  12.741 -0.0173  0.2509 -0.0763
30808W        W47282  10.679  12.326   4.233  0.0552  0.1410  0.0816
30809W        W47283   9.622   6.878  13.717 -0.0714  0.1298 -0.0611
30810W        W47284   1.156  17.345   2.665  0.1142 -0.0002  0.0778
30811W        W47285  16.245   8.223   1.026  0.2064  0.0454  0.1018
30812W        W47286   2.519   5.839   4.356  0.0898  0.0717 -0.0879
30813W        W47287  17.265   1.926   5.753 -0.1723  0.1155  0.0448
30814W        W47288   1.950  17.555   4.246 -0.0734  0.3828 -0.0589
30815W        W47289  12.887  17.585   6.216 -0.0439 -0.2763 -0.4853
30816W        W47290   8.564   1.877  13.501 -0.0921  0.0425  0.0434
30817W        W47291   8.548   0.428   1.337  0.0866  0.0146  0.2211
30818W        W47292  17.392  10.297   3.832  0.0096 -0.0621 -0.1173
30819W        W47293   4.999   8.786  13.587 -0.1872 -0.3350  0.4205
30820W        W47294  17.495  10.523  16.517 -0.3364  0.1767  0.1285
30821W        W47295  10.969   9.060  14.064  0.1956 -0.1487  0.1182
30822W        W47296  13.725   2.620  14.684 -0.0255  0.1929  0.1216
30823W        W47297   1.712  17.722   0.083  0.0459  0.0796  0.0893
30824W        W47298  11.916  11.482  15.442  0.0339 -0.0890 -0.0178
30825W        W47299   0.344   9.650   3.216 -0.0634 -0.0004  0.1294
30826W        W47300   3.942   0.414   1.554  0.1882 -0.1782 -0.0182
30827W        W47301  14.270   8.534   4.064 -0.2712 -0.0491 -0.0476
30828W        W47302   8.492   6.586  13.555 -0.2484  0.0802 -0.2071
30829W        W47303   9.766  15.729   2.926 -0.0426 -0.2228  0.0358
30830W        W47304  17.609   8.615   5.131 -0.1633 -0.1604 -0.3793
30831W        W47305  16.246   3.299  16.606 -0.0421  0.0036 -0.1486
30832W        W47306  12.241   8.779  15.046 -0.0623 -0.0385 -0.0116
30833W        W47307  13.200  17.028  12.171 -0.1763 -0.1259  0.0465
30834W        W47308  14.146  11.341  12.519  0.0440  0.0120  0.1144
30835W        W47309   9.058  17.564  12.690 -0.1695  0.2552  0.0468
30836W        W47310   1.709  10.623  15.163 -0.0559 -0.1116 -0.2156
30837W        W47311   8.130  15.841  14.215 -0.0433 -0.3261 -0.2232
30838W        W47312   1.428  12.308  14.930 -0.0711  0.0164 -0.2024
30839W        W47313  14.546   8.141   3.711 -0.0063  0.0767  0.0748
30840W        W47314   4.312  16.463  16.464 -0.0089  0.1612 -0.0290
30841W        W47315  10.238   0.289  15.400 -0.0165 -0.1389 -0.0878
30842W        W47316   8.921   3.879   1.049 -0.4274  0.1437  0.0313
30843W        W47317  15.469   2.195   4.435  0.0236  0.0153 -0.1526
30844W        W47318  16.405  17.712   4.036  0.0868  0.0208 -0.1656
30845W        W47319   0.845  13.382  11.672  0.1978 -0.1674  0.2916
30846W        W47320  11.209  16.002   0.015  0.0588 -0.1623  0.0504
30847W        W47321  10.891   0.960   2.685  0.0090  0.1674 -0.1628
30848W        W47322  17.766  12.790   3.178 -0.0036 -0.0954  0.0126
30849W        W47323  12.101   5.535   2.878  0.0615 -0.0721  0.0204
30850W        W47324   7.792   1.515  14.436 -0.1997  0.0104  0.0617
30851W        W47325  15.447  13.014   4.951  0.0292 -0.0721  0.5135
30852W        W47326  15.137   4.881   0.523 -0.1533 -0.4207 -0.0690
30853W        W47327  12.231   0.928  12.644 -0.0230 -0.0544 -0.2038
30854W        W47328  15.102  12.170  14.460  0.1632  0.1487 -0.1411
30855W        W47329  17.931   0.111   0.755 -0.0343 -0.1340 -0.2073
30856W        W47330  16.410   0.126  12.628  0.2961 -0.3085 -0.2688
30857W        W47331  14.124   5.143   2.066 -0.2104 -0.2606  0.0727
30858W        W47332   5.998  10.061  16.334  0.0225 -0.2389 -0.0414
30859W        W47333  10.832   5.017   4.973 -0.1449 -0.0327  0.1846
30860W        W47334   3.015   6.629  13.102  0.1545  0.0394 -0.2981
30861W        W47335   6.183   5.447  13.097 -0.2758 -0.0425  0.0834
30862W        W47336   8.579   2.393  13.748 -0.1653  0.2125 -0.1013
30863W        W47337  17.721  16.772   0.542  0.1262 -0.1907  0.1273
30864W        W47338  14.311  13.458  13.292  0.2850 -0.1923  0.3201
30865W        W47339  16.661  14.422  12.418  0.3299  0.0103  0.0647
30866W        W47340   0.461  10.754   2.683 -0.1468  0.1529  0.3051
30867W        W47341  15.297  14.140  10.495 -0.2038  0.0294  0.0993
30868W        W47342   3.331  14.514  15.151  0.1511 -0.1688 -0.1600
30869W        W47343   6.704   9.146   0.127 -0.0385  0.1097  0.1237
30870W        W47344   2.887  16.881   3.091 -0.3775  0.1228  0.0755
30871W        W47345   1.735   2.353  12.075 -0.0993  0.3217  0.1251
30872W        W47346   7.443  17.619   4.469  0.2894  0.1044  0.0039
30873W        W47347   3.659  12.778   2.537  0.0010  0.3641  0.1232
30874W        W47348   2.190  10.665   2.304 -0.0838  0.0945 -0.1735
30875W        W47349   8.853  17.892   4.410 -0.0240  0.0713  0.2122
30876W        W47350   9.128  14.388   2.491 -0.0101 -0.1626  0.1975
30877W        W47351   9.904   4.689   2.325  0.2396  0.0547 -0.0631
30878W        W47352   0.668   8.915   3.806 -0.2187  0.1641  0.0676
30879W        W47353  13.181   2.512   1.118  0.3153  0.1486 -0.0477
30880W        W47354   1.220   7.745   1.780  0.2356  0.0880  0.0109
30881W        W47355  12.931   8.106  14.089 -0.1323  0.1039 -0.2411
30882W        W47356  10.870  11.451   4.404  0.1882  0.2021  0.2588
30883W        W47357   6.246   0.530  16.273 -0.3125  0.2673 -0.0162
30884W        W47358   4.375   3.589  13.594 -0.0358  0.0097 -0.0327
30885W        W47359   2.297   5.084  12.534  0.0773  0.0030  0.0984
30886W        W47360  12.846  15.936   3.974 -0.0104  0.0446 -0.1138
30887W        W47361   0.374   7.875   1.694  0.0692 -0.2490  0.0762
30888W        W47362  12.707   5.125  14.508 -0.0037  0.1315 -0.2575
30889W        W47363  13.947   2.143  16.543  0.1745 -0.0126 -0.2310
30890W        W47364   8.313   6.878  14.011  0.0039 -0.0351  0.2264
30891W        W47365  13.035   2.289  13.665 -0.0555 -0.0487  0.1206
30892W        W47366  16.494   5.550   3.343  0.2192  0.1164 -0.1812
30893W        W47367   7.836  14.605   5.411 -0.0299  0.1157 -0.0609
30894W        W47368   4.090   1.793  13.854  0.2202  0.0641  0.0515
30895W        W47369  10.541  15.642  16.064  0.0493  0.0325 -0.1572
30896W        W47370  16.764  13.553   0.932 -0.0151  0.0415  0.0590
30897W        W47371   0.092  13.881   0.178 -0.0564 -0.0532 -0.0237
30898W        W47372   3.078   2.679   2.390 -0.1465  0.0629 -0.1280
30899W        W47373   9.458  17.568  15.897 -0.2048 -0.2600  0.0629
30900W        W47374   4.784   1.972   2.851  0.1693  0.0785 -0.1134
30901W        W47375   9.275  12.134  15.212 -0.2714  0.0302  0.0777
30902W        W47376   6.080   3.620  15.574 -0.2666  0.1217 -0.0214
30903W        W47377   5.797   9.070   4.056 -0.0182  0.1714 -0.0665
30904W        W47378   1.303   5.057   2.623  0.1265  0.0394  0.1798
30905W        W47379   7.683  16.428  12.869  0.0869  0.1537  0.0749
30906W        W47380  10.013  11.251   2.540 -0.1667 -0.1680 -0.0904
30907W        W47381   0.200   6.876   3.047  0.0343  0.2033  0.1316
30908W        W47382   5.537  17.043   5.837 -0.1019 -0.0097 -0.0484
30909W        W47383   7.086   7.432  14.467 -0.2972 -0.2690 -0.1144
30910W        W47384   9.389  13.082  14.286  0.1062  0.0020  0.1106
30911W        W47385  14.262  13.725   4.208  0.0282  0.0729  0.0556
30912W        W47386  14.014   3.577   4.764  0.2650  0.1343  0.1838
30913W        W47387  16.274  12.313   3.620 -0.4226 -0.0817  0.2359
30914W        W47388  15.787   9.878  12.803  0.0118  0.0411  0.0595
30915W        W47389   4.780  10.234   1.243 -0.1351 -0.1733 -0.0806
30916W        W47390  15.951   0.732  13.353  0.0352  0.4017 -0.1302
30917W        W47391   3.899   9.627  10.323  0.0008 -0.4413  0.1822
30918W        W47392   7.429  10.102  12.546 -0.1443 -0.2000 -0.1528
30919W        W47393   6.978  17.064  12.333 -0.4685 -0.0660  0.0795
30920W        W47394  16.011   9.627  12.390 -0.3070  0.1714  0.0849
30921W        W47395  10.767  13.027  13.669 -0.3877 -0.3939  0.0439
30922W        W47396   3.931  10.484  15.706 -0.3251  0.1778  0.2179
30923W        W47397   5.954  13.717  13.498  0.0524  0.1566  0.0444
30924W        W47398   9.604   6.265   5.397 -0.1547 -0.1317 -0.0611
30925W        W47399   0.107  13.777  11.415 -0.1301 -0.3233 -0.1991
30926W        W47400   7.595   6.818   1.052 -0.0584 -0.0039 -0.0285
30927W        W47401   0.599   2.508  11.402  0.2447  0.1413 -0.0951
30928W        W47402  11.241   2.999   3.527 -0.0229  0.1474  0.3862
30929W        W47403   4.818  15.555   2.598 -0.1996 -0.0206 -0.0360
30930W        W47404   9.834   3.532  16.197  0.0965 -0.1471  0.2323
30931W        W47405   3.008   5.847   1.452  0.1391  0.2286  0.2337
30932W        W47406   5.566   1.725  13.268  0.3336  0.2514  0.2039
30933W        W47407   9.787   2.405  15.520  0.1932  0.0309  0.0334
30934W        W47408  13.249  11.148   2.508  0.2233 -0.1122 -0.2502
30935W        W47409  16.024   8.393  16.021  0.3858 -0.2323 -0.1241
30936W        W47410   2.537  13.884   3.895  0.0951 -0.0368 -0.0720
30937W        W47411   1.882   7.533  13.639  0.1012  0.0315 -0.4535
30938W        W47412  13.296  16.240  15.600 -0.1748 -0.2884 -0.0045
30939W        W47413  15.464  17.582   3.520 -0.0241  0.0210  0.2148
30940W        W47414  16.391   6.257  12.041  0.0035  0.1595  0.0528
30941W        W47415  13.694  14.669  11.232 -0.1389 -0.2006 -0.1375
30942W        W47416  11.015   8.384   0.078  0.0995 -0.0091 -0.1291
30943W        W47417   1.470  15.012  11.518 -0.0905 -0.1294 -0.1461
30944W        W47418  16.745   4.186   5.215 -0.1507  0.1725 -0.2946
30945W        W47419  16.652  14.919   1.306  0.2282  0.0165 -0.0887
30946W        W47420  14.616   3.617  12.391 -0.0742 -0.0672  0.3043
30947W        W47421  16.571  14.538  15.437  0.0644 -0.0045  0.0016
30948W        W47422   5.737  11.972   1.931 -0.0619 -0.2787  0.1614
30949W        W47423  13.292   9.173  13.335  0.1783  0.3029  0.1177
30950W        W47424  14.847   0.924  12.588  0.0073 -0.4043  0.0816
30951W        W47425  13.660   2.955  13.897  0.2258  0.3962 -0.3195
30952W        W47426   5.662   1.765   6.110 -0.0813 -0.0395 -0.0193
30953W        W47427  13.807   6.174   4.541  0.2139  0.1438 -0.2263
30954W        W47428   7.841  10.794   3.311 -0.2651  0.0635  0.0541
30955W        W47429   9.891  11.155   3.834 -0.1035 -0.1278 -0.0746
30956W        W47430  10.768  16.245  12.524 -0.1075  0.0722 -0.2688
30957W        W47431  14.717   8.313   3.186  0.1325  0.0267 -0.0748
30958W        W47432  13.018   0.567  15.536  0.1311  0.0491  0.2747
30959W        W47433  15.309   5.753   6.383 -0.2106 -0.2519 -0.1293
30960W        W47434   4.449  12.875   0.991  0.0556 -0.2518  0.1250
30961W        W47435  14.964   0.291   5.695 -0.1502  0.2449  0.0826
30962W        W47436  10.281  16.954   3.857  0.3434 -0.1629  0.0981
30963W        W47437  17.928   2.399  13.637 -0.1300  0.0318  0.0574
30964W        W47438  17.402  15.705   2.406  0.0590  0.0263  0.0902
30965W        W47439  15.456  10.325   0.676 -0.0077 -0.1250  0.0798
30966W        W47440   7.367   5.771   0.008  0.4494  0.0595 -0.1641
30967W        W47441   6.420  10.680   1.045  0.0680 -0.0090  0.4236
30968W        W47442  10.872   8.328  15.627  0.0758  0.1640 -0.1902
30969W        W47443  11.570  13.818  15.754  0.1158 -0.0693 -0.1423
30970W        W47444   6.723  11.849   2.716  0.3489  0.1609 -0.0727
30971W        W47445  17.157  17.299   0.886 -0.0581 -0.1414  0.0577
30972W        W47446  17.903   2.750   1.148  0.0692 -0.2157 -0.1098
30973W        W47447   2.984   3.122  13.107  0.0297  0.2649 -0.0394
30974W        W47448   6.863   1.637  13.700  0.0937  0.3278  0.0057
30975W        W47449  16.034   4.042   0.039 -0.1638 -0.0407  0.0457
30976W        W47450  14.792  14.293   0.066  0.0471 -0.0182 -0.0996
30977W        W47451  17.920  16.939   3.285 -0.1462 -0.2112 -0.0293
30978W        W47452  10.611  13.916  15.730 -0.0197  0.0891 -0.0232
30979W        W47453   3.467  12.355  11.897  0.1395  0.0770  0.0120
30980W        W47454   9.738   1.757  11.514  0.2305  0.1385 -0.0215
30981W        W47455  15.793  12.420  16.168  0.0426 -0.0656 -0.0185
30982W        W47456  11.173   5.280  16.410 -0.0268 -0.0503 -0.3413
30983W        W47457   4.102   1.486  15.495 -0.3702 -0.0994 -0.1470
30984W        W47458   0.090  14.114   1.260 -0.0496  0.0519  0.3059
30985W        W47459   2.076   5.330   2.419 -0.0602  0.1786  0.0543
30986W        W47460   4.725  17.155  14.676  0.3255 -0.1709  0.0939
30987W        W47461   2.655  13.298  12.363 -0.0394  0.2010  0.0158
30988W        W47462  17.921  13.608  13.637  0.0689 -0.3917 -0.2229
30989W        W47463   6.102  17.292   2.861 -0.1450 -0.2615 -0.2572
30990W        W47464  13.284   3.159   5.409  0.2652  0.0278 -0.2962
30991W        W47465   4.867  13.058  16.411  0.0983  0.2328 -0.3246
30992W        W47466  10.548   4.087  15.941 -0.1087  0.1207  0.0424
30993W        W47467  10.442   1.355  15.149 -0.0483  0.1936  0.0153
30994W        W47468   5.240   2.360   5.475 -0.0282  0.0057  0.0974
30995W        W47469   5.845   1.173  11.539 -0.1359  0.0867 -0.0310
30996W        W47470   0.014   7.368   0.729  0.0509 -0.2891 -0.5943
30997W        W47471   1.079   9.380   0.841  0.1674  0.1289  0.2365
30998W        W47472  12.374   0.874   4.634  0.0174 -0.0221  0.2078
30999W        W47473  11.822  16.930   0.562  0.1009  0.3313  0.1609
31000W        W47474   5.429   9.021  13.745  0.0232  0.1681  0.2420
31001W        W47475   8.224  13.099   5.140  0.1438 -0.1082 -0.2047
31002W        W47476   0.809  16.483   1.496 -0.0676 -0.1568 -0.3004
31003W        W47477  12.061  15.044  14.649  0.2843 -0.1474  0.0286
31004W        W47478   9.555  10.732   4.915 -0.0100  0.1291 -0.1328
31005W        W47479   5.701   7.289   3.874  0.1301  0.0225 -0.2698
31006W        W47480   4.215  16.044  13.816 -0.2719  0.0747  0.0263
31007W        W47481   5.893   4.689  13.660 -0.0772  0.0471  0.1245
31008W        W47482  10.168   7.639  13.238  0.0229  0.2746  0.3850
31009W        W47483  16.864   3.763   3.355 -0.3599 -0.0987 -0.3670
31010W        W47484   3.818   4.357  13.022  0.1578 -0.0562  0.1249
31011W        W47485  12.757  16.519   4.613 -0.1699 -0.1698 -0.1280
31012W        W47486  13.968   1.234  13.438 -0.2244 -0.1375  0.0012
31013W        W47487  11.747   7.767  12.597 -0.0819  0.0395  0.1198
31014W        W47488  11.272  16.927   0.513  0.1041  0.1863 -0.0942
31015W        W47489  17.710   8.299   0.054 -0.0311  0.0379  0.0836
31016W        W47490   5.935   2.441   0.443 -0.0954  0.0834  0.1962
31017W        W47491  10.107  10.190   4.538  0.0597 -0.2115  0.1797
31018W        W47492  16.387  12.267   1.408 -0.1703 -0.0314 -0.1317
31019W        W47493  15.204   5.169  12.212 -0.2184 -0.0835 -0.1678
31020W        W47494   0.092  12.560  15.607  0.0996 -0.1681  0.1154
31021W        W47495  15.284   9.270  15.760 -0.1035 -0.4771 -0.0334
31022W        W47496   1.875   3.619   0.240 -0.0761 -0.0681  0.0727
31023W        W47497   1.475   4.976   1.645  0.0873  0.0368  0.1597
31024W        W47498   6.315   1.928   2.465  0.0222  0.2564 -0.0254
31025W        W47499  13.597   8.588   4.972 -0.3445 -0.1517 -0.0350
31026W        W47500   2.050   6.032  12.464 -0.1031  0.0519 -0.1597
31027W        W47501   2.284   2.330  14.446  0.2977  0.0248 -0.0375
31028W        W47502  12.001  15.159   3.837  0.0166  0.0374 -0.2611
31029W        W47503  12.382  16.639   5.136 -0.0882 -0.0094 -0.2195
31030W        W47504   9.272   4.232  16.275 -0.0600  0.0810 -0.2491
31031W        W47505  13.610  17.808   3.798 -0.4013  0.1031  0.2716
31032W        W47506  14.171  11.010  11.379  0.0575 -0.3458  0.2751
31033W        W47507  16.125   0.868   4.801  0.2066 -0.0491 -0.2316
31034W        W47508  12.805   3.835   4.544  0.0226 -0.1101  0.0804
31035W        W47509   7.217  14.390   4.280 -0.0190  0.1185 -0.1855
31036W        W47510  11.449   0.123  14.048  0.0714  0.1554  0.1219
31037W        W47511   1.018   9.090  13.130  0.0461  0.0272  0.1177
31038W        W47512   1.611   0.820  13.830 -0.0066 -0.0780  0.2034
31039W        W47513   7.952  17.278   1.303 -0.3566 -0.0998  0.3100
31040W        W47514   2.346  17.365  11.833  0.1698 -0.3300 -0.0279
31041W        W47515  10.287   5.043  15.984  0.5006  0.0733  0.2025
31042W        W47516   6.167  16.306  15.152 -0.1395 -0.2546 -0.1899
31043W        W47517   8.924  11.042  14.418 -0.1123  0.0155 -0.2923
31044W        W47518   9.361   2.313   1.215  0.0912  0.1271 -0.0367
31045W        W47519   5.758   0.221  12.447 -0.3441  0.0923  0.2115
31046W        W47520   3.723   7.476  11.572  0.0082 -0.1663 -0.0519
31047W        W47521  11.265  11.358  14.486 -0.0329 -0.0599  0.1225
31048W        W47522   4.144  12.964  11.560 -0.0597 -0.2209 -0.0800
31049W        W47523   9.474   7.850   2.625  0.0480  0.1024  0.1628
31050W        W47524  16.767  12.757   3.092  0.0078  0.1108 -0.1086
31051W        W47525   1.798   1.235   4.315  0.2889 -0.0809  0.3926
31052W        W47526   5.545   6.428  14.191  0.0696 -0.0350  0.0213
31053W        W47527   3.233   8.067   3.709 -0.2127  0.1537  0.0491
31054W        W47528   4.465   2.017   5.497 -0.1149  0.0479  0.0209
31055W        W47529  14.565  13.008  13.735  0.1227  0.1008 -0.1065
31056W        W47530   0.262  10.503   0.848 -0.1985 -0.3455 -0.1061
31057W        W47531  11.103  14.190  14.514  0.0738 -0.2072  0.1377
31058W        W47532  16.662   0.534  12.868  0.0454 -0.0770  0.3645
31059W        W47533   8.240   7.514  13.301 -0.2064 -0.0684  0.0131
31060W        W47534  13.630   5.485   5.694  0.1504 -0.0069  0.0958
31061W        W47535   8.953  12.613   2.495  0.0672  0.4981 -0.1376
31062W        W47536   8.711  13.625  12.858  0.2727 -0.1720 -0.0897
31063W        W47537   2.969  17.795   5.029 -0.0668 -0.0481  0.0316
31064W        W47538  13.650  14.917  14.676 -0.0828 -0.0603 -0.0084
31065W        W47539  12.467   5.813  16.307  0.0176  0.1397  0.1941
31066W        W47540  14.658  14.979  16.405 -0.0729 -0.0456 -0.1168
31067W        W47541  10.304  16.152  14.119  0.0778 -0.4112  0.0232
31068W        W47542  14.514   7.563  16.431  0.0257  0.1293  0.0188
31069W        W47543  14.047  14.877   3.295  0.0453  0.1169  0.2031
31070W        W47544  10.767  17.164   3.581  0.0842 -0.0292  0.0947
31071W        W47545  14.508  13.230  11.859  0.2390 -0.0165  0.1911
31072W        W47546   5.383  13.009   0.978 -0.1117 -0.0562  0.1594
31073W        W47547   1.400   3.225   4.778  0.1798 -0.3689 -0.2460
31074W        W47548  12.212   6.661  14.173 -0.2154 -0.1677 -0.1519
31075W        W47549   6.350   6.515  12.325 -0.1540  0.0531  0.1246
31076W        W47550   3.638  15.492   3.182 -0.2711 -0.1221  0.1679
31077W        W47551   6.712   5.975  14.601 -0.1915 -0.1634  0.0773
31078W        W47552   1.453   7.371   0.897  0.3487 -0.1668 -0.0367
31079W        W47553   2.997   7.950   3.287 -0.0013  0.0497 -0.0278
31080W        W47554   2.588  12.381  12.408  0.1267 -0.1343  0.1516
31081W        W47555   1.549  10.450  14.394 -0.0055  0.0819  0.2172
31082W        W47556   6.302   0.396   3.888 -0.2144  0.0348 -0.0923
31083W        W47557   7.722   4.434  15.098  0.3068 -0.1324  0.2664
31084W        W47558   0.605   7.506  15.895 -0.1010 -0.0461 -0.1515
31085W        W47559   7.762   0.526   1.771 -0.1869  0.0498  0.2571
31086W        W47560  16.005  13.285   5.090 -0.1347  0.0648 -0.1452
31087W        W47561   6.250  16.713  13.943  0.0338  0.1765 -0.1258
31088W        W47562  15.585   3.005  13.602  0.0198 -0.1242 -0.0398
31089W        W47563   9.090   0.521   0.873  0.0224  0.1976 -0.0478
31090W        W47564   5.533   6.765   5.079  0.0393 -0.1525  0.3280
31091W        W47565   7.315  13.792   1.625 -0.1888  0.1663 -0.1972
31092W        W47566  16.442   2.907   1.664 -0.2230 -0.1455  0.1641
31093W        W47567   4.802   3.179   5.444 -0.1246  0.0126 -0.0033
31094W        W47568   0.431  11.430   3.804 -0.1337 -0.1619  0.0734
31095W        W47569  17.220  17.102   1.345  0.2112 -0.0919  0.1189
31096W        W47570   2.082   3.467  11.851  0.3292 -0.3134 -0.1014
31097W        W47571  14.197  12.553   5.002  0.4938  0.1382 -0.0530
31098W        W47572  16.652   6.826   0.343 -0.2105  0.2141  0.1405
31099W        W47573   7.711   2.557   2.825 -0.1612  0.0556  0.0153
31100W        W47574  12.917   7.460  13.247 -0.1869  0.1388  0.3371
31101W        W47575   1.431  13.815   2.196 -0.2926  0.0075  0.0535
31102W        W47576  12.200  14.352  12.699  0.4543  0.1509  0.0797
31103W        W47577  13.309   8.993  11.831  0.0804 -0.1082  0.2292
31104W        W47578  16.443   7.274   5.585 -0.0352  0.1410 -0.0232
31105W        W47579  11.940  11.231   3.781  0.1045 -0.0994 -0.0721
31106W        W47580  17.090  14.505   2.911  0.3008  0.1899  0.1367
31107W        W47581   6.443   5.768  15.868  0.0750 -0.3243 -0.0546
31108W        W47582   8.765  13.065   2.441  0.1696 -0.1706  0.2793
31109W        W47583  11.592   9.803   2.829  0.1486  0.0501  0.0342
31110W        W47584   7.746  17.852   4.045 -0.0009  0.0271  0.1519
31111W        W47585  11.545  14.547   5.294 -0.0679  0.0885 -0.1641
31112W        W47586  11.097   0.763   1.250  0.2380 -0.1074 -0.1597
31113W        W47587   4.158   8.892   5.042  0.0127 -0.0336  0.0173
31114W        W47588   4.496   6.418  15.157 -0.0477 -0.2123  0.1455
31115W        W47589   4.130   3.181  14.873 -0.1935 -0.2107  0.0356
31116W        W47590   6.680   0.032  12.230  0.1002  0.0084 -0.2237
31117W        W47591  12.628   9.270  13.387  0.0347  0.0493 -0.0230
31118W        W47592   1.664   8.040  13.580 -0.1618  0.0793 -0.2128
31119W        W47593   3.644  10.449  11.341 -0.0941 -0.0656  0.1096
31120W        W47594  11.110   0.211   0.196  0.1359  0.0056  0.0521
31121W        W47595   3.943  14.665  12.840 -0.0804  0.2379  0.1913
31122W        W47596  14.378  16.834   0.579  0.0097  0.1600  0.1247
31123W        W47597   9.886  13.198  13.512 -0.0912  0.3200 -0.5023
31124W        W47598  11.478  13.332   0.530 -0.2818  0.0949 -0.1074
31125W        W47599  11.162  14.736  15.708 -0.0091 -0.1731 -0.1774
31126W        W47600   0.891   0.042  14.465 -0.1325  0.1389 -0.0294
31127W        W47601  12.165   5.346   4.026  0.0753  0.0843 -0.3872
31128W        W47602   6.365   2.980  13.323 -0.2202  0.0330 -0.0460
31129W        W47603   9.955   5.398   4.376 -0.3322  0.1236  0.2996
31130W        W47604  10.022  11.682  11.893  0.1437  0.0947  0.0762
31131W        W47605   7.147  17.933   0.677  0.1099 -0.4540 -0.1740
31132W        W47606  13.075   4.754  15.306 -0.2567 -0.1003 -0.0522
31133W        W47607   0.000  16.418   2.049 -0.0263  0.2884 -0.0728
31134W        W47608  14.019   8.332  16.200 -0.0715  0.3104  0.1868
31135W        W47609   9.586   2.146   3.012  0.1207 -0.0216 -0.3014
31136W        W47610  12.083   6.072  13.228 -0.2420 -0.0355 -0.1248
31137W        W47611  17.905   0.419   4.728  0.0608  0.1462  0.1683
31138W        W47612  10.662  16.274   4.431  0.2282  0.2703  0.0291
31139W        W47613   8.416   5.943   0.082  0.1835 -0.1146 -0.0647
31140W        W47614   6.672   6.593   1.881 -0.2926 -0.1733  0.0812
31141W        W47615  12.139  12.135  16.733  0.0406 -0.2903 -0.0541
31142W        W47616  14.325   3.458   5.575  0.0356 -0.1052 -0.3187
31143W        W47617  13.263  16.194  15.107  0.2433  0.0691  0.2578
31144W        W47618   7.235   7.180  15.353  0.1600 -0.2273  0.0319
31145W        W47619   7.827   0.876   4.063 -0.1367  0.1175 -0.1163
31146W        W47620   2.492  14.182   2.084  0.1511  0.0305  0.0370
31147W        W47621  12.763   3.409  12.815 -0.0641 -0.2339  0.0924
31148W        W47622  10.643   2.551  14.661 -0.4435  0.2216  0.1519
31149W        W47623  12.831  11.721   4.073 -0.0463  0.5255 -0.1621
31150W        W47624  11.337  13.217   4.370  0.1484  0.1202 -0.1396
31151W        W47625  16.727  13.794   2.508 -0.0284  0.1625 -0.0549
31152W        W47626  11.472  13.408   3.061  0.1684 -0.2608  0.0548
31153W        W47627  10.414   1.865   5.100  0.1659  0.0328  0.1275
31154W        W47628  15.905   0.121  12.664 -0.1777 -0.0474  0.0037
31155W        W47629   7.695  10.405   3.626 -0.1261  0.0523 -0.0486
31156W        W47630  14.567   0.594  15.080  0.1121  0.0800 -0.0017
31157W        W47631   7.432  12.500   4.102  0.0702  0.1887  0.1672
31158W        W47632  17.634   4.966   3.875 -0.1014  0.1475 -0.5137
31159W        W47633   8.422  13.459   0.159 -0.0443 -0.0386 -0.0052
31160W        W47634   1.996  11.675   2.241 -0.0778  0.1170 -0.1379
31161W        W47635  17.229   2.135  13.219 -0.0610 -0.0440  0.1179
31162W        W47636   1.190  10.524   2.619 -0.1388  0.3850 -0.1754
31163W        W47637  13.647  15.772  15.944 -0.3930 -0.0175 -0.1644
31164W        W47638   7.539  16.564   3.721 -0.1359 -0.0800  0.2546
31165W        W47639   0.857   4.212  15.849 -0.1579  0.3657  0.1059
31166W        W47640  16.848   6.239  11.795  0.0233  0.3669 -0.2451
31167W        W47641  15.578   1.350   2.501 -0.1654 -0.1070 -0.1651
31168W        W47642   0.784   2.031  16.643  0.0843 -0.3228  0.0699
31169W        W47643   0.617  16.505   1.085 -0.0397 -0.1808 -0.3025
31170W        W47644   5.556   1.166  16.538  0.2423  0.1601 -0.1584
31171W        W47645  11.258   7.229   5.562 -0.0690 -0.1686 -0.1883
31172W        W47646  16.621  12.047  15.964 -0.1547  0.2556 -0.0568
31173W        W47647  10.890  12.635  13.950 -0.0169  0.1329 -0.1405
31174W        W47648   2.539  14.977  15.382  0.2910 -0.1849 -0.2319
31175W        W47649   5.480  16.650   1.233  0.3437  0.1937  0.0035
31176W        W47650   9.613   7.897  15.420  0.2264  0.1658  0.1417
31177W        W47651   0.778   7.791   4.260 -0.3770  0.1837 -0.1023
31178W        W47652   3.918  14.774   6.027  0.0042 -0.1168 -0.1663
31179W        W47653  11.576   3.737   3.128 -0.1453 -0.2154 -0.0145
31180W        W47654   3.698  17.241  14.253 -0.0865 -0.1150 -0.1024
31181W        W47655  16.170  10.985   6.104  0.0106 -0.1385  0.1398
31182W        W47656   8.501   0.757  13.494 -0.1770 -0.0174 -0.0789
31183W        W47657   0.178  15.605   2.499  0.0020 -0.2947 -0.1912
31184W        W47658   2.027   9.878   0.488  0.0339 -0.0079 -0.0154
31185W        W47659  15.272  16.369  13.093  0.0821 -0.1701 -0.0804
31186W        W47660   9.304  11.322   3.863  0.0583 -0.2791  0.1623
31187W        W47661   3.607  12.429  13.777 -0.1412  0.1235  0.0919
31188W        W47662   8.360  10.800  13.167 -0.5044 -0.1749 -0.0969
31189W        W47663  15.987  13.284   4.566 -0.1151 -0.1962  0.0821
31190W        W47664   9.178   4.794   1.683 -0.1475 -0.0847  0.2097
31191W        W47665   9.810  12.917  15.574  0.0663 -0.0791 -0.0174
31192W        W47666  13.528  13.461  15.499  0.0765  0.0748 -0.1530
31193W        W47667   1.826  15.889  14.536 -0.1638  0.2565  0.0230
31194W        W47668  15.424   4.786   0.951  0.0618  0.4217  0.1771
31195W        W47669   4.462   1.173   2.353  0.2402 -0.0149 -0.0120
31196W        W47670  17.624  17.380   4.257 -0.3678  0.1800  0.2426
31197W        W47671   9.942  16.073  14.417  0.0008 -0.2149 -0.0936
31198W        W47672   6.085   5.806   2.198  0.0741 -0.0759  0.1797
31199W        W47673  16.794  12.416  12.247  0.0380 -0.0563 -0.1824
31200W        W47674   8.940  13.364   5.711  0.0030  0.2089  0.3140
31201W        W47675   8.411   2.548   1.765  0.1543  0.1796  0.0964
31202W        W47676  15.110   1.894  15.660 -0.0642  0.4467  0.0141
31203W        W47677   6.569  16.959   2.745  0.2389 -0.2991  0.0306
31204W        W47678  10.882  10.242   4.771 -0.0912  0.0829 -0.0930
31205W        W47679   2.319   2.949   5.269 -0.1258  0.1709 -0.0549
31206W        W47680  16.485   1.582   3.770  0.3623  0.0804 -0.4561
31207W        W47681  11.565  11.442   1.963  0.0947  0.0207  0.0764
31208W        W47682  12.427  11.967   1.626  0.0287  0.4180  0.0496
31209W        W47683   8.244   5.917   6.344 -0.1015  0.2012 -0.0622
31210W        W47684   9.790   2.499   1.571 -0.1266  0.1170 -0.2239
31211W        W47685  16.965   9.352   1.034 -0.0679 -0.3246  0.0836
31212W        W47686  15.514  17.497  12.202 -0.0884 -0.3416 -0.0567
31213W        W47687   1.804   5.312   4.961  0.1625  0.1504  0.0435
31214W        W47688  12.469  10.045  15.459 -0.0414  0.2202  0.0134
31215W        W47689  17.584   1.426  15.092  0.2305 -0.1146  0.1873
31216W        W47690   3.490  12.048   4.794  0.2205  0.0620 -0.1717
31217W        W47691   1.016  16.919  13.078  0.1581 -0.0995  0.1562
31218W        W47692   3.351  12.795   5.117  0.0077  0.0165 -0.0973
31219W        W47693   1.045  14.442  16.312 -0.2856  0.0444 -0.2327
31220W        W47694   4.163   8.554   0.173 -0.2551  0.0972  0.1556
31221W        W47695   6.845   5.268   2.519  0.0246  0.0844 -0.1003
31222W        W47696  11.061  14.667   0.975  0.1183 -0.1398  0.1503
31223W        W47697  11.053   7.294  12.677 -0.0917  0.1006 -0.2020
31224W        W47698   3.360   2.010   2.628  0.0076  0.0832 -0.0520
31225W        W47699  12.560   9.260   3.903  0.0182  0.0139  0.0349
31226W        W47700  17.158   4.435   5.234  0.1933 -0.1545  0.1949
31227W        W47701   3.317  12.645  13.103  0.0989 -0.1004  0.0050
31228W        W47702   3.996   9.512   0.217  0.2192 -0.0274 -0.0837
31229W        W47703  10.624  10.347  11.756 -0.0283 -0.0485 -0.0872
31230W        W47704  16.509   1.901   0.311  0.0604 -0.0607 -0.2573
31231W        W47705   5.704  11.791   2.382 -0.2617  0.0800 -0.2033
31232W        W47706   9.544   1.493  16.174  0.1158  0.0023  0.1624
31233W        W47707   2.892  14.740   1.297  0.2201  0.0042 -0.1736
31234W        W47708  10.813   1.337   2.948  0.0628  0.1068 -0.1249
31235W        W47709   0.121   8.486   5.025  0.0126  0.1043  0.0206
31236W        W47710   0.186   3.638   3.099  0.1638 -0.0038 -0.0693
31237W        W47711  14.698   1.564   5.798  0.2630  0.2916  0.1977
31238W        W47712   0.849  15.834   2.768  0.0442 -0.1461 -0.2529
31239W        W47713   6.895   5.246   0.994 -0.3614 -0.0568 -0.0581
31240W        W47714  17.705  12.486   6.049 -0.4329 -0.0393 -0.1730
31241W        W47715  13.931  15.916   5.511 -0.3118  0.0340 -0.0563
31242W        W47716   5.640  15.452  16.600  0.2788  0.3206 -0.0103
31243W        W47717   8.654  12.585   0.706 -0.0208  0.1217 -0.0479
31244W        W47718   6.103  14.889   3.874  0.1231  0.0397  0.0641
31245W        W47719  16.456  12.801  12.908 -0.0970  0.1934 -0.1218
31246W        W47720  14.051   5.165   4.995  0.2640  0.1579 -0.0868
31247W        W47721  17.218   3.146  15.534  0.2410  0.0588 -0.2307
31248W        W47722  17.149  11.668   1.251  0.0297 -0.0151  0.0666
31249W        W47723   4.230   3.476   2.210 -0.3341 -0.1404  0.2839
31250W        W47724   8.342   2.067   1.580 -0.0314 -0.0896 -0.0221
31251W        W47725   3.304   9.735  15.781  0.2359  0.1026 -0.1621
31252W        W47726   2.994  10.831  12.485 -0.0893 -0.1756 -0.1515
31253W        W47727  17.514  17.711  15.764 -0.1069  0.1809  0.1154
31254W        W47728   1.939   3.515  15.687 -0.0249 -0.0661 -0.0033
31255W        W47729  10.528   1.834   4.551 -0.0817 -0.0992 -0.2433
31256W        W47730   3.237   9.588   2.438 -0.0582 -0.0281  0.1731
31257W        W47731   4.659  11.514   3.146 -0.2880 -0.0237 -0.2118
31258W        W47732   9.576  17.483  14.731 -0.1900  0.0320 -0.2374
31259W        W47733   6.040   7.100   0.742  0.1110  0.6522  0.3296
31260W        W47734   4.092  12.355  12.572  0.1084  0.3108 -0.2321
31261W        W47735  16.108  16.244  12.769  0.3075 -0.0769  0.1517
31262W        W47736   6.493   8.063  15.631  0.0707 -0.0881 -0.0050
31263W        W47737   4.569   7.748   5.319 -0.0063 -0.0732  0.1547
31264W        W47738   1.794  13.434  12.318  0.0285 -0.0691 -0.0441
31265W        W47739  15.341   2.591   1.648 -0.2375  0.3891  0.2387
31266W        W47740  15.195   9.380   2.807 -0.0798 -0.1962 -0.0225
31267W        W47741   1.603   8.771  11.557  0.1428 -0.0999 -0.0835
31268W        W47742   3.339   0.919  11.020  0.4364  0.1473 -0.1899
31269W        W47743  13.665   5.872   2.336  0.3115 -0.0933  0.1394
31270W        W47744   0.451   0.525  13.519  0.1058 -0.0817 -0.2254
31271W        W47745  12.748  11.547  15.193  0.0187  0.2413  0.0540
31272W        W47746   0.311   3.410   5.771 -0.2362  0.0168 -0.0563
31273W        W47747   1.996  12.547  14.210  0.0527  0.1343  0.1301
31274W        W47748  10.330   0.952   4.977 -0.1652 -0.3204 -0.1336
31275W        W47749   9.138  15.517  16.454 -0.0622  0.2222 -0.0314
31276W        W47750   8.068   5.250   2.497  0.0310 -0.0153  0.2631
31277W        W47751  12.097   9.468  16.097 -0.3270 -0.0458 -0.2113
31278W        W47752  17.782  13.386   5.556 -0.0071 -0.0443 -0.0012
31279W        W47753  10.767  16.772  15.318 -0.0623  0.1033 -0.0959
31280W        W47754   3.057   9.951  11.600 -0.2597 -0.1233  0.1488
31281W        W47755  14.225  13.139  12.299  0.1185 -0.1687 -0.1608
31282W        W47756  17.000   9.187   3.065  0.4208 -0.2803  0.0825
31283W        W47757  10.009   5.084   3.976 -0.1619 -0.2482  0.0192
31284W        W47758  16.334   9.958  11.563  0.0349 -0.0542 -0.0414
31285W        W47759  12.506   9.229   3.328 -0.3075 -0.3099 -0.1350
31286W        W47760  12.539  17.489   0.912 -0.0415 -0.2335 -0.3286
31287W        W47761  13.013  11.582   3.044  0.1139 -0.0713  0.0128
31288W        W47762   7.817   7.345  15.144  0.0908 -0.0969  0.2184
31289W        W47763   7.812   7.132  13.325 -0.0938 -0.1238 -0.0221
31290W        W47764  12.084   4.741  13.277 -0.0929  0.2463  0.0735
31291W        W47765   5.790  14.057   2.979 -0.0933 -0.0330 -0.1854
31292W        W47766   4.707  10.557   3.115 -0.2425  0.2070  0.1005
31293W        W47767   6.019  12.014  11.614  0.4007 -0.0908  0.3563
31294W        W47768  13.827  16.013  13.482  0.1383 -0.0672  0.0073
31295W        W47769  17.403  15.499   1.965  0.1349 -0.4415  0.2220
31296W        W47770  13.454   4.144  13.658  0.0737 -0.1041 -0.1891
31297W        W47771   3.712  17.081   0.195 -0.0027 -0.0557  0.2398
31298W        W47772  12.092  13.487  14.574  0.1482 -0.1922 -0.0620
31299W        W47773  15.345   6.221  14.408  0.3584 -0.2515  0.0581
31300W        W47774   6.716  17.713   3.322  0.1592  0.1662  0.2843
31301W        W47775  13.261  16.431   4.857  0.0306  0.1628  0.2243
31302W        W47776  13.670   9.819   0.579 -0.4299  0.0637  0.2145
31303W        W47777   0.072   1.082  14.528  0.0726  0.1604 -0.1941
31304W        W47778  14.575   6.808   4.674 -0.0029  0.0389  0.0968
31305W        W47779  14.693   4.860  15.576 -0.2060 -0.1810 -0.1830
31306W        W47780  11.565   0.893   1.384  0.2458 -0.0106  0.2876
31307W        W47781   0.038   6.201   0.876 -0.0061  0.1604  0.0154
31308W        W47782   9.904   7.900   2.309 -0.3334 -0.0069 -0.1201
31309W        W47783  14.529   1.671   2.542  0.2484  0.1311  0.1554
31310W        W47784  13.126   0.863   1.418  0.0315  0.1268  0.0675
31311W        W47785   0.429   8.015   3.920  0.2571 -0.0916  0.2416
31312W        W47786  17.240  10.596   0.601 -0.3827 -0.1439 -0.1000
31313W        W47787   5.919  16.749  13.258  0.0897 -0.1985 -0.3079
31314W        W47788  14.376   3.715   1.667 -0.1899 -0.2805 -0.0616
31315W        W47789   1.321  13.738   1.669 -0.0319 -0.1307  0.0462
31316W        W47790  12.113   5.130   1.920 -0.2689 -0.0590  0.2341
31317W        W47791   6.923  11.063   4.468 -0.2562  0.0892 -0.2695
31318W        W47792  16.086  14.540  12.462  0.1396 -0.2411  0.1140
31319W        W47793   2.200   6.516   1.447  0.1500 -0.1346  0.3734
31320W        W47794  10.778  16.632  15.776 -0.0216  0.0782 -0.2369
31321W        W47795  17.395   5.153   4.466  0.2773 -0.2059  0.4021
31322W        W47796  10.548  12.267   6.161 -0.0748  0.2388 -0.1461
31323W        W47797  17.996   1.421  15.926 -0.0951  0.1858 -0.2312
31324W        W47798  14.695   0.425   1.162 -0.2311 -0.1764  0.0002
31325W        W47799  14.963   9.232   4.238  0.0191 -0.3098 -0.0234
31326W        W47800  17.385   0.125   1.227  0.1146 -0.0429 -0.1495
31327W        W47801  14.209   8.468   0.042 -0.1278 -0.1879 -0.0257
31328W        W47802  11.903   1.944  15.600  0.0781 -0.1126  0.0493
31329W        W47803  17.414  17.020  13.493 -0.1336  0.1033 -0.0478
31330W        W47804  10.945  16.972   3.154  0.1550 -0.1322  0.2790
31331W        W47805  15.768  15.604  12.116 -0.0292  0.0764  0.1649
31332W        W47806   3.272   2.573  16.419  0.2605 -0.1248 -0.1639
31333W        W47807   6.453  13.174  16.664 -0.0368  0.1848 -0.0237
31334W        W47808   7.595   4.651  15.575  0.1146 -0.0533  0.2292
31335W        W47809   6.969   7.296  16.704  0.0845  0.3586 -0.0248
31336W        W47810   5.107   3.614  12.580 -0.1680 -0.1404  0.0898
31337W        W47811   1.442  15.986   2.934 -0.2682 -0.1492 -0.0818
31338W        W47812  15.111  14.344  15.865  0.1469  0.0133  0.1668
31339W        W47813   8.836   5.583   1.576  0.2175  0.3324 -0.1118
31340W        W47814  17.479   5.711   4.421  0.1407  0.2736  0.0718
31341W        W47815   3.309  11.781   2.655 -0.2140 -0.1253 -0.2471
31342W        W47816  13.168  16.436  16.452 -0.2728 -0.1850  0.0417
31343W        W47817   9.984  17.162   0.179  0.1965 -0.3826  0.0961
31344W        W47818  13.015  14.397   4.872  0.0277 -0.4647 -0.1186
31345W        W47819  11.485  13.342   5.339  0.0007 -0.1303 -0.3865
31346W        W47820  10.029   7.205  16.367  0.0345  0.0044  0.0366
31347W        W47821   4.682  16.460   2.103 -0.1710  0.2306  0.2317
31348W        W47822  12.064  15.754  11.681  0.2291  0.0541 -0.3915
31349W        W47823   1.566   1.690  15.398 -0.0200  0.3278 -0.2701
31350W        W47824  15.432  13.948   0.172 -0.1841 -0.2065 -0.1249
31351W        W47825  13.728  12.667   0.675 -0.2433 -0.0489 -0.1771
31352W        W47826   0.980  17.661  14.006  0.1145  0.1453  0.0713
31353W        W47827  12.000  10.469   4.012 -0.3384  0.0886 -0.0707
31354W        W47828  14.600  16.438  15.174  0.0483  0.0776 -0.1267
31355W        W47829  11.647   1.416   0.575  0.1673  0.1854  0.0933
31356W        W47830  14.378  14.313  12.376 -0.0353 -0.1977 -0.1556
31357W        W47831  12.064  12.287  12.726 -0.0348 -0.1952  0.1689
31358W        W47832   3.141   7.544  12.766  0.3575  0.1057  0.1054
31359W        W47833  12.058  14.695   1.892 -0.2064  0.0404  0.1462
31360W        W47834   9.889   6.733  11.936 -0.0364  0.1138  0.2850
31361W        W47835  15.560  16.695   4.209  0.1037  0.0969  0.3020
31362W        W47836   1.945   1.577   0.154 -0.0502 -0.0444  0.2730
31363W        W47837  17.028   9.016  10.644  0.0312 -0.1470  0.1032
31364W        W47838  17.344   9.124   1.953  0.1864 -0.3046 -0.1476
31365W        W47839  12.495  15.804   4.811  0.0128  0.1223 -0.1053
31366W        W47840   6.625   7.704  16.384  0.0698 -0.0415  0.0457
31367W        W47841   0.659  17.273  14.035 -0.0245  0.0144 -0.0340
31368W        W47842  16.562   8.625   4.241 -0.3645 -0.0798 -0.2709
31369W        W47843  14.279  13.623   3.702  0.1082 -0.0309 -0.2487
31370W        W47844   1.835   8.553  14.602  0.0287  0.4399 -0.1645
31371W        W47845   6.584  17.061  14.138  0.2073  0.3218  0.2067
31372W        W47846   8.591   4.883  12.563 -0.2139 -0.0568 -0.1152
31373W        W47847   3.301   6.465   3.453  0.2266 -0.1413  0.0271
31374W        W47848   9.300  16.936  14.293  0.0547 -0.0151 -0.3213
31375W        W47849   1.915  13.166   1.845  0.2338  0.0260 -0.2440
31376W        W47850   6.984  17.636   1.125  0.3702  0.2830  0.1334
31377W        W47851   0.212  12.654  10.986 -0.1147  0.0213  0.2026
31378W        W47852   2.574   4.000  12.159 -0.3182  0.0078 -0.0431
31379W        W47853   0.838  12.869  12.335 -0.2485 -0.0564 -0.2275
31380W        W47854   4.245   9.931   5.589 -0.2268 -0.2021  0.0069
31381W        W47855   2.861  11.833  14.954 -0.3359  0.0068  0.1074
31382W        W47856  11.175  16.559  11.585  0.0275  0.0105  0.0128
31383W        W47857   3.100   1.605   1.678 -0.1925  0.0971 -0.2236
31384W        W47858  11.017  13.240   1.501 -0.1348  0.1277 -0.3181
31385W        W47859  10.083   9.809  11.265  0.0363 -0.2049 -0.0926
31386W        W47860  14.624  10.666  13.882  0.0489 -0.1473  0.1194
31387W        W47861   0.220   0.988  14.034 -0.0203  0.0445 -0.2605
31388W        W47862   1.793  17.165   5.625  0.0937  0.0139 -0.0514
31389W        W47863  11.812   7.106   2.156  0.0920  0.0872  0.1585
31390W        W47864  16.056   2.350  14.717 -0.1364 -0.3726  0.0795
31391W        W47865  10.325   8.733   3.707  0.3120  0.0708 -0.1357
31392W        W47866   0.419  16.904  13.270 -0.0269 -0.1411 -0.0758
31393W        W47867   0.977  16.318  16.543 -0.0093 -0.0762 -0.0442
31394W        W47868  10.246  17.908  13.940 -0.1717 -0.0243  0.1687
31395W        W47869   2.033   9.195  13.077  0.1653  0.0184  0.4071
31396W        W47870  13.974  17.394   5.585 -0.1038  0.2279  0.1759
31397W        W47871  15.925   6.254   4.787 -0.0491 -0.1367 -0.1485
31398W        W47872  16.273  12.374   3.053 -0.2804  0.0989  0.2605
31399W        W47873   9.859  10.247   2.480 -0.0347 -0.1398  0.1687
31400W        W47874  10.057  14.018   2.212  0.2060  0.0946 -0.1332
31401W        W47875   2.120   3.206   2.564 -0.0417 -0.2331  0.3346
31402W        W47876   5.554  11.584  14.602  0.0888 -0.1637  0.1420
31403W        W47877   9.111   0.993  14.605 -0.2468 -0.0544  0.3220
31404W        W47878  15.414   2.794  15.952 -0.2762  0.0953  0.2716
31405W        W47879   7.221   0.898  13.355  0.1751 -0.0208  0.2386
31406W        W47880   5.096   3.207  16.457  0.0298 -0.0148  0.2439
31407W        W47881  15.232   7.705  12.319 -0.0653 -0.0622  0.0579
31408W        W47882  16.054  13.967   4.374 -0.3771  0.0629 -0.1120
31409W        W47883   8.147  10.809  16.467 -0.2717  0.2280  0.2457
31410W        W47884   8.726   9.563  14.326 -0.2172 -0.0965 -0.0267
31411W        W47885   9.361  15.182   5.781  0.1115  0.1061  0.1904
31412W        W47886  13.550   3.496  11.610  0.1892  0.1792  0.0029
31413W        W47887  10.681   9.124   5.649  0.0725 -0.2090 -0.1564
31414W        W47888   9.624  11.815  15.323  0.0315  0.2983 -0.3731
31415W        W47889   7.676   9.140  14.249 -0.0576  0.1331  0.0995
31416W        W47890   6.658   8.723  16.268  0.1195 -0.2767 -0.4236
31417W        W47891   5.872   3.632   1.238  0.0485  0.0159  0.0511
31418W        W47892   9.514   1.642   3.989 -0.1624 -0.1236  0.0811
31419W        W47893  11.146  16.086  13.303  0.1225  0.0016 -0.2461
31420W        W47894   4.633   3.046   1.099 -0.3039 -0.1074 -0.0001
31421W        W47895  10.763  15.198  13.078  0.1090 -0.1400  0.0447
31422W        W47896  15.285  11.732   5.621  0.0048  0.0742 -0.1691
31423W        W47897   4.235   2.616   0.248 -0.2409 -0.1566 -0.1893
31424W        W47898  12.017   5.629   2.190  0.2788  0.0544 -0.0012
31425W        W47899   3.551   7.583   0.196 -0.2849  0.0486 -0.0085
31426W        W47900  16.483   3.587  14.112  0.0761 -0.0406  0.1137
31427W        W47901   5.436   7.175  13.561  0.1864 -0.1369  0.1525
31428W        W47902  14.582  11.143  14.884 -0.1156 -0.0725 -0.2723
31429W        W47903  12.686   4.671   1.308  0.0556 -0.0771 -0.0641
31430W        W47904  17.564  17.160   1.864  0.0564 -0.2560 -0.0525
31431W        W47905   3.250   6.801  15.130 -0.2007 -0.1140 -0.4509
31432W        W47906  11.358   6.317   3.627 -0.2723 -0.1280 -0.0724
31433W        W47907  14.202   0.855   0.584 -0.0672  0.1179 -0.3830
31434W        W47908   6.634   9.447  11.965 -0.2832 -0.0659  0.2721
31435W        W47909  16.075   6.650  16.002 -0.0355  0.1697 -0.1184
31436W        W47910  16.240  10.135  14.156  0.1849 -0.1587  0.2488
31437W        W47911  15.403   2.623  13.017 -0.0174  0.1029 -0.1773
31438W        W47912   0.472   3.553  12.470 -0.1066  0.1809 -0.1830
31439W        W47913  17.896   0.269  16.693  0.1242 -0.2113  0.2051
31440W        W47914   0.713   1.874  15.771 -0.1638  0.0291 -0.0053
31441W        W47915   9.175  10.120   3.453  0.2711 -0.0355  0.1413
31442W        W47916  15.303  17.596  15.144 -0.0665 -0.0047  0.1571
31443W        W47917  14.952   2.421  11.863  0.1483 -0.1245 -0.0743
31444W        W47918   0.514   9.111  13.346  0.0211  0.0688 -0.3025
31445W        W47919   0.349   3.261   4.279  0.1639  0.2025 -0.2125
31446W        W47920   6.792   2.143   2.022 -0.3868  0.0436 -0.0472
31447W        W47921   3.434   0.737  13.494 -0.2743 -0.1928  0.0996
31448W        W47922   5.802   9.662   2.574  0.1263  0.1194 -0.0004
31449W        W47923  16.060  15.812  13.237  0.2380 -0.2501  0.3855
31450W        W47924   9.655  13.225   2.675 -0.0325  0.1127 -0.1906
31451W        W47925  11.774   1.694   3.797  0.2497  0.1486  0.2432
31452W        W47926  13.530   8.825  14.699  0.1187 -0.2804  0.0502
31453W        W47927   4.679   4.157   5.599 -0.4213 -0.0376 -0.0816
31454W        W47928   4.578   6.435   4.768 -0.0201  0.1499  0.5824
31455W        W47929   9.334  16.265   1.044  0.0714  0.1427 -0.0507
31456W        W47930   9.280  14.043  15.060 -0.0771 -0.0111 -0.2259
31457W        W47931  10.061  16.589   5.231  0.0079  0.0052 -0.2367
31458W        W47932  12.571   1.367   0.859 -0.2517  0.1481 -0.0878
31459W        W47933  14.457   2.439   5.161  0.1513  0.1243 -0.2003
31460W        W47934   2.826  10.025   4.093 -0.1393 -0.4146 -0.1337
31461W        W47935  17.523  14.828  16.500  0.0441  0.2670  0.1876
31462W        W47936  12.874  17.843   2.105  0.2325 -0.2426 -0.2659
31463W        W47937  13.289  10.133  15.856  0.3564 -0.0522  0.1219
31464W        W47938   8.201   2.341  16.145  0.2364 -0.2419  0.1158
31465W        W47939  15.773   2.077  16.145  0.0079  0.1142  0.0712
31466W        W47940  17.282  13.669   2.694 -0.2332 -0.0790 -0.0158
31467W        W47941  17.514   7.006   5.809  0.1817  0.0484  0.0065
31468W        W47942  11.193  12.076   2.360 -0.0212  0.0278  0.1362
31469W        W47943   2.963   7.974  14.922  0.2099 -0.0025 -0.1260
31470W        W47944   4.542   7.728  11.289  0.0889  0.1841 -0.2413
31471W        W47945  12.899   0.086  15.227  0.1865 -0.3646  0.0134
31472W        W47946  16.933  13.550  12.818 -0.0359  0.0909  0.1354
31473W        W47947   2.667   9.261   3.841  0.1668  0.1496 -0.0509
31474W        W47948   9.291  14.785   0.981 -0.1246 -0.0613  0.0088
31475W        W47949   3.975  12.898  12.597  0.1306 -0.0258  0.1622
31476W        W47950   4.139   3.434   5.017 -0.0023  0.1110  0.0707
31477W        W47951   7.663   7.969   2.321  0.1876 -0.1518  0.0354
31478W        W47952   7.359  11.079   4.987  0.1896 -0.1780 -0.1091
31479W        W47953   2.139   0.359  14.342  0.0206  0.1455  0.0104
31480W        W47954   7.787   7.778  15.463 -0.1030 -0.2163  0.2017
31481W        W47955   4.568   8.038  13.929 -0.1574  0.0655 -0.0033
31482W        W47956  13.731   0.736  14.226 -0.2603 -0.1520 -0.2217
31483W        W47957  10.912  17.718  13.301  0.3141  0.1921  0.1769
31484W        W47958  15.559   2.918   0.412 -0.0244  0.2215  0.4849
31485W        W47959   6.419   8.705  16.752  0.2423  0.3310 -0.0124
31486W        W47960   6.060   9.426  16.342 -0.1271 -0.0253 -0.2327
31487W        W47961   0.215   6.712  14.161  0.3293  0.0140 -0.1127
31488W        W47962   1.977  12.397  12.857 -0.2098 -0.0137 -0.2008
31489W        W47963  11.497   2.168  13.822 -0.0974  0.2442  0.2381
31490W        W47964   4.764   3.289   3.022 -0.1372  0.1634  0.0766
31491W        W47965   9.433  11.005   1.444  0.0229 -0.0205 -0.3174
31492W        W47966   7.340  12.540  14.736  0.0794  0.1902 -0.3302
31493W        W47967   0.806  15.530   4.216  0.1064 -0.3163 -0.1162
31494W        W47968  17.623  12.455  14.344 -0.0480  0.0530 -0.0688
31495W        W47969  13.822  14.214  13.442  0.0162 -0.0036 -0.3671
31496W        W47970  15.327  11.527   4.634 -0.0586 -0.1093  0.3037
31497W        W47971  10.321   5.594   1.648 -0.2573  0.2485 -0.1987
31498W        W47972   0.442   9.707  16.396  0.0312 -0.1337 -0.2728
31499W        W47973  16.953   0.122  14.617 -0.0694 -0.2916  0.0934
31500W        W47974  11.436  16.755   1.041  0.1177 -0.2010 -0.0119
31501W        W47975   2.447   4.787   5.491  0.1160 -0.2530  0.0182
31502W        W47976   4.165   2.631  13.417 -0.4146  0.0027 -0.0837
31503W        W47977  12.111  15.583  12.424 -0.1281  0.1268  0.2113
31504W        W47978   0.803   8.267  13.778  0.1281  0.0321  0.0672
31505W        W47979   4.876  12.601  14.864 -0.2458  0.2967  0.0360
31506W        W47980  13.720   2.133  15.525  0.3370 -0.2822 -0.2167
31507W        W47981   1.493   7.392  14.496  0.2341 -0.0463 -0.0940
31508W        W47982   5.686   1.093  15.703  0.1481 -0.1193 -0.4408
31509W        W47983   7.934   6.304   5.440  0.3628 -0.1635 -0.0206
31510W        W47984  12.957  16.698  14.890  0.1014  0.2390 -0.0345
31511W        W47985  11.734  11.421  14.751 -0.1792  0.1745  0.1121
31512W        W47986   0.591  11.222   2.058  0.0632  0.0093 -0.0387
31513W        W47987   2.777  14.001  12.420 -0.0269 -0.2477  0.1370
31514W        W47988  17.811   5.948   1.259 -0.0112 -0.0934  0.0449
31515W        W47989   7.373   6.313   5.605  0.1066  0.0125 -0.3039
31516W        W47990  13.854  15.612   1.152 -0.0583  0.1009  0.0845
31517W        W47991   6.471   5.705   1.840 -0.1966  0.1016 -0.1564
31518W        W47992  14.283   5.642   4.057 -0.1376 -0.2154 -0.5525
31519W        W47993  11.696  12.235  14.846  0.0587 -0.2021 -0.0180
31520W        W47994  13.491   0.270  12.096 -0.3376  0.3333  0.1954
31521W        W47995  16.991   9.016  13.220 -0.1868 -0.0821 -0.0408
31522W        W47996   2.698  13.853  15.711 -0.0220  0.2479 -0.2179
31523W        W47997   8.315   8.996   1.137 -0.1024  0.0839  0.2002
31524W        W47998  13.980   1.340  12.800 -0.1723  0.2988 -0.0067
31525W        W47999  17.348   3.641  15.662  0.0926 -0.2462 -0.1335
31526W        W48000  15.839   2.098  12.587 -0.2791 -0.0819 -0.0743
31527W        W48001   7.368  16.492   2.659 -0.1264 -0.1405  0.1878
31528W        W48002  12.130   7.907  12.923  0.2782 -0.0481  0.0778
31529W        W48003   9.953  12.795   4.045  0.0985  0.0264  0.1338
31530W        W48004   9.967   0.988   3.509 -0.0503  0.0705  0.1735
31531W        W48005   7.291   2.196  14.005 -0.1262  0.4993 -0.1631
31532W        W48006   6.507  13.265  11.691 -0.1854 -0.0940 -0.1979
31533W        W48007   8.053  11.885   2.523 -0.1808 -0.1549  0.0513
31534W        W48008   7.613  15.844  14.234  0.2660  0.1352 -0.3031
31535W        W48009   1.573   0.454   4.711 -0.1359 -0.1248  0.0027
31536W        W48010   0.669   2.649  13.053  0.3422  0.0520 -0.0030
31537W        W48011   1.483   0.671  16.074 -0.1682  0.2219 -0.2185
31538W        W48012   4.768   2.794  16.254  0.0266  0.0952 -0.0133
31539W        W48013   1.359   7.920  14.935 -0.3366  0.3414  0.0750
31540W        W48014   1.161   0.791   2.280 -0.1748 -0.1466  0.1762
31541W        W48015  14.019  10.252  16.046  0.2010  0.0405 -0.0801
31542W        W48016  17.108   1.923  14.217 -0.3357 -0.1117  0.0126
31543W        W48017  17.949   6.005  15.372  0.2112  0.2009  0.0464
31544W        W48018  10.217  10.924  13.123  0.0229  0.0485 -0.1095
31545W        W48019   3.496   9.617   5.318 -0.1502 -0.0928 -0.0493
31546W        W48020   2.822   1.619  12.698 -0.0503  0.0739 -0.0060
31547W        W48021   0.413   6.132   0.560  0.0141 -0.0361  0.2708
31548W        W48022   8.024   5.723   0.839 -0.0940 -0.1974  0.1544
31549W        W48023  11.532  13.209  12.501 -0.0036 -0.4706  0.0252
31550W        W48024  16.934  12.372   1.752 -0.3392  0.3053  0.2373
31551W        W48025  14.951  17.140  15.541 -0.0453 -0.0364 -0.1158
31552W        W48026   6.384   2.351   4.833 -0.0778  0.0178  0.2069
31553W        W48027  13.479   4.057  14.767 -0.1166 -0.0883 -0.1561
31554W        W48028   4.233   1.059  15.351 -0.2270 -0.0855 -0.0083
31555W        W48029   2.150   4.996  13.729  0.0928 -0.1484  0.1801
31556W        W48030   0.659  13.457   3.330  0.2561 -0.1079  0.0964
31557W        W48031   9.959   4.754   0.184 -0.1820  0.0611 -0.0802
31558W        W48032  11.774  10.832   0.844  0.0225  0.1402  0.0103
31559W        W48033  10.044   5.609   3.784  0.0637 -0.1002  0.0275
31560W        W48034   0.104   3.764   1.777  0.1110 -0.2638  0.0492
31561W        W48035  11.412   4.082  16.665 -0.0766 -0.0654  0.0900
31562W        W48036  10.389   7.686   2.213 -0.3538  0.0533 -0.2370
31563W        W48037  10.007   7.738  16.578 -0.2067  0.1544 -0.1491
31564W        W48038   5.025  16.866   5.740  0.0093  0.0597 -0.2538
31565W        W48039   4.544   3.105   2.115  0.0320  0.0117 -0.1445
31566W        W48040   3.146  12.387   2.105 -0.2062  0.0879  0.0626
31567W        W48041   0.693   0.185   2.834  0.3181 -0.1428 -0.1610
31568W        W48042  15.162  14.205  14.894 -0.0345 -0.0176 -0.1302
31569W        W48043   1.380   5.136  12.964 -0.2238  0.0984 -0.1836
31570W        W48044  11.913   9.237  14.996  0.1189  0.0565  0.0321
31571W        W48045   5.882   6.452  15.315 -0.0117 -0.0382 -0.3633
31572W        W48046   3.361  13.115  13.005  0.2055  0.0025  0.1866
31573W        W48047   0.922   0.302   1.177 -0.0458  0.1651  0.0323
31574W        W48048   6.304   1.445  16.261  0.1350 -0.0108  0.1405
31575W        W48049   5.563  17.114  13.326 -0.0430  0.0082 -0.1754
31576W        W48050  14.971   6.704   2.532 -0.5579 -0.1824 -0.1483
31577W        W48051   9.874   4.699  14.854  0.0033  0.1937 -0.2176
31578W        W48052  15.706   0.178   0.185  0.2810  0.4322  0.1689
31579W        W48053   4.863   4.144  15.683 -0.0332  0.2016  0.0087
31580W        W48054  10.836   3.846   2.474 -0.0406 -0.1857 -0.1807
31581W        W48055  11.285  15.015  14.340 -0.1326 -0.0992  0.1376
31582W        W48056  15.918  17.512   3.677  0.4539 -0.1269 -0.3254
31583W        W48057  16.494   0.360  14.394 -0.2069  0.3559  0.1950
31584W        W48058  13.888  16.548   1.590  0.0115 -0.1953 -0.1934
31585W        W48059   8.102   5.135   3.426  0.0381  0.0938 -0.1681
31586W        W48060   5.138  16.476  15.605  0.0022 -0.1417 -0.0910
31587W        W48061   9.226  16.216   5.088 -0.0861  0.2893 -0.0072
31588W        W48062   2.288   1.907   3.042 -0.1229  0.1080  0.0200
31589W        W48063   0.774  10.300   2.510  0.1455 -0.0162  0.1353
31590W        W48064   6.557   4.693   3.085  0.3318 -0.0191 -0.1510
31591W        W48065   5.930  16.354   2.475 -0.0814  0.2317  0.1296
31592W        W48066   6.048  11.415   3.819  0.3620  0.1739 -0.0452
31593W        W48067  12.479  15.581   3.913  0.0343 -0.0185  0.1046
31594W        W48068   8.482   8.692  16.168 -0.2428  0.0726  0.1900
31595W        W48069   7.812   0.357   4.830  0.1398 -0.0281  0.1441
31596W        W48070   5.949  15.901  15.398  0.0623  0.0039 -0.2192
31597W        W48071   0.563   9.237  16.346 -0.4521 -0.0336 -0.0365
31598W        W48072  14.114   3.355  14.568 -0.2741  0.0125  0.2743
31599W        W48073   7.230   4.696   3.128 -0.1483 -0.0826 -0.0546
31600W        W48074   9.962   0.426   4.445 -0.0753  0.1402  0.1283
31601W        W48075   6.692  13.314   2.854  0.2685 -0.2255 -0.1795
31602W        W48076  16.991   2.286   1.130 -0.0766 -0.0911 -0.3408
31603W        W48077   0.652  15.268  16.062  0.1120  0.2499  0.0082
31604W        W48078  16.098  13.717  13.731  0.0131  0.3223 -0.0097
31605W        W48079  12.064  17.274  15.839  0.3957  0.1405  0.2868
31606W        W48080  15.171   8.311   4.142 -0.2567  0.0590 -0.2833
31607W        W48081   8.929   0.585  12.565  0.1127 -0.0674  0.3338
31608W        W48082   8.847  14.672   1.385  0.0279  0.1514 -0.0955
31609W        W48083  14.839  16.642   4.833 -0.0555 -0.0826  0.1323
31610W        W48084   2.849   7.282   4.312  0.2782 -0.1756 -0.3128
31611W        W48085  12.709   5.441  13.653 -0.0348  0.0623 -0.1036
31612W        W48086  10.176  15.270   5.363  0.0236  0.3093 -0.0016
31613W        W48087  14.597   5.068  14.057 -0.3097  0.1293 -0.0656
31614W        W48088   0.587   2.112   1.706 -0.1425 -0.1676 -0.1383
31615W        W48089   9.347  10.696  14.174 -0.0085  0.0221 -0.2100
31616W        W48090   7.007  12.271   2.387 -0.1334 -0.2326 -0.2182
31617W        W48091   7.909  12.189   0.405 -0.0286 -0.0732  0.0972
31618W        W48092  12.570   1.413  15.652 -0.0511 -0.3036 -0.0226
31619W        W48093  10.938   7.469   4.562 -0.0949 -0.0557  0.0802
31620W        W48094   6.349   2.898   2.987  0.1609  0.0461  0.1043
31621W        W48095  10.550  11.642   1.285  0.1776 -0.1169 -0.1174
31622W        W48096  12.982  11.209   0.129  0.3132 -0.0679 -0.0199
31623W        W48097   4.578  15.100  16.453  0.3010 -0.2342  0.3282
31624W        W48098  12.699   5.256  13.140  0.0692  0.2311 -0.1647
31625W        W48099   1.593   1.856  13.893  0.2463 -0.4048  0.2408
31626W        W48100   6.525   3.886   2.552 -0.0514  0.2193 -0.2008
31627W        W48101  17.355   2.553   1.632  0.0695 -0.0490 -0.1533
31628W        W48102   3.454  16.674  15.097  0.0330 -0.0011 -0.1519
31629W        W48103   7.020  12.754  15.139  0.0857 -0.2049 -0.2002
31630W        W48104  15.813  12.460   3.264 -0.0613 -0.2777 -0.3357
31631W        W48105  14.807   1.159  13.036  0.3474  0.2699 -0.3126
31632W        W48106   6.751  16.826   2.219  0.0387 -0.2954  0.0927
31633W        W48107  16.103  13.115   3.905  0.0821  0.0098 -0.4136
31634W        W48108   6.268   0.998  15.807 -0.1803  0.0825 -0.3273
31635W        W48109  11.132  12.581  15.959  0.1824 -0.0696 -0.0001
31636W        W48110   8.441  12.677   2.669 -0.2453 -0.0350  0.2064
31637W        W48111  13.340   3.390   2.758 -0.1407  0.2659 -0.0542
31638W        W48112  17.153   3.565   1.760  0.1097  0.1651  0.1155
31639W        W48113  12.517   2.297  16.691  0.0041  0.2416 -0.0126
31640W        W48114   7.210  13.326  11.838  0.0735 -0.2216 -0.3622
31641W        W48115   8.949  14.912  16.013  0.0781  0.0307 -0.0539
31642W        W48116  11.119   8.593   4.931  0.0819 -0.0572  0.0547
31643W        W48117  11.407  14.989   4.200  0.1401  0.3433  0.0681
31644W        W48118  12.928  12.402   0.732 -0.2967 -0.0340 -0.0951
31645W        W48119  11.603  14.044   2.292 -0.2795  0.3248  0.3597
31646W        W48120   7.844   7.065   0.566 -0.0502 -0.0553  0.0827
31647W        W48121  16.923  15.978  15.689  0.0600 -0.0399 -0.0599
31648W        W48122  10.992   7.762   4.998 -0.0978  0.2320  0.1522
31649W        W48123  13.424   0.371   4.182  0.2639 -0.0967  0.0673
31650W        W48124   8.283   1.763   3.697 -0.0075 -0.1124 -0.1328
31651W        W48125   0.118   4.847   0.078  0.1489 -0.1111  0.3050
31652W        W48126  11.860   3.765   5.589  0.0356  0.0680  0.0396
31653W        W48127  15.430   8.017  13.179 -0.0263 -0.3754  0.1875
31654W        W48128  13.782   9.031   4.853  0.1715  0.2706 -0.2585
31655W        W48129  17.389   4.570  15.708  0.0102 -0.0587 -0.2086
31656W        W48130  10.070  12.839  14.329  0.0236 -0.2356 -0.1668
31657W        W48131  10.711   9.980  16.082  0.1239 -0.2922 -0.1838
31658W        W48132   6.964  16.048   1.716  0.1784 -0.0713  0.0654
31659W        W48133  11.263   9.450  16.717 -0.2163 -0.0957 -0.0000
31660W        W48134  13.703   8.045   1.532 -0.3318 -0.1995  0.0729
31661W        W48135   3.948   5.899   3.943 -0.3768  0.0207  0.0405
31662W        W48136  11.559  10.078  14.789  0.2184  0.1857 -0.0242
31663W        W48137   0.471   2.068  15.395 -0.0777 -0.0934 -0.3480
31664W        W48138   5.338  11.549  12.380 -0.1869  0.1258 -0.2511
31665W        W48139   8.178  10.820   4.393 -0.0153  0.3649  0.1185
31666W        W48140  11.718  12.733  15.188  0.0062 -0.1244  0.3010
31667W        W48141  10.738   1.572  11.950  0.0004 -0.2227  0.0165
31668W        W48142   5.834   6.427   3.055 -0.0311 -0.1420  0.1723
31669W        W48143  10.333  15.987  15.585 -0.3074  0.3887  0.0891
31670W        W48144   2.100   5.344  12.999  0.1757  0.3045 -0.1342
31671W        W48145  17.957   1.689  16.375  0.0696 -0.0327 -0.1304
31672W        W48146  11.136   7.254   5.025 -0.1231  0.0948 -0.0237
31673W        W48147   7.578   8.529   1.163  0.2484  0.1879 -0.0330
31674W        W48148   2.113  15.627   0.797  0.1304 -0.1929 -0.1212
31675W        W48149  11.943   6.300   2.273  0.1515  0.0200 -0.1492
31676W        W48150  10.142   6.362  14.249  0.1461  0.1020 -0.0008
31677W        W48151   4.169   7.060  12.976  0.0904 -0.3117  0.1822
31678W        W48152  11.558   2.277   1.021  0.0069  0.2377 -0.2262
31679W        W48153   0.850  17.096   0.849 -0.2236 -0.0159  0.0445
31680W        W48154   7.166   2.128   2.910  0.0866  0.2304  0.2842
31681W        W48155  17.387  16.208  15.915  0.2325  0.0082  0.2487
31682W        W48156   6.509  10.122   4.650  0.0439 -0.0854  0.1187
31683W        W48157   6.655  11.478   4.677 -0.1513 -0.1438 -0.1711
31684W        W48158   2.993  15.131  15.688 -0.0654  0.2405 -0.1587
31685W        W48159   4.648  17.418  13.894 -0.0497  0.2012  0.1311
31686W        W48160   6.483   6.257   2.813 -0.1407  0.1171  0.0503
31687W        W48161   0.332  13.382  11.615  0.0382  0.0373 -0.1808
31688W        W48162  13.083   5.571   4.792 -0.3090  0.0420  0.0735
31689W        W48163   1.329   4.889   4.237 -0.2272  0.0512 -0.0608
31690W        W48164  10.054   4.903   0.666 -0.2278  0.0499  0.1768
31691W        W48165   2.400  11.830  10.868 -0.0805 -0.0393  0.0096
31692W        W48166  14.081  13.987  13.064  0.1604 -0.0159  0.2245
31693W        W48167   9.799   9.186   5.289 -0.2631 -0.0831  0.0173
31694W        W48168  13.758  13.668   0.489 -0.0334 -0.0905  0.2629
31695W        W48169   2.892  11.092   3.849 -0.1722 -0.4160  0.1866
31696W        W48170  15.765  16.723  16.540  0.1221  0.3175 -0.1627
31697W        W48171  17.716   3.329   2.660 -0.1694 -0.0266  0.1959
31698W        W48172   7.238   3.498  13.350  0.3871  0.0879 -0.6489
31699W        W48173  15.399   9.021   2.047  0.0032 -0.0614  0.0613
31700W        W48174  11.358   7.928   3.338  0.4150 -0.2339  0.0167
31701W        W48175  13.552   7.708  12.595  0.0561 -0.2731  0.1929
31702W        W48176  13.727   8.741  15.159 -0.1294 -0.0268 -0.0965
31703W        W48177   4.532  10.940   4.114 -0.4334 -0.0336  0.3164
31704W        W48178   0.027   6.732  11.839 -0.2564 -0.2625  0.2878
31705W        W48179   7.744   3.140  15.262  0.0816 -0.0274  0.4551
31706W        W48180   7.913  10.947   2.290  0.0218 -0.0773 -0.0489
31707W        W48181  13.340  13.528   2.478 -0.3712  0.0960 -0.2102
31708W        W48182   8.443   4.802   6.059  0.2198 -0.1829 -0.1979
31709W        W48183   1.687   2.592  15.245  0.2434  0.2701 -0.0830
31710W        W48184   3.232  16.073   3.225  0.0208 -0.0660  0.2634
31711W        W48185   0.041   3.790  13.681  0.1203  0.1603  0.0726
31712W        W48186  15.691   5.268  13.963 -0.0033 -0.2743  0.0253
31713W        W48187   7.418   3.095  16.622  0.1771  0.0119 -0.0258
31714W        W48188  13.230   3.137  15.223  0.2650 -0.0361 -0.1203
31715W        W48189  10.549  17.547   3.310 -0.0246 -0.1305 -0.0378
31716W        W48190   8.967  11.490  16.769  0.4413  0.1492  0.1287
31717W        W48191   4.320  10.975   1.793  0.1547  0.1666  0.2867
31718W        W48192  10.903   2.776   5.123 -0.1701  0.2694  0.5176
31719W        W48193   2.200  11.564   0.615  0.3662  0.2382 -0.0142
31720W        W48194   1.698   0.341  14.091 -0.3985  0.0734  0.3236
31721W        W48195   5.732  12.676   5.202  0.0736 -0.0302  0.2357
31722W        W48196   5.950   8.324  15.854 -0.0894 -0.0623 -0.0225
31723W        W48197  17.785   7.282  11.938  0.0658 -0.2339 -0.1010
31724W        W48198  12.679   9.769   0.506 -0.0076  0.1419  0.0760
31725W        W48199  13.098   3.542   1.721  0.1000  0.0698  0.0080
31726W        W48200   9.074  12.478  13.401 -0.0478  0.0551 -0.2091
31727W        W48201   2.474   5.656   3.204 -0.1786  0.2309 -0.3109
31728W        W48202   4.032  17.430   1.307  0.1962  0.1770  0.0530
31729W        W48203  11.297  14.417   2.105  0.0986  0.3205  0.0709
31730W        W48204   4.298   4.180  12.968  0.1165  0.1415  0.0861
31731W        W48205   1.460  11.874  15.164  0.0453  0.1220 -0.0294
31732W        W48206  14.442   4.543  13.714  0.0975  0.2711 -0.0731
31733W        W48207   2.522  15.874  15.735 -0.1733  0.1715  0.1063
31734W        W48208   5.881   1.850  14.688  0.2408 -0.1998  0.4279
31735W        W48209   0.729   1.254  16.291 -0.0467 -0.0876  0.1036
31736W        W48210   5.524  12.083  14.367  0.3514  0.0314  0.3645
31737W        W48211   5.916   9.702   3.984 -0.2063  0.1290 -0.1478
31738W        W48212   9.507  10.458  15.848 -0.2397 -0.0710 -0.2635
31739W        W48213  13.309   3.743  12.135 -0.2031  0.2829  0.0710
31740W        W48214   4.787  13.204   0.165  0.0101 -0.1835 -0.0866
31741W        W48215   4.711  11.983   0.517 -0.2543 -0.0835 -0.1682
31742W        W48216   1.297   8.399  13.486 -0.0342 -0.3241 -0.2876
31743W        W48217  15.128  12.653   0.846  0.1258  0.3487  0.1733
31744W        W48218  17.767   9.595   3.381 -0.0270 -0.1417 -0.1185
31745W        W48219  13.084   1.473  15.605 -0.0769  0.1908 -0.0363
31746W        W48220   5.349   0.500   3.877  0.2705  0.1589  0.1031
31747W        W48221   9.281  15.361   3.671 -0.1190 -0.1798 -0.1586
31748W        W48222  15.707  15.404  12.567 -0.1171  0.0261  0.3375
31749W        W48223   5.595   6.346   4.770  0.0907  0.1626  0.0741
31750W        W48224   6.942   0.886  11.121  0.1329 -0.0566 -0.1212
31751W        W48225   1.719   5.666   2.516 -0.0680  0.1032 -0.0948
31752W        W48226   3.063  15.558  12.198  0.0335 -0.0917  0.2001
31753W        W48227  13.341   5.773   1.591  0.1900  0.1473 -0.1976
31754W        W48228   0.045  10.113   3.214 -0.1357  0.0990 -0.0454
31755W        W48229  15.491   0.042  12.941  0.3782 -0.2221 -0.1212
31756W        W48230   7.209  14.021   4.771  0.0083  0.1815 -0.0731
31757W        W48231   4.592   8.347   1.872  0.0896  0.0590 -0.1606
31758W        W48232   1.341   2.197   2.434  0.2091 -0.1629  0.1633
31759W        W48233  14.861  16.701  12.967  0.1525  0.1734  0.3071
31760W        W48234   5.001  14.460   3.559 -0.1890  0.0885  0.0784
31761W        W48235  13.965   0.740   4.079 -0.0984  0.2224 -0.0622
31762W        W48236  17.545  10.335  12.041 -0.0265  0.2254 -0.1071
31763W        W48237   3.723  14.592  11.597  0.0283 -0.0397 -0.3764
31764W        W48238  10.806   6.188  14.932 -0.2669 -0.0257  0.0620
31765W        W48239  16.796  10.691   5.365 -0.0424  0.0120 -0.3116
31766W        W48240   5.596  15.139  15.121 -0.0028  0.0332  0.3088
31767W        W48241   4.709  12.572   4.038  0.1346 -0.4161  0.0393
31768W        W48242   2.649  15.397  12.434 -0.2147  0.2984  0.0154
31769W        W48243   0.365   9.182   3.513 -0.0354 -0.0146  0.1054
31770W        W48244   5.677   0.767   2.931  0.1324  0.1635 -0.0312
31771W        W48245   4.893  10.717  11.941  0.0452 -0.1129 -0.0179
31772W        W48246   9.468  14.149  15.518  0.0542 -0.0477 -0.1954
31773W        W48247  15.531  17.605   6.030 -0.1701 -0.1036  0.0440
31774W        W48248   4.627   7.144  13.892 -0.0687 -0.0704 -0.0299
31775W        W48249  16.952   5.443  15.088  0.1797  0.0716 -0.1066
31776W        W48250  13.006   2.116   3.426 -0.4784 -0.0589  0.5011
31777W        W48251  14.215   8.472  12.467  0.2744  0.1579  0.1009
31778W        W48252   6.140   9.765  16.737 -0.1231  0.2162 -0.0742
31779W        W48253  14.753   6.756   0.891  0.1725 -0.0903 -0.1410
31780W        W48254  17.706   6.153   4.734  0.0359  0.1656  0.0590
31781W        W48255   5.684   6.013  12.771 -0.1727 -0.2466 -0.1351
31782W        W48256  12.267  13.059   4.801  0.4196  0.1057 -0.1418
31783W        W48257  11.844   3.850  14.479 -0.1223  0.1582 -0.2349
31784W        W48258  11.257   8.289  14.225 -0.1319 -0.0409 -0.3458
31785W        W48259  13.779   2.010   1.005 -0.4010 -0.0319  0.0101
31786W        W48260  13.003   1.569  12.608  0.1032 -0.3184 -0.0090
31787W        W48261   1.925  12.513   0.984  0.0860 -0.1495 -0.0154
31788W        W48262   8.695   3.322  16.132  0.0303 -0.0069  0.1986
31789W        W48263   6.824  15.930   5.173  0.0767  0.0358  0.1809
31790W        W48264  14.889  10.870  12.136  0.2991 -0.2060 -0.0594
31791W        W48265  11.630  14.782  13.914 -0.3300  0.2794  0.3260
31792W        W48266   8.219   6.554  11.508 -0.2155  0.3710  0.0584
31793W        W48267   3.300  13.375   1.372  0.0444  0.2997 -0.1388
31794W        W48268  10.976  14.531  12.398  0.0881  0.0878 -0.1348
31795W        W48269  10.299   8.419  13.266 -0.0035  0.0455  0.2050
31796W        W48270  11.895   4.987  16.636  0.1010  0.3325 -0.4206
31797W        W48271   1.921  14.519   2.067  0.1709 -0.2441  0.0379
31798W        W48272  10.687  11.258   3.522  0.1283  0.0522  0.1233
31799W        W48273   8.618   4.994   4.151 -0.0621 -0.2033 -0.0753
31800W        W48274  13.968   8.570   2.129  0.1566 -0.1910 -0.1197
31801W        W48275  10.078  10.983   5.173  0.0275 -0.0307 -0.0241
31802W        W48276  17.082   2.847   3.558 -0.1341  0.0491  0.2299
31803W        W48277   7.521   3.506  11.698  0.0682 -0.0772  0.0051
31804W        W48278   0.627   8.992   4.291  0.1116 -0.4631 -0.2106
31805W        W48279   6.269  16.457   1.553 -0.0323 -0.4008 -0.1196
31806W        W48280  17.989  14.755   2.954  0.0283 -0.1849 -0.0821
31807W        W48281   0.303   3.003   1.001 -0.1141 -0.0410 -0.0757
31808W        W48282  10.523  13.329  16.441  0.0469 -0.0964 -0.1346
31809W        W48283   8.914   4.630  13.408 -0.1435  0.2633  0.4286
31810W        W48284   7.159   5.221   0.037  0.1366 -0.1588 -0.1816
31811W        W48285   0.313   7.806   5.793 -0.1514  0.2013  0.0156
31812W        W48286  15.260  17.990  14.407  0.0445 -0.0040 -0.2160
31813W        W48287  10.599   7.714  11.785 -0.1510 -0.3145 -0.1045
31814W        W48288   7.088   1.679   4.292 -0.0961 -0.1923  0.1248
31815W        W48289   7.541  14.679   2.092  0.3471  0.0796 -0.1678
31816W        W48290  12.415   0.563   4.240 -0.0736 -0.1118  0.2783
31817W        W48291  16.663   1.013   1.094 -0.1635 -0.2423  0.2095
31818W        W48292   8.772   2.810  13.428  0.2694 -0.1526 -0.1060
31819W        W48293  16.969   5.173  16.079  0.4118  0.1478 -0.2902
31820W        W48294   4.902   2.700   5.234  0.0744 -0.0161  0.0212
31821W        W48295  15.126  15.790  14.001  0.1423 -0.1401 -0.1660
31822W        W48296   8.932  15.096   0.603  0.1460  0.1190 -0.1960
31823W        W48297   4.546   9.223  13.316  0.3028 -0.1913 -0.2489
31824W        W48298   7.130  17.082  12.905  0.0170 -0.5734  0.0427
31825W        W48299   4.508   3.617  16.068 -0.0460  0.0344 -0.0255
31826W        W48300  15.682  12.452   5.043  0.0814 -0.0849 -0.4282
31827W        W48301   2.706  12.701  11.316 -0.1750 -0.0280  0.3439
31828W        W48302  15.651   9.900   1.545  0.2298  0.1093  0.0534
31829W        W48303   2.531   8.322  13.487 -0.0292 -0.0493 -0.1071
31830W        W48304   9.275   5.431   0.228  0.1747  0.2764  0.2411
31831W        W48305  15.949  17.682  16.597  0.0325 -0.1533  0.1771
31832W        W48306  15.844  15.559   3.809 -0.3348 -0.0865  0.2086
31833W        W48307  11.716  10.608   0.412  0.0404 -0.1493  0.1199
31834W        W48308  11.991   1.802  12.089 -0.0283 -0.3643  0.1020
31835W        W48309   6.258  17.318   3.310 -0.0605  0.0695  0.2073
31836W        W48310  10.837   2.221   4.322 -0.0707 -0.3939 -0.1762
31837W        W48311   2.119   4.626  12.419  0.2066  0.3779 -0.3022
31838W        W48312   6.277   9.929  15.918 -0.2491 -0.1630  0.1372
31839W        W48313  10.014   9.967  13.393 -0.0482 -0.0874  0.0803
31840W        W48314  17.401  17.909   4.125 -0.1713  0.2122  0.0612
31841W        W48315  10.981  11.058   2.467 -0.0218  0.2348 -0.0516
31842W        W48316   0.806   4.825   4.221  0.2340  0.3066 -0.0772
31843W        W48317  12.286   2.291   1.084 -0.0523 -0.0284  0.0440
31844W        W48318   9.618  13.854  14.700 -0.1034  0.4993 -0.1682
31845W        W48319  11.044  10.021  13.194  0.1754  0.0532  0.1152
31846W        W48320  15.368  12.590   1.291  0.1725  0.1637  0.0100
31847W        W48321  11.788   0.622   3.984  0.2384 -0.0825 -0.0348
31848W        W48322  14.609  11.000  13.485 -0.2017 -0.0134  0.0993
31849W        W48323   1.418   8.406   2.920 -0.0646 -0.1999  0.2092
31850W        W48324  14.958   1.480  11.668  0.1656 -0.0153 -0.2467
31851W        W48325  14.641   3.231  12.057  0.0364  0.0850  0.1260
31852W        W48326   1.904  15.846   2.776  0.3123 -0.1109 -0.0140
31853W        W48327  15.517   9.450   0.800  0.0715  0.1435 -0.1409
31854W        W48328   0.405   2.115   5.440 -0.1384  0.0523 -0.0447
31855W        W48329  11.134  17.103   4.363  0.2817  0.1871 -0.3105
31856W        W48330   3.336   8.406   4.460  0.2448 -0.0149 -0.1546
31857W        W48331   1.503  12.305   5.195 -0.1864 -0.3977  0.1646
31858W        W48332   5.422   0.326   0.866 -0.1993 -0.0814  0.1718
31859W        W48333   9.017  10.445   4.736 -0.2593  0.2297  0.2179
31860W        W48334   1.913  14.800  14.760 -0.1513 -0.0548  0.1042
31861W        W48335   9.046   6.315  16.147  0.0889  0.0267 -0.1230
31862W        W48336  11.076  11.809   2.952  0.0074 -0.2544  0.0718
31863W        W48337  14.834  13.425   0.615 -0.3048 -0.1047  0.1656
31864W        W48338  12.462   0.152  16.015  0.1956  0.0395  0.1829
31865W        W48339   1.059   1.722   4.568 -0.1406  0.0621 -0.1860
31866W        W48340  15.618  10.470  15.204  0.0257  0.1380  0.0315
31867W        W48341  14.100   6.684  15.587 -0.0012 -0.2367 -0.1116
31868W        W48342   7.771  12.261   5.881  0.1505 -0.2760 -0.2215
31869W        W48343  11.795   0.308   3.552 -0.0007  0.1219  0.3334
31870W        W48344   2.968   3.121   2.185  0.1331  0.0465  0.0003
31871W        W48345   6.651   3.553  13.006 -0.2379 -0.0441 -0.1698
31872W        W48346  14.506   5.335   0.881 -0.3153  0.0680  0.1790
31873W        W48347  11.083  11.486   1.245  0.3532 -0.0154 -0.1923
31874W        W48348  16.766  16.164   6.301  0.0804 -0.0578 -0.2003
31875W        W48349   5.603   0.550  12.140  0.1378 -0.2169  0.2172
31876W        W48350   7.644  12.636  16.655  0.0636 -0.0880 -0.0696
31877W        W48351   9.337   5.644  14.847 -0.1921  0.0815 -0.2412
31878W        W48352   0.084  15.149  16.234 -0.0309 -0.0087  0.0662
31879W        W48353  16.123  12.823  16.778 -0.2366 -0.0002  0.1885
31880W        W48354   7.500  15.488  16.400 -0.0378 -0.1804  0.0091
31881W        W48355   5.495  16.773  15.404 -0.6481  0.1801  0.2106
31882W        W48356  15.941  15.521   0.038  0.2583  0.1832  0.2144
31883W        W48357   4.992   2.522   4.095  0.2047 -0.0095  0.1387
31884W        W48358  15.647   4.997  12.071  0.4751 -0.0849 -0.1938
31885W        W48359  15.812   8.805   0.113 -0.0414 -0.0765 -0.3189
31886W        W48360  17.429  12.853   2.274 -0.2658  0.0651 -0.0746
31887W        W48361  13.923   1.766   3.836 -0.0082  0.1058 -0.3925
31888W        W48362  15.599   4.262   3.293 -0.0474 -0.0771  0.1728
31889W        W48363   4.485  17.570   3.666  0.1213  0.3252 -0.0122
31890W        W48364   3.002   5.166   4.492 -0.1862 -0.2061 -0.2702
31891W        W48365   0.367   9.890   4.156 -0.0948  0.1486  0.0253
31892W        W48366  15.499  13.047   3.871  0.1902  0.2001 -0.0225
31893W        W48367   7.489  14.719   3.347  0.1838  0.1912  0.3876
31894W        W48368   5.400  10.327   4.011  0.1749  0.1131  0.0833
31895W        W48369  10.698  16.201  13.008 -0.0158 -0.2083 -0.2549
31896W        W48370   2.447  10.973  11.321 -0.0445  0.0475  0.1346
31897W        W48371  15.840  11.462   4.721 -0.3261 -0.1042 -0.0060
31898W        W48372  12.216  10.680   0.637  0.2723  0.1344 -0.0203
31899W        W48373   1.776  14.291   4.805 -0.1801 -0.1202  0.0759
31900W        W48374   4.160   9.476   2.075  0.1407 -0.2297 -0.0402
31901W        W48375  11.407   3.319   5.039 -0.2105  0.2214  0.1320
31902W        W48376   5.252  12.052  13.719  0.0883 -0.0836  0.1943
31903W        W48377   4.308   0.042  12.225  0.1412  0.0291  0.0160
31904W        W48378   7.020   5.630   6.208  0.0415 -0.2052  0.1363
31905W        W48379   4.240   4.569  15.538 -0.1576  0.2543  0.0489
31906W        W48380  17.442  10.414  15.870  0.0193 -0.0823 -0.1772
31907W        W48381  11.095  10.818   6.054  0.1989 -0.2903 -0.0920
31908W        W48382   3.424   8.736   2.202  0.2718  0.1092  0.1349
31909W        W48383   6.517   0.047  16.283  0.2505  0.0627 -0.1111
31910W        W48384   9.781   5.604   5.605 -0.0667 -0.0240  0.2633
31911W        W48385   6.101   6.540  14.864 -0.0190 -0.3167  0.0737
31912W        W48386   3.434   3.219  14.115  0.1555 -0.3412 -0.3209
31913W        W48387  12.259   5.767   5.826  0.1477  0.4404  0.0222
31914W        W48388  14.673   9.381  12.027  0.0950  0.0100  0.1556
31915W        W48389   0.899   5.121   2.328 -0.0679 -0.1594  0.0791
31916W        W48390   6.581   6.787  13.473 -0.3797 -0.1328  0.0173
31917W        W48391  10.279   7.393   4.644 -0.0587  0.1783 -0.1609
31918W        W48392  14.782   2.777   5.587 -0.3620 -0.1499 -0.0706
31919W        W48393  15.757   0.433   5.963 -0.0205  0.1432  0.1500
31920W        W48394   2.022   6.064   1.249 -0.0104 -0.1907 -0.0391
31921W        W48395   3.593  17.487  12.661  0.0270  0.1311  0.0478
31922W        W48396   4.098   0.656   0.897  0.0924  0.1172  0.2192
31923W        W48397   5.623   5.037   1.177  0.2557 -0.2425 -0.1362
31924W        W48398   4.667  14.079  16.311 -0.2552  0.0485  0.1300
31925W        W48399   2.937   7.480  15.915 -0.1176 -0.0559  0.2155
31926W        W48400   8.700   1.668  15.913 -0.2071 -0.1168 -0.2465
31927W        W48401  16.041  16.586  15.321 -0.2284 -0.0398 -0.0203
31928W        W48402   3.908   8.021  14.174 -0.0163 -0.0246 -0.1585
31929W        W48403   1.147   9.375  16.156  0.1225 -0.0407  0.1306
31930W        W48404   1.394  13.096  14.468 -0.2107 -0.1772  0.1567
31931W        W48405  14.961  15.188   5.711  0.0828 -0.1848  0.1054
31932W        W48406   2.616  16.585   2.556  0.0735 -0.5186 -0.2008
31933W        W48407  15.102  16.319  14.886 -0.0847 -0.2014  0.0925
31934W        W48408   1.935   5.456  13.796  0.0556  0.5112 -0.1113
31935W        W48409   1.485   5.361  16.521  0.1025 -0.1750  0.3279
31936W        W48410   9.305   2.246  15.778  0.1366  0.0327 -0.0944
31937W        W48411   4.775  13.503   4.003  0.2038  0.1646  0.0932
31938W        W48412  13.566  15.314  15.474  0.1799  0.4306  0.2135
31939W        W48413  10.506   1.417   5.264 -0.0478  0.1319 -0.0866
31940W        W48414  17.271   7.904   4.687  0.0149  0.1818  0.3523
31941W        W48415   2.419  17.549  15.272 -0.1430  0.0911 -0.2153
31942W        W48416  11.593   8.871   4.876  0.2082 -0.1322 -0.0891
31943W        W48417  15.869   7.944   1.264 -0.0803  0.0666  0.1294
31944W        W48418  17.570  12.093   1.938  0.0085 -0.0359  0.3593
31945W        W48419  15.411  12.032   4.682  0.1083 -0.0216 -0.3378
31946W        W48420   1.179   9.622   0.311  0.0709  0.2455 -0.2726
31947W        W48421   5.812   0.225  11.187  0.1019  0.0243 -0.0757
31948W        W48422   6.094  17.817  14.973 -0.1626 -0.1970 -0.2712
31949W        W48423   9.350   3.988  12.682  0.0267  0.0620 -0.3233
31950W        W48424   8.375  17.293   4.885 -0.2269  0.2884  0.1522
31951W        W48425   1.364  11.534   3.582 -0.1985 -0.1281  0.0417
31952W        W48426  17.728   3.372  15.583  0.0781  0.1120 -0.3436
31953W        W48427  17.040   6.528   1.721 -0.0892 -0.0616 -0.0643
31954W        W48428  11.292  15.665   2.924 -0.4096  0.0764 -0.1146
31955W        W48429   5.213   0.458   4.757 -0.2421 -0.0960 -0.2415
31956W        W48430  13.684   3.087  14.484  0.1804  0.0231  0.2966
31957W        W48431   5.273   9.957  15.624 -0.0263  0.2114 -0.1761
31958W        W48432   0.758  14.618   5.521  0.3009 -0.1125  0.1307
31959W        W48433  10.515  14.027   1.449  0.3381  0.0338  0.0599
31960W        W48434   7.261  16.968   2.371 -0.1777 -0.1985 -0.1376
31961W        W48435   7.430  13.803  13.892 -0.0150  0.2981 -0.1737
31962W        W48436   9.205   1.633  11.468 -0.0823 -0.1182  0.1936
31963W        W48437   4.178   1.732   1.801 -0.0464  0.1210  0.2614
31964W        W48438  16.156   7.487   0.213  0.1241  0.0837 -0.3280
31965W        W48439  11.718   9.356   2.651 -0.2025  0.0227  0.0491
31966W        W48440   5.702  16.327  15.455 -0.1367 -0.0982 -0.1909
31967W        W48441  15.351   8.662   4.573 -0.2198 -0.0554  0.0744
31968W        W48442   6.692  17.958   4.118  0.1267 -0.0076 -0.1179
31969W        W48443  16.052  15.432   2.930 -0.0711 -0.0335  0.1086
31970W        W48444   5.003   9.913  16.576  0.2563 -0.2201  0.2933
31971W        W48445  17.770  13.823   4.205 -0.0058 -0.0717 -0.3880
31972W        W48446   2.341  10.264   3.369  0.0076 -0.1209 -0.0218
31973W        W48447  14.600   2.889   3.768  0.4008  0.1709 -0.0700
31974W        W48448  10.751   5.113  13.085 -0.2800  0.2195 -0.0547
31975W        W48449   5.438  16.228  11.841 -0.0732  0.2268 -0.0196
31976W        W48450   6.756  15.921  13.991 -0.0254  0.0052 -0.1616
31977W        W48451  15.618   1.464   1.120  0.0841  0.2592 -0.1692
31978W        W48452   8.770  16.424   4.232  0.0500 -0.1440  0.2288
31979W        W48453  13.235  15.988   2.988 -0.3302  0.0366  0.1105
31980W        W48454   1.562   3.182  14.084  0.0671 -0.0891  0.0236
31981W        W48455   2.700   3.268   3.217  0.1765  0.0698 -0.2669
31982W        W48456   6.307   2.352   0.057 -0.3499 -0.1276 -0.1776
31983W        W48457   7.887   2.907   2.517  0.2602 -0.0805  0.0467
31984W        W48458  13.829   9.022  13.416  0.2533 -0.3166  0.0717
31985W        W48459   8.844  16.317   1.023 -0.2132 -0.2080 -0.2830
31986W        W48460   8.329  17.641   1.525 -0.3488 -0.2055 -0.0961
31987W        W48461   3.143   7.905   1.269  0.0584 -0.0228 -0.0313
31988W        W48462  10.280   8.510   1.956 -0.0071  0.0552  0.4967
31989W        W48463   4.707  14.261   5.102  0.1257  0.0512  0.1716
31990W        W48464   6.580   8.449   4.699 -0.1144 -0.2116  0.1552
31991W        W48465   9.600   8.661   0.802  0.2475 -0.3157  0.0727
31992W        W48466   2.338  17.971  16.456 -0.3845  0.1562 -0.2385
31993W        W48467  13.878   6.481   3.181  0.0809 -0.1587  0.2296
31994W        W48468  10.742   1.917   0.821  0.0439  0.1297 -0.1128
31995W        W48469  12.387  11.035   5.628  0.0743  0.0858 -0.1632
31996W        W48470   8.683  17.242   3.150 -0.1762 -0.2264  0.2345
31997W        W48471  13.298  16.342  11.829 -0.1640 -0.0139 -0.0197
31998W        W48472   1.214  14.577  11.890  0.0070  0.1064  0.0893
31999W        W48473  16.916   0.669  13.627  0.0433  0.2938 -0.2251
32000W        W48474   7.962   7.684   0.852  0.3519 -0.3567  0.2082
32001W        W48475  13.280  16.443  14.506 -0.1161  0.1056  0.0061
32002W        W48476  15.991   4.234   0.578  0.2836  0.1588  0.1481
32003W        W48477  16.404   5.823   6.490  0.1544 -0.0425  0.1841
32004W        W48478  15.340  10.773  14.321 -0.0271  0.2051  0.1088
32005W        W48479   9.319   4.295   0.891  0.2666  0.0433 -0.1159
32006W        W48480   8.444   2.314   4.538  0.0427  0.4380 -0.0037
32007W        W48481   0.862  12.333   2.944 -0.0976 -0.0787  0.1061
32008W        W48482  16.579  12.839  15.447  0.0202 -0.1577 -0.3188
32009W        W48483   0.618  15.900  11.915  0.0894  0.2011 -0.1310
32010W        W48484   7.255   5.196   3.285 -0.0888  0.3688  0.2529
32011W        W48485   9.556   5.411   1.173  0.0258  0.0742 -0.1823
32012W        W48486   9.930  14.765   3.650 -0.1729  0.0275 -0.2915
32013W        W48487   8.500  10.889  11.905 -0.1283  0.0954  0.0805
32014W        W48488  16.129  15.804  15.168 -0.3419  0.1560  0.2143
32015W        W48489   8.881  14.439  10.378  0.0662 -0.1110  0.0555
32016W        W48490   4.487   2.368  11.694  0.0499  0.1162 -0.0219
32017W        W48491  17.894   7.459  16.432  0.0921 -0.1324  0.0248
32018W        W48492   3.624   0.720  14.865 -0.3261 -0.1203  0.2566
32019W        W48493   1.064   1.201   2.575 -0.0158 -0.0125  0.0592
32020W        W48494   1.711  16.348   2.732 -0.0141  0.0879  0.3922
32021W        W48495   3.043   6.296   2.069 -0.1072 -0.0211 -0.1637
32022W        W48496   8.905   3.474  11.936 -0.0819  0.0263 -0.2324
32023W        W48497   5.864  13.132   3.140  0.3375 -0.1513  0.0241
32024W        W48498   5.921   3.141  15.860  0.0956 -0.1486  0.3801
32025W        W48499   1.337  12.706   1.735 -0.2509  0.0262  0.0791
32026W        W48500   2.689   0.430   5.541 -0.2008 -0.0676 -0.3338
32027W        W48501   2.459   6.558   5.435  0.0716  0.0922  0.1405
32028W        W48502   8.042  13.443  15.474 -0.0512  0.1555 -0.0431
32029W        W48503  12.748  17.130   3.234 -0.1976 -0.0392  0.1006
32030W        W48504   9.552   4.998  15.613 -0.0365  0.5083  0.2126
32031W        W48505  11.236   9.511  13.330 -0.1102 -0.1895  0.1768
32032W        W48506  10.213  12.349   3.980  0.2802  0.1819  0.0997
32033W        W48507   5.773  17.026  12.862 -0.0645 -0.1880 -0.2806
32034W        W48508   5.561   1.129   5.314  0.1683 -0.3021 -0.4726
32035W        W48509  11.112   2.863   5.610  0.0419  0.0399  0.0188
32036W        W48510   9.102   1.639   0.149  0.1012 -0.0806 -0.1283
32037W        W48511  15.957  16.556  14.747 -0.0245 -0.3328  0.0900
32038W        W48512   7.577   5.985  12.173  0.0199 -0.1476  0.3480
32039W        W48513  10.045   0.695   0.960  0.0020 -0.0386 -0.0166
32040W        W48514  10.366   5.569  14.166  0.0119 -0.0993 -0.3612
32041W        W48515  14.906  12.413   5.653  0.1846 -0.0691  0.0955
32042W        W48516  13.610   1.164   5.013  0.0485  0.3012 -0.0338
32043W        W48517  11.931  17.329   1.580 -0.0145 -0.3829  0.0320
32044W        W48518   7.608  16.010   2.845  0.0432  0.2838 -0.0009
32045W        W48519  11.955  13.400   1.154 -0.1437  0.0011 -0.1736
32046W        W48520   5.034  11.137  12.263 -0.1691 -0.0460 -0.0134
32047W        W48521   9.961   6.180   2.185  0.0762 -0.0675  0.0826
32048W        W48522   0.356  12.567   3.085 -0.3216 -0.1374  0.0196
32049W        W48523   4.923   0.039   4.506  0.0357  0.0445 -0.2861
32050W        W48524  11.541   9.448   0.553  0.1023  0.6703  0.2663
32051W        W48525   8.128  12.122   1.057 -0.0594 -0.1984 -0.1763
32052W        W48526   1.411   5.496   2.948 -0.0591  0.1159 -0.2151
32053W        W48527  17.544  10.956  15.602 -0.0439  0.1418  0.0018
32054W        W48528  15.425   1.945   5.257  0.3231  0.1634 -0.0017
32055W        W48529   4.543   9.755  14.144  0.1156  0.0498 -0.2809
32056W        W48530   9.670  10.315  13.469 -0.0558 -0.3734 -0.1289
32057W        W48531  14.917   9.093  15.399  0.0835  0.4299 -0.0360
32058W        W48532  17.056  17.370   2.188  0.2279  0.5508  0.4024
32059W        W48533  17.607   7.479  15.996  0.2528 -0.0328 -0.0328
32060W        W48534  11.447   7.941  12.995  0.1633  0.2466 -0.1154
32061W        W48535   9.467   8.009  12.103  0.0101 -0.0814 -0.3208
32062W        W48536  16.161  15.289  10.815 -0.2450 -0.0053  0.3332
32063W        W48537   7.352   3.464   4.420  0.1600  0.1326 -0.0311
32064W        W48538  17.106   7.628   3.765 -0.2599  0.1018  0.0747
32065W        W48539  13.292  10.615  13.846 -0.3494 -0.3428  0.0716
32066W        W48540   6.100   0.948  14.927  0.0588 -0.0953  0.2464
32067W        W48541   2.825   5.110   5.199 -0.0028 -0.1153 -0.0493
32068W        W48542  13.923  13.537  11.854  0.3313  0.0698 -0.3262
32069W        W48543   7.073  12.960   1.946 -0.2019  0.1954 -0.0300
32070W        W48544  10.842   1.924   5.834  0.0112 -0.0349 -0.0081
32071W        W48545   9.830   8.495   0.408 -0.1561  0.0356 -0.1237
32072W        W48546   0.559   5.254   3.645  0.3497 -0.0802 -0.1146
32073W        W48547   0.290  10.880  15.050 -0.0158  0.2190  0.0904
32074W        W48548  13.400   4.961  12.587 -0.2632 -0.0790  0.0864
32075W        W48549  14.507   7.481   4.125 -0.1909  0.0671  0.0016
32076W        W48550  13.856   5.944   5.777 -0.2070  0.2017  0.3516
32077W        W48551   2.577  12.768   0.343 -0.2942  0.4809 -0.1205
32078W        W48552   3.772  16.080   3.072 -0.0221  0.0515  0.1500
32079W        W48553  16.765   2.425   3.236  0.0239 -0.0032 -0.2602
32080W        W48554  11.850  16.662  16.768  0.0243 -0.2641  0.1520
32081W        W48555   1.894   2.325  13.939  0.1337  0.0204 -0.0095
32082W        W48556   3.005  12.116  12.421 -0.1539 -0.4143  0.2511
32083W        W48557  17.787   6.946   2.173  0.0602 -0.0704  0.1093
32084W        W48558  15.721  12.440  14.096 -0.0266  0.0076 -0.3146
32085W        W48559   8.974  10.001  11.984 -0.3060 -0.0094  0.0184
32086W        W48560   5.828   6.605   0.552  0.5881 -0.0142 -0.0802
32087W        W48561  10.276   6.134  14.767 -0.1753  0.3602  0.2085
32088W        W48562  12.875   0.417  15.971  0.1392 -0.0979 -0.1385
32089W        W48563   8.810   3.672  13.974 -0.2346  0.2263 -0.3559
32090W        W48564   7.810  16.272  16.690 -0.3562 -0.3310  0.2304
32091W        W48565  14.154  11.707  15.432 -0.0356  0.2333  0.1872
32092W        W48566  13.160   8.722   2.062 -0.0680 -0.2345  0.1132
32093W        W48567   3.178  17.803  15.969 -0.2912  0.0000 -0.0274
32094W        W48568   6.311   2.000   4.130  0.0422  0.0160 -0.3069
32095W        W48569  16.883   5.464  13.297 -0.1117 -0.0283 -0.0870
32096W        W48570  16.582  15.343   0.547 -0.1746  0.0142 -0.1738
32097W        W48571   4.192   8.765   1.588  0.1070  0.1528 -0.1624
32098W        W48572  16.133  11.026   1.034 -0.3210 -0.1778  0.0366
32099W        W48573  15.942  10.830   5.692  0.2620  0.0351  0.1104
32100W        W48574  16.222   1.861  13.620 -0.3168 -0.1301 -0.1216
32101W        W48575   9.877   5.588   0.752  0.2123 -0.0819  0.2212
32102W        W48576  15.623  12.217   2.498  0.1019  0.3352  0.0031
32103W        W48577  11.637   2.805   3.327  0.2060 -0.3371  0.3713
32104W        W48578   1.120  16.375   1.878 -0.3069  0.3081 -0.1901
32105W        W48579  15.004   2.930   2.556 -0.3030 -0.2751  0.1344
32106W        W48580  17.734   8.121  13.231 -0.1615 -0.1071  0.1563
32107W        W48581   3.568  14.878   4.375  0.2621 -0.1379  0.0617
32108W        W48582  10.408   3.367  12.112  0.2485 -0.2663  0.0250
32109W        W48583  12.504   5.940  12.027 -0.1302 -0.1561 -0.1933
32110W        W48584  14.279   2.212   1.017  0.0502 -0.2627 -0.0789
32111W        W48585   7.321   5.517  15.487  0.0371 -0.0853  0.1140
32112W        W48586   3.492  12.662  12.637 -0.1147 -0.0118  0.1058
32113W        W48587  17.937   8.065  13.688 -0.0866 -0.0849 -0.0500
32114W        W48588   1.656  14.911   1.845 -0.3401  0.0851 -0.2307
32115W        W48589   0.304  14.413   5.493  0.0292 -0.2105 -0.0374
32116W        W48590  11.732  14.642  16.406  0.0901  0.1419  0.3707
32117W        W48591   8.076  13.349   1.774  0.2120 -0.0917 -0.4426
32118W        W48592   5.959   4.639  16.316 -0.2116 -0.1939 -0.0590
32119W        W48593  17.718  11.332  16.287 -0.2627 -0.0440  0.0837
32120W        W48594   0.388   0.340   4.657  0.2847 -0.1756  0.3190
32121W        W48595  11.979   2.182   0.730 -0.0167  0.2358  0.2980
32122W        W48596   3.947   8.631  15.380  0.0872 -0.2580 -0.2091
32123W        W48597   4.525   7.132   3.087  0.0521 -0.0733 -0.2586
32124W        W48598   7.611   4.043  13.817  0.0114  0.2058  0.2424
32125W        W48599  12.891  13.629  13.171 -0.0194  0.1059  0.0065
32126W        W48600   3.542   2.360  15.536 -0.1827 -0.2851  0.0039
32127W        W48601   6.318  11.955   1.223  0.0464 -0.2137 -0.3292
32128W        W48602   2.104  16.941  14.037  0.0174 -0.1820  0.2532
32129W        W48603  11.070  11.356  12.463  0.4462 -0.2363 -0.1336
32130W        W48604   6.872   9.396  12.804  0.0832 -0.0718 -0.1360
32131W        W48605  11.953   8.853   1.096  0.0263 -0.1714  0.0719
32132W        W48606   7.055  10.854  15.345 -0.0587  0.0086  0.0148
32133W        W48607   9.437  13.796   0.849 -0.0786  0.0559 -0.1058
32134W        W48608  15.114  15.938   5.178 -0.1906 -0.0500  0.1074
32135W        W48609  13.515   3.886   0.950  0.2961  0.1007 -0.0359
32136W        W48610   7.253  15.306   3.609  0.0439 -0.2476 -0.0282
32137W        W48611  11.895   7.926   3.404  0.2764 -0.5310  0.3195
32138W        W48612  11.056   2.813  12.581  0.2462  0.3549  0.2758
32139W        W48613   1.354   4.062  13.128  0.0596  0.2202  0.3439
32140W        W48614   4.013   0.424   2.686  0.0410  0.0379 -0.1377
32141W        W48615  15.922   4.480  14.882 -0.3104 -0.0831 -0.1867
32142W        W48616  11.248  10.226  12.748 -0.1539 -0.0234 -0.3936
32143W        W48617   2.612   4.765   3.738 -0.1169  0.0494 -0.0269
32144W        W48618   1.184   7.133  13.653 -0.0207 -0.0629 -0.3296
32145W        W48619  15.512   1.706  13.084  0.4057  0.1161  0.0237
32146W        W48620   3.146  14.127  14.733  0.0550  0.0249 -0.0023
32147W        W48621   6.138  16.104   3.960 -0.1573  0.1466 -0.2315
32148W        W48622  16.692  13.966   5.534 -0.4565  0.1737  0.2253
32149W        W48623   9.156  16.794   0.306 -0.0621  0.1156  0.0696
32150W        W48624  14.904   0.609  13.717  0.1583  0.0859 -0.0528
32151W        W48625  12.752  14.847   1.020 -0.2202  0.2081  0.2004
32152W        W48626  17.564  12.551   4.703 -0.3220 -0.1102 -0.0467
32153W        W48627   2.353   8.779  12.027 -0.0558 -0.1362  0.1050
32154W        W48628   9.200   0.035  16.471 -0.1140  0.0484 -0.1472
32155W        W48629   2.105   5.208   1.540 -0.3092  0.0060  0.1878
32156W        W48630   9.110   4.358  14.959  0.0129  0.1647  0.3337
32157W        W48631  16.266   1.480   0.351  0.2364  0.0849  0.0858
32158W        W48632  16.153   8.062  12.518 -0.0031  0.0123 -0.2474
32159W        W48633   3.199  12.775   2.919 -0.1900  0.0740 -0.1223
32160W        W48634   2.281  11.464  11.270  0.1795 -0.0015  0.0384
32161W        W48635   5.648   7.492  16.477 -0.0508 -0.0430 -0.0537
32162W        W48636   8.473  12.710  16.456 -0.1829  0.3056  0.0063
32163W        W48637  13.797   5.914  15.778 -0.2405 -0.1019  0.2273
32164W        W48638  17.882  12.387   0.135  0.0623 -0.1785 -0.2168
32165W        W48639  16.628   0.294   2.894 -0.0518 -0.0440 -0.1604
32166W        W48640   1.863   4.898  13.259  0.0489  0.1678 -0.0547
32167W        W48641   4.338   6.994  16.455  0.1892  0.3659  0.2914
32168W        W48642  15.978   5.936   3.825 -0.0540  0.0909  0.0932
32169W        W48643   9.838   4.232  12.587 -0.1624 -0.1626  0.0126
32170W        W48644   7.500   2.047   1.644  0.2421 -0.0213 -0.1126
32171W        W48645   0.759  12.871  14.962 -0.2353  0.2950 -0.4158
32172W        W48646  13.164   7.509   5.520 -0.1343  0.0683  0.0632
32173W        W48647  12.160   4.320   0.747  0.0984  0.0880 -0.0632
32174W        W48648   3.717  15.736   2.701 -0.0113  0.1983 -0.1728
32175W        W48649  12.527   3.405   1.704 -0.0690 -0.1056  0.2361
32176W        W48650   9.186   9.635   3.505  0.0124 -0.0085 -0.2143
32177W        W48651  14.481   9.470  13.221 -0.1251  0.0330  0.2416
32178W        W48652   0.013   7.569   2.619  0.3444 -0.0620 -0.2351
32179W        W48653  17.508  17.295  11.709 -0.0837 -0.0426 -0.3218
32180W        W48654  15.099   2.679  15.051 -0.0700  0.3819  0.2113
32181W        W48655   4.829  17.441   0.815  0.3833 -0.2830 -0.4446
32182W        W48656   8.630  16.979   4.013 -0.0582  0.0908 -0.1052
32183W        W48657   5.428  10.043   3.535 -0.2179  0.1117  0.3147
32184W        W48658   6.000  10.508   1.267 -0.2030 -0.0212  0.0797
32185W        W48659  14.558   9.609  14.630  0.1518  0.0052 -0.1800
32186W        W48660  13.397   0.765  12.022 -0.1730 -0.2274  0.1859
32187W        W48661   9.339  15.594   2.643  0.3792  0.2432  0.2168
32188W        W48662   9.264   4.451   5.240 -0.0578  0.0803 -0.2242
32189W        W48663  12.573  13.453   1.293 -0.1394  0.3086 -0.0733
32190W        W48664  16.083   2.523   3.569  0.0961  0.2691 -0.1106
32191W        W48665   3.789   9.999  14.526 -0.3736  0.1154  0.2556
32192W        W48666  12.557   3.037   5.441 -0.1022 -0.0709 -0.2140
32193W        W48667   6.371   7.215  15.015 -0.1399 -0.0488 -0.0085
32194W        W48668   2.037   8.544  12.795  0.0473  0.0194  0.2397
32195W        W48669  10.456   2.898   4.746 -0.2180 -0.1196  0.1377
32196W        W48670  16.748  12.165   2.220 -0.4885 -0.1612 -0.1381
32197W        W48671   0.074   7.611  13.922 -0.0557 -0.2640  0.1339
32198W        W48672   5.578  11.292  11.401 -0.0557  0.0341 -0.0864
32199W        W48673   1.166  16.529  11.669  0.0011  0.0594  0.0749
32200W        W48674   5.440   1.843   5.575  0.1297 -0.2087 -0.1967
32201W        W48675  12.396   9.580   4.189  0.1486 -0.2594 -0.0547
32202W        W48676   6.290  17.486   3.803 -0.4158  0.0151 -0.2376
32203W        W48677  17.569  16.437   1.796  0.1210  0.0551 -0.0500
32204W        W48678   8.493  15.531  13.288  0.0946  0.0420  0.0884
32205W        W48679  12.029   2.532  14.416  0.1036  0.0003 -0.0632
32206W        W48680   2.665  12.949   0.901  0.0012  0.4674  0.2157
32207W        W48681   7.850   3.729   2.368 -0.0903  0.0309 -0.3731
32208W        W48682   2.075   3.871  15.418  0.0756 -0.0499  0.2426
32209W        W48683  14.071   1.270   4.724  0.2517  0.0526  0.0945
32210W        W48684   1.191  13.835  13.772 -0.0947  0.2233  0.1565
32211W        W48685   5.104  15.466   4.926 -0.0827  0.0867 -0.1114
32212W        W48686  17.521  11.400  15.449  0.1574 -0.2484  0.2452
32213W        W48687   9.155   4.154  14.369  0.0471  0.1737 -0.0619
32214W        W48688  15.323   4.471   5.524 -0.3116  0.1106 -0.1137
32215W        W48689  10.872  16.542   1.184 -0.0203  0.3451 -0.1853
32216W        W48690  15.774   0.807   4.471 -0.0456  0.1660  0.3715
32217W        W48691  14.179  16.361   1.935  0.1138  0.0351  0.2497
32218W        W48692  15.501   9.701   5.226 -0.0430  0.2660 -0.2272
32219W        W48693   2.911  17.334   0.736 -0.1665  0.2198  0.1091
32220W        W48694   6.573   3.369   2.690 -0.1551 -0.4394  0.2905
32221W        W48695   9.180   7.656   1.110  0.2428 -0.1736 -0.3228
32222W        W48696  16.169  15.413   0.949  0.1911  0.3206 -0.1460
32223W        W48697  14.714   4.037   5.991  0.0335 -0.0660 -0.0268
32224W        W48698  10.080   3.336  13.522  0.0360  0.2161 -0.0423
32225W        W48699   4.341   1.241  12.618 -0.0522  0.0156  0.0402
32226W        W48700   9.592   2.571   5.310 -0.0956  0.1368 -0.3554
32227W        W48701  15.783  15.278  13.466 -0.1765  0.1537  0.4679
32228W        W48702   5.474  12.938   0.076 -0.1246 -0.2485 -0.0276
32229W        W48703   2.546   9.378   1.828  0.0320  0.0794 -0.3174
32230W        W48704   9.489  11.172  14.187  0.0261 -0.0378 -0.1173
32231W        W48705   0.962  14.137  12.584  0.1085  0.0856 -0.0127
32232W        W48706   9.380   0.354  12.596  0.1102  0.2628  0.2972
32233W        W48707   8.796  13.700   2.061 -0.3067  0.1102 -0.0761
32234W        W48708  13.810   2.530  14.159 -0.0827 -0.2480  0.0507
32235W        W48709   0.911  10.039   5.101 -0.0310 -0.2248  0.0522
32236W        W48710   8.161   8.381   4.114  0.0762  0.0807 -0.0018
32237W        W48711   7.611   2.722  14.623  0.2274 -0.0465 -0.1818
32238W        W48712   6.524   3.628  12.475  0.1311 -0.0457  0.1040
32239W        W48713  14.869   6.017  13.651 -0.3325 -0.0171  0.0750
32240W        W48714   6.967  12.152   5.453 -0.2203 -0.1491  0.3017
32241W        W48715   6.727  17.058   0.040 -0.0165  0.0357  0.2358
32242W        W48716   3.348  14.328  11.301 -0.1931 -0.3366 -0.1199
32243W        W48717  12.110  14.602  15.393  0.0337 -0.0984 -0.0350
32244W        W48718   7.034  14.539   0.297  0.0094 -0.1575  0.0488
32245W        W48719  13.911  11.576  16.223  0.1283  0.0718 -0.2864
32246W        W48720  14.485   0.044   2.524 -0.1217  0.0365 -0.0686
32247W        W48721   0.224   2.803   5.321 -0.2315 -0.2305 -0.0687
32248W        W48722   0.679  11.881   5.143  0.0224 -0.0846 -0.5314
32249W        W48723  11.253  16.786  12.349 -0.0193  0.0541  0.0664
32250W        W48724  14.244  12.118   4.678 -0.1206  0.5382 -0.1968
32251W        W48725   5.234   9.443  13.856  0.0137  0.1509 -0.1466
32252W        W48726  12.421   1.576  13.384 -0.1588  0.0751 -0.2919
32253W        W48727   2.121   1.139   3.684  0.1309  0.0845  0.0558
32254W        W48728   7.210   0.896   1.031 -0.3126  0.0882 -0.1371
32255W        W48729   1.569  15.102   2.300  0.0184  0.3024  0.2906
32256W        W48730   0.667   5.630   2.222 -0.2872  0.2241 -0.1081
32257W        W48731   1.395  14.078  16.273  0.0498 -0.0864 -0.2184
32258W        W48732   5.038   6.878   1.493 -0.0348 -0.4976 -0.0132
32259W        W48733  17.911   0.912  16.154  0.2748  0.2624 -0.0230
32260W        W48734   8.637  15.050  13.328  0.0573  0.0588 -0.1700
32261W        W48735   5.553  15.538   2.839  0.0850 -0.2383 -0.0616
32262W        W48736   9.265   6.782   0.197  0.3196  0.0135 -0.2202
32263W        W48737   0.312   1.084   0.247  0.0162 -0.0743 -0.3457
32264W        W48738  15.256  15.075   6.099  0.0026 -0.0583  0.2016
32265W        W48739   8.861  10.980  13.632  0.2451  0.1498  0.1550
32266W        W48740   4.355  10.836  13.584  0.2967 -0.0240  0.0198
32267W        W48741   7.570  13.388  16.080  0.0357  0.2950  0.4913
32268W        W48742  12.560  15.290   1.257 -0.0085  0.2265 -0.1276
32269W        W48743  13.310  10.769   4.018  0.1595  0.0891  0.0074
32270W        W48744   3.119  13.999   0.022 -0.2037  0.1743 -0.0612
32271W        W48745   6.769   8.660  15.378  0.0496  0.0408  0.1192
32272W        W48746   5.923   2.733  13.533 -0.0656 -0.2606 -0.0867
32273W        W48747  13.971   3.377   2.018 -0.1168 -0.2205  0.0222
32274W        W48748   2.343  11.134   0.371  0.0330 -0.1369 -0.0387
32275W        W48749  15.573  15.126  16.248  0.0426 -0.1391  0.2286
32276W        W48750   1.802  10.799  14.688 -0.0936 -0.2744  0.1022
32277W        W48751  12.118   1.583   1.611  0.4758 -0.1485  0.2684
32278W        W48752   7.574  12.773   1.665  0.2615  0.1070 -0.2442
32279W        W48753   6.625   3.831  16.131 -0.1290  0.0330  0.0279
32280W        W48754  13.803   3.947   4.394  0.2038  0.0326  0.1166
32281W        W48755   7.767  10.059   2.750 -0.1019 -0.0067  0.1172
32282W        W48756  15.133  14.117   2.587  0.0198  0.0252 -0.3431
32283W        W48757   7.771   0.774   3.040  0.0910 -0.1939  0.1824
32284W        W48758   1.437   5.301   0.680 -0.0397 -0.0245 -0.3837
32285W        W48759  12.515  12.464  11.844  0.3019  0.1352 -0.0845
32286W        W48760   0.304  15.851   2.895 -0.2277 -0.3601  0.0767
32287W        W48761  10.684   8.842   4.710  0.0480  0.2816 -0.0519
32288W        W48762   4.875   7.925  14.754 -0.1338  0.3310 -0.2682
32289W        W48763  16.391   7.055   4.691 -0.0834  0.1127  0.2540
32290W        W48764   7.377   4.493  16.300 -0.1260 -0.2759 -0.0318
32291W        W48765   9.170  12.210  16.099  0.4876 -0.2288  0.4784
32292W        W48766   7.508  11.371  12.049  0.3108  0.1362 -0.2417
32293W        W48767   3.421  17.976   3.102  0.2325 -0.0624  0.2232
32294W        W48768   9.053   1.801  12.630  0.0396 -0.4397  0.3768
32295W        W48769  15.924   1.209  13.968 -0.0614 -0.1508 -0.1940
32296W        W48770  14.610  12.501   2.548  0.0103  0.1207  0.3408
32297W        W48771   9.986   4.898   1.541  0.3053 -0.0928  0.3857
32298W        W48772  16.885   1.825   2.083  0.2102  0.2481  0.2393
32299W        W48773   9.247  17.557  14.122  0.0565  0.1986  0.0727
32300W        W48774  13.598   7.774   0.408 -0.2915  0.0433  0.1185
32301W        W48775   4.784   2.059   2.369  0.1056  0.1283 -0.1953
32302W        W48776  16.415  16.816   0.421  0.0519 -0.3839  0.0499
32303W        W48777   6.023  17.350  12.389 -0.0730 -0.0289  0.0137
32304W        W48778   4.101  14.180   5.484  0.2378 -0.3449  0.1190
32305W        W48779   9.020   4.653  12.845  0.1265  0.2184 -0.2252
32306W        W48780   3.291  11.635  16.236  0.0948 -0.0618 -0.0197
32307W        W48781   9.498  16.637  16.422  0.4146 -0.2956  0.1451
32308W        W48782   7.593  15.048  12.397  0.0823 -0.2202 -0.0092
32309W        W48783  14.475  14.555   4.093  0.1747  0.0337 -0.1224
32310W        W48784   9.569   8.164   0.702  0.0776  0.0063  0.1393
32311W        W48785   6.703   7.135   3.055 -0.1985  0.0497  0.2009
32312W        W48786  15.848   6.524  16.472 -0.0328  0.0308 -0.0104
32313W        W48787  14.784  11.314  12.999 -0.0804  0.2212 -0.3014
32314W        W48788   7.648   0.044   1.549 -0.0767 -0.2555 -0.1483
32315W        W48789  16.864   7.452  15.537  0.0830 -0.3447 -0.2027
32316W        W48790   1.226  12.090  15.973 -0.0465 -0.1835 -0.1795
32317W        W48791  16.114  10.067   0.163 -0.1994 -0.1414 -0.0194
32318W        W48792   2.624  17.061  15.392 -0.0907 -0.1982  0.2759
32319W        W48793   8.632   1.265  13.334 -0.2043 -0.0705 -0.1600
32320W        W48794  12.802   0.531   0.877 -0.1623  0.1100 -0.2283
32321W        W48795   1.810  15.555  16.662  0.0058 -0.2328  0.2196
32322W        W48796  16.742   4.105   2.529  0.1497  0.1131  0.0456
32323W        W48797   2.259   3.015  11.784 -0.1641 -0.1381  0.0373
32324W        W48798   5.368   5.973  14.016 -0.3778 -0.4352 -0.0296
32325W        W48799  16.899   8.381  16.320 -0.1253 -0.1589  0.0688
32326ION     NA48800   6.591   4.392   1.838 -0.0414  0.0854  0.0305
32327ION     NA48801   8.145  14.881  15.505 -0.1055 -0.0796  0.2255
32328ION     NA48802   8.162   9.072  11.045 -0.1971  0.1556 -0.0483
32329ION     NA48803  16.982   8.406   5.977  0.0340  0.1243  0.1320
32330ION     NA48804  11.607  14.266  10.701  0.0388 -0.4392  0.0056
32331ION     NA48805  11.836   6.459  11.071 -0.1207 -0.1977  0.0028
32332ION     NA48806   1.883  16.009   1.969 -0.0251  0.0876  0.1272
32333ION     NA48807  11.992   7.042   5.094  0.0126 -0.0835  0.1896
32334ION     NA48808   8.009  14.105  12.944 -0.1197 -0.1268  0.0460
32335ION     NA48809   7.758  10.484   2.333 -0.0426  0.0493  0.3943
32336ION     NA48810   5.729   9.081  10.808  0.0125  0.0503  0.1936
32337ION     NA48811  13.007   2.620  16.181 -0.0033  0.1181 -0.2225
32338ION     NA48812  15.112  13.094  10.609  0.1276 -0.1845 -0.0087
32339ION     NA48813  16.633  17.030   4.686  0.0773  0.1509 -0.2315
32340ION     NA48814  15.030   7.369   6.143 -0.0416  0.1004  0.0028
32341ION     NA48815   7.297  10.838  15.843  0.1888  0.0512  0.0121
32342ION     NA48816  16.579   8.323  10.916 -0.0937  0.4409  0.0030
32343ION     NA48817   5.528   4.934  12.531 -0.0569 -0.4400 -0.2426
32344ION     NA48818  10.855   3.762   5.946  0.1510  0.0052 -0.1617
32345ION     NA48819   8.173   5.226  10.894  0.0962 -0.2628 -0.1749
32346ION     NA48820   9.204   8.433   6.363 -0.2625 -0.2740 -0.2266
32347ION     NA48821   4.129  16.529   0.918  0.1457  0.0537  0.0205
32348ION     NA48822   2.764  11.432   9.898  0.1995  0.2694 -0.1405
32349ION     NA48823   0.224   5.420   5.842 -0.0810 -0.2903 -0.0846
32350ION     NA48824   5.538  11.089  14.789  0.2332 -0.1926  0.1672
32351ION     NA48825   9.132   3.192  10.885  0.0535 -0.1068  0.0651
32352ION     NA48826   4.673   5.551  10.976  0.2248 -0.1075  0.2381
32353ION     NA48827   7.199   4.150  16.788  0.2906 -0.0789  0.2127
32354ION     NA48828  17.811  11.265  10.157 -0.1089  0.1834  0.2637
32355ION     NA48829   2.436  10.701   5.675  0.0264  0.0872  0.0658
32356ION     NA48830  12.731  15.779  10.793 -0.0619  0.0133 -0.0503
32357ION     NA48831  17.835   7.239  10.667 -0.1928  0.0661 -0.2433
32358ION     NA48832   8.919   3.033   0.110 -0.2392  0.4498 -0.2538
32359ION     NA48833   6.146   6.597  11.084  0.1480  0.1312  0.2024
32360ION     NA48834  17.939   0.329   6.256 -0.2604 -0.1457  0.0958
32361ION     NA48835  17.645   2.797  10.742 -0.1497  0.0698 -0.1214
32362ION     NA48836   5.388  17.528  12.019  0.0345 -0.3734 -0.3276
32363ION     NA48837  11.700  10.426  10.840 -0.1891  0.1798 -0.0015
32364ION     NA48838  10.521  12.774   5.918 -0.2769 -0.0373  0.0599
32365ION     NA48839  13.397   7.621  10.875  0.2372  0.0268  0.0669
32366ION     NA48840  16.303  10.582   0.045  0.0086 -0.0690  0.1491
32367ION     NA48841  15.476   0.884  11.000  0.2543  0.2474 -0.0984
32368ION     NA48842   0.223   6.494  10.980 -0.1242 -0.1878 -0.0765
32369ION     NA48843  10.705   9.683  11.081 -0.0934  0.0496 -0.1749
32370ION     NA48844   0.127   0.381  10.943 -0.2895 -0.0341 -0.0996
32371ION     NA48845  16.516   1.063   6.404  0.1307 -0.2132  0.0452
32372ION     NA48846  11.867  11.571   6.186  0.0139 -0.3909  0.1302
32373ION     NA48847  17.671  10.693  10.469 -0.0908  0.3673 -0.2359
32374ION     NA48848   9.457  17.902  10.533  0.0124  0.0976  0.0478
32375ION     NA48849  10.242  16.279  15.140 -0.4364 -0.3748  0.0677
32376ION     NA48850   6.008  11.334  10.453 -0.0802 -0.2300 -0.2221
32377ION     NA48851  13.493   0.717   6.349 -0.0672  0.1771  0.1324
32378ION     NA48852   3.229   9.013  12.331 -0.0475  0.2540 -0.1052
32379ION     NA48853   2.557   7.641   5.530 -0.0371  0.4397  0.0548
32380ION     NA48854  15.642   7.833  12.765  0.0153  0.3668 -0.0247
32381ION     NA48855   2.422  13.880  10.930  0.0253 -0.0723  0.0924
32382ION     NA48856   6.700   9.149  10.676  0.0418  0.1813  0.0994
32383ION     NA48857   8.112  14.899  10.456 -0.0570  0.4162 -0.0703
32384ION     NA48858   6.590   9.993  10.972  0.3410  0.2077  0.0236
32385ION     NA48859  13.679  15.941  10.944 -0.3206 -0.0436 -0.0740
32386ION     NA48860   9.551   4.206  13.939  0.3014  0.0073  0.0859
32387ION     NA48861  10.640  14.806   1.218  0.1208 -0.0082 -0.0267
32388ION     NA48862   3.166   6.495  10.801 -0.1774 -0.1797 -0.3257
32389ION     NA48863  11.957   7.809  11.985  0.0604 -0.0254 -0.4901
32390ION     NA48864  10.914  14.323  12.928  0.1440  0.0721 -0.1259
32391ION     NA48865   4.046  10.570  10.309 -0.1728  0.0030 -0.0757
32392ION     NA48866   0.090   3.289   6.247  0.3599  0.0781 -0.2023
32393ION     NA48867   9.719  10.733  13.823  0.1779  0.0026  0.0483
32394ION     NA48868   6.741   5.448  11.071  0.0339 -0.0469  0.0717
32395ION     NA48869   9.150  16.960  10.477 -0.1279  0.1674  0.1377
32396ION     NA48870   7.742  12.565  10.668  0.2022  0.2027 -0.0297
32397ION     NA48871   3.224  10.848  10.296  0.0933  0.1065  0.2229
32398ION     NA48872  11.791   4.766   4.656  0.0019 -0.1542 -0.3515
32399ION     NA48873  12.183  15.026  10.862 -0.1696  0.1394  0.0278
32400ION     NA48874   7.154   6.361  11.248  0.1808  0.2959 -0.2266
32401ION     NA48875  15.396   1.989  10.830 -0.4248  0.2258  0.1962
32402ION     NA48876  15.906   7.676   2.212 -0.2184 -0.1588  0.3924
32403ION     NA48877  10.157   8.948  15.333  0.2502  0.0692 -0.0280
32404ION     NA48878  13.324   3.578  11.197 -0.0636  0.0516  0.2530
32405ION     NA48879   3.489  13.808   5.768 -0.0691  0.0484  0.3072
32406ION     NA48880  11.732   3.776  11.015  0.2835  0.2785  0.1417
32407ION     NA48881   0.840   7.032   0.304 -0.0002  0.2110 -0.0950
32408ION     NA48882   8.718  11.649   4.480  0.1103  0.0895  0.2166
32409ION     NA48883   0.227  14.986  12.117 -0.2173 -0.1232  0.0791
32410ION     NA48884   2.246   4.603   6.029 -0.1093 -0.2963 -0.2397
32411ION     NA48885  13.448   3.153   5.915  0.0614 -0.1435  0.0829
32412ION     NA48886  12.264   3.762   4.365  0.0882 -0.1707 -0.5223
32413ION     NA48887   7.757  10.900  16.030  0.1832 -0.0010  0.0976
32414ION     NA48888   8.862  10.774  13.168  0.2443  0.0192 -0.0190
32415ION     NA48889  12.580  14.187  11.055 -0.1482  0.1515 -0.1841
32416ION     NA48890   5.940   4.035  10.830 -0.2573 -0.0254  0.0468
32417ION     NA48891  17.508  17.710  10.972  0.0772  0.2411 -0.1478
32418ION     NA48892  13.220   5.680  10.930  0.2791  0.0953 -0.1841
32419ION     NA48893   5.134  17.503  10.657  0.1074 -0.1607  0.0241
32420ION     NA48894   4.286   4.579   0.312  0.1109  0.1826 -0.0471
32421ION     NA48895   3.001   6.941   3.390  0.1726  0.2094 -0.0493
32422ION     NA48896  15.329  15.562  10.575  0.0654  0.2208 -0.2291
32423ION     NA48897  12.407   4.902  16.551 -0.2444  0.0429 -0.3904
32424ION     NA48898  16.802  17.343  10.961 -0.0655 -0.1459  0.3386
32425ION     NA48899   2.156   6.895   5.640  0.4304 -0.0610 -0.0673
32426ION     NA48900   3.118  10.489  10.643 -0.2030 -0.1782  0.1112
32427ION     NA48901  16.194   9.519  10.774  0.0810  0.0887  0.1405
32428ION     NA48902   8.706   9.392   1.158 -0.0151 -0.1518 -0.3758
32429ION     NA48903   3.617   5.200  15.831 -0.2649 -0.1457 -0.1664
32430ION     NA48904   2.643   0.165  10.860  0.1587 -0.4090  0.1423
32431ION     NA48905   9.866   0.364  16.362  0.0056 -0.0695  0.1532
32432ION     NA48906  16.099   4.198  10.933  0.0245  0.2547 -0.0607
32433ION     NA48907  15.049  17.584   4.348  0.0447  0.5307  0.1088
32434ION     NA48908   9.237   2.667  13.187  0.3404 -0.0896  0.0457
32435ION     NA48909  16.051   2.576  10.873 -0.0195  0.0899  0.2037
32436ION     NA48910  13.893   3.762  13.647 -0.0324 -0.2473  0.0622
32437ION     NA48911   6.187  13.225  11.262 -0.0111  0.0976  0.1375
32438ION     NA48912   3.306   2.864  10.572 -0.3210  0.1122 -0.0986
32439ION     NA48913  12.532   5.747   1.266 -0.0065 -0.0738  0.1859
32440ION     NA48914   9.890   2.219   4.587  0.3898 -0.2029  0.0316
32441ION     NA48915   9.524  15.163  10.612 -0.2025 -0.3046 -0.1520
32442ION     NA48916  14.694   6.612  10.757 -0.1809  0.0094  0.0991
32443ION     NA48917   0.175   4.281  16.488 -0.3285 -0.2109  0.0266
32444ION     NA48918   9.838   7.941  12.945 -0.2328  0.4723 -0.4601
32445ION     NA48919  13.116  16.201   6.425 -0.2381  0.1763  0.0353
32446ION     NA48920   3.229   0.639  15.279 -0.1699 -0.0877 -0.1532
32447ION     NA48921  16.173  16.196  10.813  0.0511  0.0436 -0.2699
32448ION     NA48922  16.353  16.994  14.832  0.0649  0.2069 -0.2163
32449ION     NA48923  17.376  17.751  13.802  0.2218 -0.0629 -0.0855
32450ION     NA48924   8.409   1.656  10.230 -0.1914 -0.3907 -0.0421
32451ION     NA48925   5.023  12.828  10.252  0.1377 -0.1788 -0.0560
32452ION     NA48926   8.436  16.367   4.618  0.1530 -0.5425  0.0309
32453ION     NA48927   8.300   8.957   6.376  0.3416  0.0321  0.0871
32454ION     NA48928  12.950   5.317   2.374  0.1438  0.0668  0.1948
32455ION     NA48929   5.180  16.464  10.530  0.4033  0.0137  0.0530
32456ION     NA48930  17.667   5.847  10.886  0.0305  0.2165  0.0618
32457ION     NA48931   1.371   2.880  10.863  0.2193  0.0499  0.1274
32458ION     NA48932   7.367   0.272  10.926  0.0438 -0.2698  0.1867
32459ION     NA48933  15.798   5.060  10.777 -0.0929  0.2205 -0.0790
32460ION     NA48934   1.897   6.027   2.196 -0.0778 -0.0325  0.0933
32461ION     NA48935  16.467  13.061  10.550  0.0194 -0.2158  0.2086
32462ION     NA48936   2.596   3.212   6.098 -0.0380 -0.0878  0.0108
32463ION     NA48937  16.595   7.909  13.843  0.0157  0.0768  0.1758
32464ION     NA48938   4.278  14.987  10.612 -0.1998 -0.0245 -0.3326
32465ION     NA48939   0.495   7.581  10.920  0.0275  0.2632  0.0029
32466ION     NA48940   8.874   5.966   6.337 -0.0155  0.1016 -0.3565
32467ION     NA48941   3.029  13.906   4.145  0.2015 -0.3065 -0.4390
32468ION     NA48942  16.320  11.318   5.134 -0.0806  0.3438  0.5114
32469ION     NA48943   5.953  10.531  10.911 -0.1456 -0.1134  0.0889
32470ION     NA48944   0.006   1.873  10.998  0.1327 -0.4606  0.5420
32471ION     NA48945  10.934   6.701  12.857  0.0613  0.1480  0.0568
32472ION     NA48946   8.683  12.594  10.271  0.0309 -0.0600 -0.1227
32473ION     NA48947  15.899   7.664   6.214 -0.1175  0.1404  0.0479
32474ION     NA48948  16.930  11.805   4.736 -0.1865 -0.3858 -0.1697
32475ION     NA48949  10.595   8.127  10.951  0.1603 -0.1613  0.1898
32476ION     NA48950  14.978   1.479   2.444 -0.0779 -0.2212 -0.1503
32477ION     NA48951   3.438  16.193   6.145  0.1697 -0.1651  0.1133
32478ION     NA48952   0.086  12.347  14.666 -0.1476  0.3637  0.2036
32479ION     NA48953   0.581   4.400  10.803 -0.0072 -0.1658  0.0220
32480ION     NA48954   4.435   4.253  11.077  0.0776 -0.0633 -0.0917
32481ION     NA48955  17.617   8.028  10.615  0.2391  0.3299 -0.0904
32482ION     NA48956   3.597  17.704  16.436  0.3063  0.3837  0.0723
32483ION     NA48957  13.527   6.355   5.858  0.2025  0.1111 -0.1963
32484ION     NA48958  10.462  12.520  10.466 -0.1214 -0.0429  0.2011
32485ION     NA48959  11.901   0.007  10.807 -0.0827  0.0946  0.0631
32486ION     NA48960  14.849   7.428  10.728 -0.0362 -0.1746 -0.0005
32487ION     NA48961   5.861  13.112  10.271 -0.0619 -0.0798  0.1731
32488ION     NA48962   0.978  11.474  10.305 -0.2272 -0.1310 -0.0945
32489ION     NA48963   9.469   1.257   5.364  0.1670  0.2133  0.1023
32490ION     NA48964  13.802  14.851  10.711 -0.0730 -0.2795  0.0375
32491ION     NA48965  12.109  17.678  15.041  0.2971  0.0884  0.1065
32492ION     NA48966   8.228   9.588  14.199 -0.1803 -0.0611 -0.0204
32493ION     NA48967  12.204  13.390   4.385  0.0909 -0.0426  0.1321
32494ION     NA48968   7.577   3.670  10.783  0.1501 -0.1063  0.1176
32495ION     NA48969   0.630   5.392  11.169  0.1293  0.1307  0.0847
32496ION     NA48970  16.735   2.282  11.173  0.0654  0.0773  0.0403
32497ION     NA48971  12.314  15.111   2.796 -0.0182  0.1190 -0.0564
32498ION     NA48972   8.495  11.144  10.528  0.3083  0.3968 -0.0827
32499ION     NA48973   3.222   6.392   5.089 -0.2394  0.0329 -0.1947
32500ION     NA48974  14.814   5.249  10.975  0.1277  0.3619  0.1372
32501ION     NA48975   3.474   9.925  10.372  0.2591  0.1368 -0.0427
32502ION     NA48976  15.538  15.370   0.459  0.2134  0.1573 -0.0725
32503ION     NA48977   9.325  14.865  12.008  0.1061 -0.1157  0.2357
32504ION     NA48978  14.646  14.485  10.962  0.0083  0.1267 -0.0224
32505ION     NA48979  10.111   3.031   2.720 -0.3477 -0.2093  0.3057
32506ION     NA48980   9.718  16.152   6.189 -0.1639  0.0334 -0.0054
32507ION     NA48981  11.813   7.318  11.048 -0.3379 -0.0619  0.0652
32508ION     NA48982  10.958  14.490   2.547  0.0504 -0.1642  0.2378
32509ION     NA48983   6.781  15.162   5.962  0.0824 -0.0680 -0.0305
32510ION     NA48984  15.556  14.521  11.136 -0.0131  0.0950 -0.1572
32511ION     NA48985   8.946  10.484  10.939  0.0516  0.1042 -0.3726
32512ION     NA48986  16.429   1.791   5.358  0.1092 -0.0904  0.1931
32513ION     NA48987   8.337   4.106  11.451  0.1312  0.2596  0.0088
32514ION     NA48988  12.331   5.695   6.324 -0.1752  0.0744 -0.0435
32515ION     NA48989  17.165   9.948  10.596  0.2723 -0.0598  0.3856
32516ION     NA48990   8.898  15.971  10.687 -0.0495  0.3952  0.0843
32517ION     NA48991   1.152  12.986   9.900  0.0979 -0.2559  0.0507
32518ION     NA48992   5.612   3.231  10.705  0.2480  0.0511  0.0089
32519ION     NA48993  15.494  11.863   6.026 -0.1613 -0.2554 -0.2425
32520ION     NA48994   4.542  11.375  10.316 -0.1041  0.1461  0.0144
32521ION     NA48995   4.390   3.684   5.536 -0.2068 -0.0871 -0.0595
32522ION     NA48996   1.665  14.271   0.916  0.2349  0.0378  0.3754
32523ION     NA48997  11.405  12.816  10.737 -0.0624 -0.1118 -0.0867
32524ION     NA48998   6.374   3.221  10.470 -0.1225 -0.1029  0.0112
32525ION     NA48999   5.488  16.099   2.739 -0.2435 -0.0252 -0.1594
32526ION     NA49000   9.052   7.321  14.918  0.2350 -0.2275 -0.0384
32527ION     NA49001   9.720  13.942   2.611  0.0579  0.3058 -0.1270
32528ION     NA49002   5.134   1.282  10.708  0.0014 -0.1540  0.1268
32529ION     NA49003  10.436   5.604  10.910 -0.1366  0.1027  0.4787
32530ION     NA49004  11.350   8.119   0.398  0.2669  0.4656 -0.0785
32531ION     NA49005  11.081   0.018   6.262 -0.1748  0.2299 -0.1234
32532ION     NA49006   8.009   7.638  12.118  0.1098  0.0535 -0.0397
32533ION     NA49007  14.545  17.036  11.364  0.0594  0.2553  0.3088
32534ION     NA49008   1.219  10.781   4.421 -0.0834 -0.5816  0.1513
32535ION     NA49009  11.009  13.780  10.793  0.0218  0.1090  0.1342
32536ION     NA49010  14.334   1.959   5.998 -0.0590  0.2446 -0.0861
32537ION     NA49011   2.137   8.434  10.650  0.1733 -0.0220 -0.2756
32538ION     NA49012   9.181   6.811   4.402  0.0989  0.1957 -0.2957
32539ION     NA49013   7.429  17.798   1.968  0.0887 -0.1192 -0.1123
32540ION     NA49014   6.535   4.952  16.735 -0.0155 -0.3016 -0.0047
32541ION     NA49015   9.390   4.183   1.445 -0.2385 -0.2378 -0.2013
32542ION     NA49016  15.070  10.248  10.734 -0.0058  0.0063 -0.0059
32543ION     NA49017   4.365   2.657  10.875 -0.2412 -0.0780 -0.0552
32544ION     NA49018   3.098   6.329  13.480 -0.1435  0.0731  0.0182
32545ION     NA49019   8.231  13.366  10.443 -0.0347  0.0272  0.4062
32546ION     NA49020   5.092   2.051   5.934  0.2762  0.0754  0.2940
32547ION     NA49021  11.149   5.986  11.000  0.0834 -0.0157  0.0442
32548ION     NA49022   2.228  10.747  10.187 -0.1097  0.3599 -0.2325
32549ION     NA49023  17.361  16.492   3.991  0.0460  0.1171 -0.0403
32550ION     NA49024   7.796  17.189  10.676  0.2216 -0.0181 -0.3707
32551ION     NA49025  11.678  17.170  10.743 -0.1942  0.0503 -0.0545
32552ION     NA49026   0.041  13.834  10.473  0.1973 -0.1832 -0.0577
32553ION     NA49027  17.788  10.412   5.923 -0.1459  0.1847  0.0520
32554ION     NA49028   0.934   5.958   1.868 -0.0242  0.2309 -0.1498
32555ION     NA49029   6.711  10.968  10.675  0.0132  0.0404  0.0836
32556ION     NA49030  16.998  14.955  10.431  0.3128  0.1170  0.1245
32557ION     NA49031  17.052  15.547  15.193  0.0818  0.0922  0.1541
32558ION     NA49032   1.807  13.268   0.438  0.0258  0.0756 -0.3051
32559ION     NA49033   1.313   5.567  10.732  0.0065 -0.0602  0.1826
32560ION     NA49034  12.237  16.802   6.316 -0.0431  0.1157 -0.0511
32561ION     NA49035  12.110   0.865  10.571 -0.1728 -0.0790  0.2557
32562ION     NA49036   3.907   0.921  12.274 -0.0079  0.3564 -0.1455
32563ION     NA49037   1.608   2.103   1.080  0.0545 -0.0933 -0.3651
32564ION     NA49038   2.293   7.949  10.653 -0.1043  0.0130 -0.1361
32565ION     NA49039   4.668   7.925  11.839  0.0689 -0.0410 -0.1382
32566ION     NA49040  16.407   6.574  10.842 -0.1837  0.1673  0.1474
32567ION     NA49041   0.613  16.804  10.838  0.1800  0.0311  0.0529
32568ION     NA49042  16.273  11.660  14.218 -0.0709  0.3243 -0.1707
32569ION     NA49043   7.161   9.943   0.952  0.0139 -0.0614 -0.1285
32570ION     NA49044   2.400   1.762   0.476  0.0350  0.0833  0.2000
32571ION     NA49045   5.516   9.754  10.485 -0.0237 -0.0139  0.0808
32572ION     NA49046  14.858   4.537   0.216  0.1704  0.2623 -0.2550
32573ION     NA49047   3.644  11.559  10.187  0.0117  0.4168 -0.0520
32574ION     NA49048  16.363   0.508   0.846 -0.0385 -0.0679  0.1861
32575ION     NA49049   9.146   5.127  10.834  0.1355 -0.2205 -0.0198
32576ION     NA49050  12.892  10.879   5.843 -0.1676 -0.0265 -0.0717
32577ION     NA49051  15.715   6.905   6.177 -0.0567  0.0929  0.1807
32578ION     NA49052   8.095  16.827  16.600  0.1624  0.0505  0.0692
32579ION     NA49053  17.217  13.561  10.500 -0.0288 -0.0961  0.1682
32580ION     NA49054  13.090  11.392  10.718  0.0065  0.4105 -0.3002
32581ION     NA49055   9.557   5.991  10.768 -0.0176  0.1108 -0.1685
32582ION     NA49056   2.492   4.026  10.701 -0.2228  0.1558 -0.0185
32583ION     NA49057   1.288  16.637   2.897  0.0675 -0.0335  0.0200
32584ION     NA49058  12.349  17.660   6.159  0.0758 -0.1228 -0.2455
32585ION     NA49059   7.069  16.182  10.626  0.2664  0.0715 -0.2033
32586ION     NA49060   2.994   4.830  10.697  0.1592 -0.0985 -0.0684
32587ION     NA49061  14.513   0.877  13.913  0.0123  0.0523 -0.0708
32588ION     NA49062   7.482  11.239  10.664 -0.0871  0.1962 -0.0408
32589ION     NA49063   4.192  16.470  10.807 -0.0840 -0.0437 -0.0353
32590ION     NA49064   8.310  17.081  10.517 -0.0465 -0.0558 -0.0160
32591ION     NA49065  10.845   7.170  15.166  0.0526 -0.1325 -0.0704
32592ION     NA49066   4.286   0.887  10.662 -0.1672  0.0762 -0.0958
32593ION     NA49067  12.099   4.604  12.118 -0.1781 -0.4256 -0.1219
32594ION     NA49068  16.259  13.274   6.085 -0.1685  0.2049  0.0917
32595ION     NA49069   9.268   1.185   2.898  0.3971 -0.2125  0.4043
32596ION     NA49070   0.864   7.352  10.655  0.1664 -0.3290  0.4524
32597ION     NA49071   3.266   7.968   2.362  0.0413  0.2545 -0.5955
32598ION     NA49072   6.694  12.502  10.683 -0.2960  0.2046 -0.2008
32599ION     NA49073   8.850   0.405  10.170  0.1736  0.0925 -0.0559
32600ION     NA49074   5.580   7.125  10.887  0.0433 -0.0155 -0.1011
32601ION     NA49075  17.006   4.567   6.195  0.4976 -0.2544 -0.2385
32602ION     NA49076  12.059  14.303   3.846 -0.0219  0.1727 -0.0506
32603ION     NA49077   8.651  17.562  10.388  0.1833 -0.2439 -0.1118
32604ION     NA49078  10.187   8.754  11.000 -0.1083 -0.0651  0.2773
32605ION     NA49079   1.780  14.679  10.599  0.2151 -0.1683  0.3200
32606ION     NA49080   8.429   4.495  10.587 -0.0870  0.2148  0.1683
32607ION     NA49081   3.792   9.157  15.324  0.3192  0.0056 -0.0408
32608ION     NA49082  11.613   1.101  10.691  0.1503  0.0431  0.1138
32609ION     NA49083   4.793  11.681  14.917 -0.2085  0.0802  0.0021
32610ION     NA49084  10.004   1.948  10.621  0.1268  0.0703  0.1730
32611ION     NA49085   3.053   1.002  10.617  0.2170  0.1377 -0.1537
32612ION     NA49086   7.250   2.866  10.533  0.2340  0.1226 -0.0252
32613ION     NA49087  13.043   5.084   5.045 -0.2185  0.3719  0.1443
32614ION     NA49088   8.245  15.498   1.385 -0.3892  0.2895 -0.0062
32615ION     NA49089  17.928  13.749   5.887  0.0074 -0.2275 -0.2966
32616ION     NA49090  13.909  14.354  10.811  0.2428 -0.0191 -0.1422
32617ION     NA49091  12.681  14.858   2.532 -0.3111  0.0720  0.3851
32618ION     NA49092   5.392   8.941  15.824 -0.2955 -0.0954 -0.3370
32619ION     NA49093  10.088  17.269  10.410  0.0731  0.1050 -0.1100
32620ION     NA49094   7.129   2.998  16.165  0.1934 -0.2127  0.1075
32621ION     NA49095  13.329   4.425  11.132  0.1297  0.1256  0.2060
32622ION     NA49096   4.939   2.597  10.817  0.1332  0.1670  0.2288
32623ION     NA49097   4.123  14.966  16.164 -0.1294 -0.1247 -0.0826
32624ION     NA49098   0.294  17.609  11.048  0.2693 -0.2414 -0.1739
32625ION     NA49099   0.033   7.289  11.512 -0.2054  0.0316 -0.1105
32626ION     NA49100   7.756   7.695  11.158  0.3925 -0.0808  0.2373
32627ION     NA49101   3.574  17.706  10.828 -0.0762 -0.0664  0.1481
32628ION     NA49102   3.281  15.881  16.393 -0.2379 -0.2919  0.1187
32629ION     NA49103   9.586   7.127  11.785 -0.0991 -0.2609  0.4292
32630ION     NA49104   3.936   0.354   5.908  0.0118 -0.1022  0.0632
32631ION     NA49105   6.399  15.505  10.362  0.1658  0.2342 -0.0150
32632ION     NA49106  10.886   0.646  10.557  0.1206 -0.2000 -0.2044
32633ION     NA49107   7.506  17.955  10.476  0.1214  0.0532 -0.2286
32634ION     NA49108   6.329   7.529  10.908 -0.0280  0.1074 -0.1563
32635ION     NA49109  15.083   0.247  11.263 -0.2185  0.0564  0.1775
32636ION     NA49110  12.472   4.918  11.058 -0.4083 -0.0123  0.0635
32637ION     NA49111   5.742   3.844   6.193  0.0091  0.0155 -0.1606
32638ION     NA49112  14.729  10.984   0.957  0.0110  0.1022 -0.3826
32639ION     NA49113   2.945  13.105   0.426 -0.1918 -0.1403  0.1166
32640ION     NA49114  17.925  17.042  16.191  0.1188 -0.1357  0.1659
32641ION     NA49115  14.743   3.594   5.812  0.0149 -0.0844  0.3200
32642ION     NA49116  11.090   1.667  10.623 -0.0097 -0.1462 -0.2537
32643ION     NA49117  14.897   3.245  10.871  0.1803  0.1896  0.0467
32644ION     NA49118   1.255   3.383  12.010  0.0220  0.1275  0.1439
32645ION     NA49119   9.120   6.633  11.062 -0.2259 -0.2258 -0.0970
32646ION     NA49120  15.080   4.271  10.880 -0.0354  0.3028 -0.2297
32647ION     NA49121   7.526   8.427   6.285 -0.1942  0.0068 -0.0410
32648ION     NA49122   8.998   6.481   6.194  0.2854  0.2754 -0.3472
32649ION     NA49123   0.819  12.425   4.475 -0.2346 -0.1932  0.1367
32650ION     NA49124  12.471  15.510   6.123 -0.2413  0.2247  0.1086
32651ION     NA49125  10.200  16.852  13.108  0.1967  0.0044 -0.1033
32652ION     NA49126   0.516   9.118  10.647  0.0419  0.2083  0.0487
32653ION     NA49127  10.333   1.190  10.530 -0.0217  0.0854  0.0483
32654ION     NA49128   3.756  14.216  10.559 -0.0959  0.1705  0.0905
32655ION     NA49129   5.635  10.066  10.924  0.1146  0.1370 -0.0829
32656ION     NA49130  10.468   9.044   1.895  0.0976 -0.1142 -0.0580
32657ION     NA49131  13.071   3.105  11.084  0.1452 -0.3117 -0.1544
32658ION     NA49132   5.824   2.750   0.908  0.1891 -0.2027 -0.3635
32659ION     NA49133   8.342   6.979  11.141  0.1216  0.1849 -0.4133
32660ION     NA49134   4.881  10.054   3.046 -0.3459  0.4033 -0.2548
32661ION     NA49135  14.282   7.875  11.758  0.1249  0.4855 -0.0887
32662ION     NA49136   3.137   0.270   5.747  0.0328 -0.2158  0.0376
32663ION     NA49137   1.736  17.154  16.347  0.0704  0.2201  0.1851
32664ION     NA49138   9.820  15.733  10.687  0.0721 -0.0103  0.3282
32665ION     NA49139  16.943   0.362  10.953 -0.0036  0.1650 -0.3385
32666ION     NA49140   4.229   8.461  10.671  0.3761  0.3313 -0.0462
32667ION     NA49141  14.156   7.954  10.681 -0.0393 -0.2299 -0.0188
32668ION     NA49142  10.613   3.648  15.684  0.2947 -0.1487  0.4915
32669ION     NA49143   3.968  12.241  10.077 -0.0304 -0.3295 -0.4652
32670ION     NA49144   5.190  13.859  10.203 -0.1834 -0.2214 -0.1896
32671ION     NA49145  10.003  10.029  10.697  0.1673  0.0895  0.0399
32672ION     NA49146   5.159  12.014   5.345 -0.0596  0.0262  0.0184
32673ION     NA49147   0.635   3.192  12.166 -0.0712  0.2053  0.3072
32674ION     NA49148   4.685   6.878  10.639  0.2943 -0.0982  0.1356
32675ION     NA49149   7.410  17.276   5.891 -0.0427  0.0175  0.2713
32676ION     NA49150   8.514  15.560   2.732  0.2396  0.1516  0.0336
32677ION     NA49151   2.586  12.040  16.713 -0.5125  0.0549 -0.0040
32678ION     NA49152   1.968  15.597  10.841  0.3018 -0.1427  0.1398
32679ION     NA49153  15.299  16.724   4.683 -0.1099  0.3466  0.0517
32680ION     NA49154   1.447  17.825  15.178  0.0285  0.1853  0.0084
32681ION     NA49155  14.316   4.275   2.097  0.1255 -0.2977  0.0082
32682ION     NA49156   3.601   5.506  10.871  0.2565  0.3034 -0.4598
32683ION     NA49157  17.758   8.455   5.635  0.0988 -0.1005  0.0162
32684ION     NA49158  11.565   2.411  11.442 -0.1679  0.3588 -0.0559
32685ION     NA49159   9.349  10.826   6.155 -0.0963 -0.0825 -0.2391
32686ION     NA49160   8.234   0.887   3.104 -0.2087  0.1004  0.2284
32687ION     NA49161   9.763  14.280   1.674  0.2491 -0.2134  0.5340
32688ION     NA49162   4.206   4.696  10.913  0.5059  0.0295 -0.2496
32689ION     NA49163   8.539  17.798   6.033  0.0693  0.2618  0.0219
32690ION     NA49164  12.309   5.982  10.927 -0.0122 -0.2299  0.0303
32691ION     NA49165  12.583  11.584   1.280 -0.3640 -0.0153  0.1937
32692ION     NA49166  10.738   2.944  11.469  0.1096 -0.2015  0.3114
32693ION     NA49167   4.810   9.234   5.439 -0.2377 -0.2762  0.0580
32694ION     NA49168   1.262  15.304  10.737 -0.0738 -0.0537 -0.0756
32695ION     NA49169   9.034   0.541   5.897  0.2221  0.2822  0.0557
32696ION     NA49170  12.986  16.531  10.879  0.0305 -0.0653  0.0015
32697ION     NA49171   1.754  16.052   0.015  0.2788 -0.1651 -0.1037
32698ION     NA49172   9.992   7.767   0.811 -0.1063  0.4698  0.2470
32699ION     NA49173  16.776  12.717  10.302 -0.0541  0.0443 -0.5520
32700ION     NA49174   0.708  12.303   9.971 -0.0896  0.0993  0.3214
32701ION     NA49175   9.056   8.211  11.194  0.0457 -0.1046 -0.1250
32702ION     NA49176  11.991   7.147   6.238 -0.1578  0.2143  0.2874
32703ION     NA49177   1.475   5.026   5.835  0.0939  0.3836  0.2286
32704ION     NA49178  14.376  15.494  16.452 -0.1461 -0.1316 -0.2987
32705ION     NA49179   8.356   6.393  13.997  0.0549 -0.1115  0.4441
32706ION     NA49180   1.342   8.078  10.629 -0.0429 -0.3887 -0.1282
32707ION     NA49181  11.086  14.393  16.211  0.1410 -0.0260  0.0864
32708ION     NA49182   9.719  13.338  10.599  0.1112 -0.0566  0.0326
32709ION     NA49183   2.961   3.675  10.780  0.0137 -0.0321 -0.1645
32710ION     NA49184  15.381  14.679  10.690 -0.1003 -0.0246  0.1846
32711ION     NA49185  17.998   5.810  12.694  0.0171  0.1614  0.1059
32712ION     NA49186  10.617  16.722   6.173 -0.0875  0.1330  0.0011
32713ION     NA49187   5.890   0.794  10.485  0.0407 -0.0461  0.0984
32714ION     NA49188  10.451  15.699   5.302  0.2899  0.0337 -0.1114
32715ION     NA49189   7.013   8.229  10.833 -0.0242  0.0555  0.2138
32716ION     NA49190  17.748  16.903  11.017 -0.0244  0.2012 -0.0435
32717ION     NA49191   8.757  13.025  11.241  0.0290 -0.2005  0.3388
32718ION     NA49192   8.659  14.647  14.518  0.1049  0.4605 -0.0321
32719ION     NA49193   8.206   8.401  11.228  0.1031 -0.1546 -0.1346
32720ION     NA49194  10.333   6.461  11.111 -0.0712 -0.2898 -0.0648
32721ION     NA49195  13.831  10.715   4.059 -0.0293 -0.0539 -0.0243
32722ION     NA49196   6.161   8.474  10.756 -0.0062  0.2787  0.0447
32723ION     NA49197   0.727   6.232  10.785 -0.0794 -0.1888 -0.1940
32724ION     NA49198   5.649  13.392   1.736  0.1116  0.2671 -0.0024
32725ION     NA49199  12.768   0.293  10.936  0.0055 -0.0106  0.0376
32726ION     NA49200   5.902  14.472   0.896  0.1199  0.2770 -0.0038
32727ION     NA49201   0.280   3.401  12.967  0.0433 -0.0133  0.0272
32728ION     NA49202  10.561  17.107  11.053 -0.0219  0.2806  0.0112
32729ION     NA49203  11.110  16.443   4.620  0.3708 -0.0591  0.0554
32730ION     NA49204   5.331  10.879  10.537 -0.2965 -0.1181 -0.1842
32731ION     NA49205   6.981  14.896  10.448  0.1266 -0.1733 -0.2433
32732ION     NA49206  10.771   9.539   6.007 -0.2078 -0.0766  0.1004
32733ION     NA49207  16.988  15.298  11.312 -0.3126 -0.0627  0.1873
32734ION     NA49208   1.985   0.869  10.667 -0.0739 -0.1229 -0.3053
32735ION     NA49209   3.042  17.173  15.663  0.3160 -0.2786 -0.0768
32736ION     NA49210   8.317  16.335  10.452 -0.3024 -0.2058 -0.0502
32737ION     NA49211  10.991   6.822  11.070 -0.0611 -0.1556 -0.0862
32738ION     NA49212  17.306   6.164   0.459 -0.3700  0.4506  0.0515
32739ION     NA49213   3.783  11.024   5.674  0.1065  0.1016  0.0502
32740ION     NA49214   6.281   9.182   1.012  0.1342 -0.2465  0.1977
32741ION     NA49215   9.060   2.599   5.880 -0.0849  0.0500 -0.0728
32742ION     NA49216  14.025   5.558  10.900  0.0441  0.0157 -0.0350
32743ION     NA49217   9.138   4.078  10.658 -0.2860  0.1118  0.0263
32744ION     NA49218  14.404   4.681  10.886  0.2759 -0.2705 -0.2157
32745ION     NA49219  17.942  11.586   5.743  0.3057 -0.0181 -0.1377
32746ION     NA49220  11.544  10.686   6.304  0.0479  0.3865 -0.1688
32747ION     NA49221   5.124   2.607  16.588 -0.0090  0.1963 -0.1947
32748ION     NA49222  17.529  10.595  11.487 -0.0258 -0.1503  0.1113
32749ION     NA49223   9.807   4.760  10.872  0.0341 -0.0679 -0.1433
32750ION     NA49224  12.674   8.722  10.668 -0.0971 -0.0249 -0.1658
32751ION     NA49225  12.933   9.531  10.673 -0.0297  0.0416  0.0511
32752ION     NA49226  11.486   7.919   1.947  0.1044  0.1040  0.2375
32753ION     NA49227   8.471   6.057  10.980  0.1281  0.0080  0.1390
32754ION     NA49228   0.251  10.058   0.503  0.1975 -0.0030  0.1873
32755ION     NA49229   4.934  11.909   5.984  0.0516  0.1441  0.2049
32756ION     NA49230   1.360  13.322   4.296  0.5130  0.0497 -0.3442
32757ION     NA49231   7.654   4.621  10.924 -0.1138  0.0220  0.0693
32758ION     NA49232   5.885   0.015  10.715  0.2531  0.1628 -0.0591
32759ION     NA49233  13.626  17.282  10.915  0.0837 -0.0300  0.1718
32760ION     NA49234  12.860  13.725   6.015  0.1820 -0.2013  0.2620
32761ION     NA49235   1.404   1.671  14.380  0.1445  0.2301 -0.2554
32762ION     NA49236  17.407   4.247   6.063 -0.0401  0.0960  0.0434
32763ION     NA49237  17.358   8.767  10.960 -0.3116 -0.0272  0.1098
32764ION     NA49238   7.631   2.579  11.774 -0.0671  0.1968  0.2362
32765ION     NA49239   7.560  14.074  10.495  0.1309 -0.0299 -0.3106
32766ION     NA49240  15.745   4.605  16.595 -0.0322 -0.2437  0.0456
32767ION     NA49241  14.376   9.376  10.722 -0.0403  0.1345 -0.1331
32768ION     NA49242  12.139  10.588  16.114 -0.0332  0.0025  0.0188
32769ION     NA49243  11.408   0.011  10.570  0.2445  0.0547 -0.1426
32770ION     NA49244  15.718   9.182  12.179  0.2005  0.2765 -0.2622
32771ION     NA49245  16.151  10.326  10.720 -0.1186  0.0629 -0.3974
32772ION     NA49246   9.581   7.037   6.006  0.0018 -0.2108 -0.1122
32773ION     NA49247   5.155  14.079  12.447 -0.1812  0.0384 -0.1826
32774ION     NA49248   9.484   1.457  10.621 -0.0524 -0.1693  0.1915
32775ION     NA49249  15.565   7.760  10.685  0.0768 -0.1005 -0.3434
32776ION     NA49250   0.303  13.101   9.995 -0.0214 -0.1005  0.0660
32777ION     NA49251  11.671   6.301   6.477  0.3444  0.3537  0.2779
32778ION     NA49252  13.918   8.543  10.796 -0.1450  0.1590  0.1471
32779ION     NA49253  11.048   5.111  11.099 -0.0337  0.0741 -0.2694
32780ION     NA49254   0.463   2.708  10.782  0.2265 -0.1221  0.2339
32781ION     NA49255   3.188   7.949  10.628  0.0885 -0.4893 -0.0292
32782ION     NA49256   6.884  17.192  10.437  0.1708 -0.1150 -0.1525
32783ION     NA49257  14.571   2.281  10.721  0.0259 -0.2297 -0.0874
32784ION     NA49258   6.783   7.153  11.723  0.0680  0.2446 -0.0839
32785ION     NA49259   1.887  13.615  10.053 -0.0016  0.0423  0.0682
32786ION     NA49260  16.455  10.666  10.541  0.0278 -0.0160  0.1179
32787ION     NA49261  10.945   8.267  11.276 -0.1233 -0.3200  0.0033
32788ION     NA49262  12.461   5.774   4.987  0.1215 -0.0913  0.0866
32789ION     NA49263  14.756  14.021  10.733  0.1760 -0.2882 -0.1188
32790ION     NA49264   5.682  12.191  10.435 -0.0335  0.0896 -0.1551
32791ION     NA49265   3.875   7.040  10.661  0.0325 -0.0988  0.0372
32792ION     NA49266   4.639  14.402  10.236 -0.0843  0.2428 -0.1288
32793ION     NA49267  17.890   4.933  10.866  0.0496  0.2342  0.0014
32794ION     NA49268  12.348   4.300   1.247 -0.0316  0.0330 -0.0167
32795ION     NA49269   3.824  14.384   4.937 -0.0387 -0.2453 -0.2581
32796ION     NA49270  16.661  13.978   1.157 -0.1045 -0.0464  0.2454
32797ION     NA49271   2.435  17.515   1.816 -0.1769 -0.1555 -0.1901
32798ION     NA49272   1.138   9.836  10.696 -0.0551  0.0478 -0.4684
32799ION     NA49273  16.073  17.986  11.248  0.2953  0.1050  0.0784
32800ION     NA49274   2.029   3.324  10.819  0.0315 -0.2780 -0.1426
32801ION     NA49275  14.264  14.465  13.006  0.1382 -0.4443  0.1261
32802ION     NA49276   2.091   1.464   2.961 -0.0960  0.1043 -0.1679
32803ION     NA49277   8.059   2.526  10.428 -0.1071  0.2399  0.0137
32804ION     NA49278  14.836   8.288  10.687 -0.1944 -0.4050 -0.1735
32805ION     NA49279  10.123  13.892  10.474  0.1396 -0.0237  0.1975
32806ION     NA49280  12.936   1.025   1.013  0.1218 -0.2657  0.1946
32807ION     NA49281   2.679   2.586  10.580 -0.0581  0.1755  0.0796
32808ION     NA49282   0.361  15.345  10.694 -0.1798  0.2875 -0.3956
32809ION     NA49283   8.361   3.407  14.076 -0.0845  0.3169 -0.1843
32810ION     NA49284  17.389   7.058   3.721  0.0915 -0.0296 -0.0608
32811ION     NA49285   8.703  14.938  10.558 -0.0349  0.1963 -0.1188
32812ION     NA49286   3.396   8.802  10.447 -0.0164 -0.1778  0.0527
32813ION     NA49287  13.623   9.949  10.677  0.1341 -0.0916  0.0087
32814ION     NA49288   6.164  16.429  10.474  0.5287  0.0930  0.2262
32815ION     NA49289   9.616   8.366  11.323  0.0664 -0.2112  0.6731
32816ION     NA49290  10.199   5.703  12.516 -0.1633  0.1457  0.1083
32817ION     NA49291  10.387   5.158   6.018  0.0650 -0.2878  0.1956
32818ION     NA49292  17.711  13.958  13.933  0.3872  0.4823  0.2792
32819ION     NA49293   4.689   1.329   0.950  0.2844 -0.0492  0.1479
32820ION     NA49294  13.662  13.046  10.716 -0.1382  0.0422  0.0390
32821ION     NA49295  11.289   2.947  10.790 -0.1472  0.1652 -0.1939
32822ION     NA49296   4.688   7.696  10.600 -0.0780 -0.1800  0.2608
32823ION     NA49297   0.465   5.994   4.823  0.0033  0.3251  0.0765
32824ION     NA49298  11.675  11.855  10.981 -0.1405  0.0747  0.1351
32825ION     NA49299  12.958  15.813   0.226  0.0754  0.0661 -0.1153
32826ION     NA49300   9.295   2.448  10.532 -0.0731  0.0438  0.0004
32827ION     NA49301   4.194   6.141  10.582 -0.0390  0.2639 -0.3247
32828ION     NA49302  17.653   9.064  10.720 -0.1926 -0.0867  0.1032
32829ION     NA49303   1.894  17.913  10.725 -0.3723  0.1268  0.0008
32830ION     NA49304   9.584   5.919   2.569  0.1756  0.0848 -0.1015
32831ION     NA49305  14.611   1.365  10.850 -0.0174  0.0379 -0.2043
32832ION     NA49306  14.041  11.388  10.617  0.2728  0.2499 -0.2379
32833ION     NA49307  11.506   1.245   6.302  0.0627  0.0362  0.0175
32834ION     NA49308   1.495   7.413   5.924 -0.1529 -0.2917 -0.0275
32835ION     NA49309   7.893   7.241   6.412 -0.1849 -0.3839  0.2537
32836ION     NA49310  13.427  14.807  12.931 -0.5123  0.0067 -0.0601
32837ION     NA49311   6.237  13.004   2.749 -0.4158  0.0013 -0.0752
32838ION     NA49312   9.996   6.276   6.407  0.1562 -0.1107 -0.3156
32839ION     NA49313  11.217  15.245  10.714 -0.0575 -0.0939 -0.0659
32840ION     NA49314  12.765   6.817  10.963  0.3379 -0.0136  0.0256
32841ION     NA49315  16.611   5.645  10.916 -0.1570  0.1051 -0.3058
32842ION     NA49316   1.459  15.552   0.899  0.0444 -0.0752 -0.0478
32843ION     NA49317  10.737   1.627   6.193 -0.2073  0.1170 -0.1540
32844ION     NA49318  16.472  16.931  11.362  0.1489  0.4877 -0.0408
32845ION     NA49319   3.945  17.397  13.252  0.2580  0.0644  0.2781
32846ION     NA49320   1.425   4.791  10.809 -0.0426  0.1111 -0.0707
32847ION     NA49321   3.351  16.042  10.868 -0.3183  0.1005  0.1971
32848ION     NA49322   8.151   6.690   0.463 -0.0845  0.0218  0.2848
32849ION     NA49323  12.537  17.466  10.912 -0.2175 -0.0681 -0.3268
32850ION     NA49324  10.838   3.442  13.042 -0.0352 -0.1330 -0.1271
32851ION     NA49325  15.782   9.229   6.064  0.1614 -0.0093 -0.2577
32852ION     NA49326  16.343   0.935  11.041  0.1903  0.0903 -0.0732
32853ION     NA49327   5.438   4.172  10.863 -0.0439 -0.2712 -0.0183
32854ION     NA49328   2.798   5.666  10.840  0.0310  0.0477 -0.0269
32855ION     NA49329   4.813   7.458   5.751 -0.0815 -0.0166 -0.0977
32856ION     NA49330  14.229  17.777  10.981 -0.2964  0.0326 -0.2779
32857ION     NA49331   9.505   3.315   5.931  0.0577  0.1516 -0.2322
32858ION     NA49332   2.279   5.979  10.678  0.0646 -0.0734  0.1321
32859ION     NA49333   4.370   1.804  10.706  0.1124  0.0487 -0.1260
32860ION     NA49334   4.390  11.892   1.025  0.0431 -0.3048 -0.2081
32861ION     NA49335  13.117  17.853   2.579 -0.0485  0.2574  0.1013
32862ION     NA49336   7.839  15.489  12.283 -0.1089 -0.0338  0.1144
32863ION     NA49337  10.665   4.272  10.882 -0.0167  0.2233 -0.3008
32864ION     NA49338   5.109   0.352  10.713 -0.0279 -0.1269 -0.1949
32865ION     NA49339   0.112   1.109   5.817  0.1238  0.2285 -0.0084
32866ION     NA49340   7.661   5.604  10.939 -0.1075  0.0448  0.0592
32867ION     NA49341   5.022  15.115   5.273 -0.2668  0.0164  0.2059
32868ION     NA49342   1.433   5.043   3.151  0.0773 -0.3249  0.0923
32869ION     NA49343   0.537  10.684  10.609 -0.2176  0.3165  0.2135
32870ION     NA49344   0.103   4.076  10.804  0.0803  0.1428  0.0075
32871ION     NA49345  15.344  10.144  16.040 -0.0393  0.0100  0.0124
32872ION     NA49346   9.293  13.675   5.975 -0.1451  0.0145 -0.2004
32873ION     NA49347  12.149  11.166  10.699  0.0489 -0.2714  0.0121
32874ION     NA49348   9.084  11.966  10.361 -0.2045 -0.1115 -0.1469
32875ION     NA49349  13.771   9.745  15.470  0.0049  0.1121  0.3513
32876ION     NA49350  10.854   3.787  10.779  0.2402 -0.0241 -0.1514
32877ION     NA49351   3.320   4.509  10.906  0.2621  0.0445  0.2412
32878ION     NA49352   2.813   5.858   6.220 -0.0050 -0.0300 -0.0632
32879ION     NA49353  15.793   8.538  10.754  0.0578 -0.0007  0.1628
32880ION     NA49354  11.145  16.314  10.776 -0.2132  0.1383  0.0830
32881ION     NA49355   3.377  16.877  11.040 -0.2418 -0.0716 -0.0035
32882ION     NA49356   9.421   8.433  15.205 -0.2399  0.2130  0.1900
32883ION     NA49357   0.659  13.254   5.571 -0.0792 -0.3826  0.2270
32884ION     NA49358  17.065   7.833  10.621  0.5987  0.1742  0.1477
32885ION     NA49359  14.336   9.915  10.729 -0.0575 -0.1687 -0.0170
32886ION     NA49360  17.212   1.218  11.148 -0.2031 -0.0419 -0.0191
32887ION     NA49361  14.426   7.376   6.039 -0.0099 -0.1481 -0.0939
32888ION     NA49362   2.365   0.597   5.927  0.0021  0.0336 -0.0443
32889ION     NA49363   3.775  16.456   2.284 -0.2554  0.0472 -0.0577
32890ION     NA49364  12.683  10.468  10.621  0.0736 -0.0013 -0.0170
32891ION     NA49365   8.374   3.647   2.369 -0.0631 -0.2028 -0.0794
32892ION     NA49366   1.378  10.703  10.436 -0.2999 -0.0555 -0.2781
32893ION     NA49367   2.425  12.268  10.088  0.0320  0.0476 -0.1467
32894ION     NA49368   1.614  10.720  12.061 -0.1006  0.2788 -0.3078
32895ION     NA49369  17.753   1.017  11.049 -0.0325  0.2312 -0.2225
32896ION     NA49370   1.996  11.563  10.148  0.0543  0.1195 -0.1097
32897ION     NA49371  15.429  16.257  16.580 -0.2321  0.0940 -0.0866
32898ION     NA49372   0.990   0.342  10.611 -0.2078  0.2239  0.0711
32899ION     NA49373  17.278   1.477  12.599  0.0217 -0.0725  0.2972
32900ION     NA49374   0.276   5.279  16.652  0.0322 -0.1146  0.1577
32901ION     NA49375  15.697  17.695   5.511  0.1878  0.1462 -0.1841
32902ION     NA49376   9.472  16.576  10.482  0.0463  0.1773  0.1422
32903ION     NA49377  10.776   8.001   6.274 -0.1463 -0.0169  0.0968
32904ION     NA49378  11.401   8.024  11.217 -0.3790 -0.0367  0.2059
32905ION     NA49379  11.624   9.031   3.833 -0.1932 -0.0226 -0.0539
32906ION     NA49380  17.555   2.076  11.165 -0.0411 -0.1013 -0.1663
32907ION     NA49381   9.940   0.541  10.487 -0.1003 -0.0808  0.0334
32908ION     NA49382   9.115   9.048   6.271  0.2599  0.4470 -0.1935
32909ION     NA49383   6.360   1.666  10.454  0.2166  0.2392  0.1611
32910ION     NA49384  17.860  14.761   3.467  0.0723 -0.0427  0.2018
32911ION     NA49385   2.580   8.637  10.552 -0.0080 -0.2240  0.2513
32912ION     NA49386   2.537   4.811   0.383 -0.0244  0.1877 -0.1813
32913ION     NA49387   8.810   9.080  11.515  0.3118  0.0684 -0.0988
32914ION     NA49388   9.114   7.365  11.054 -0.1109 -0.1108  0.4082
32915ION     NA49389   8.636  14.056  10.577  0.1809 -0.1409  0.1121
32916ION     NA49390  16.364   4.753  10.712  0.2129 -0.1921 -0.1790
32917ION     NA49391  14.639  17.066  10.805 -0.0185 -0.1110 -0.1839
32918ION     NA49392   2.822  11.959   5.256 -0.2098  0.1932 -0.1865
32919ION     NA49393  16.207  15.369   6.119 -0.0850 -0.0975  0.4463
32920ION     NA49394  13.844  10.746   5.369 -0.0329  0.0894 -0.0693
32921ION     NA49395   1.429   3.776  10.668 -0.1272 -0.3073  0.2065
32922ION     NA49396  12.731   3.800   6.101  0.2570  0.1822  0.3076
32923ION     NA49397   8.205   1.095  14.331  0.1549 -0.1402  0.1707
32924ION     NA49398   4.021   0.733   5.495  0.0161 -0.2537  0.1288
32925ION     NA49399  13.576   5.795  12.254 -0.4338 -0.0646  0.1632
32926ION     NA49400   7.594   9.355   6.514  0.0782 -0.1482  0.1015
32927ION     NA49401   3.661  11.545   5.474 -0.1932 -0.2221 -0.1557
32928ION     NA49402  16.500  12.026  10.724  0.1394 -0.1557  0.3709
32929ION     NA49403  10.120   2.737  10.708 -0.0266 -0.3169 -0.1350
32930ION     NA49404  17.173   4.037  10.851 -0.0922 -0.1379 -0.0471
32931ION     NA49405   8.820  14.964   5.694 -0.0425  0.0313 -0.0191
32932ION     NA49406  16.023   5.579  12.338 -0.5736 -0.2602  0.0127
32933ION     NA49407   4.563  15.796  10.546  0.3344  0.0862  0.0556
32934ION     NA49408   2.100   7.318  11.839 -0.0225 -0.2043 -0.3368
32935ION     NA49409   8.000  11.220   5.567 -0.1585 -0.0470  0.0888
32936ION     NA49410   3.648   7.644   4.821  0.0661 -0.0125  0.0770
32937ION     NA49411  14.912   8.806   5.691 -0.1168  0.1119  0.2133
32938ION     NA49412  14.556  15.085  10.766 -0.1154  0.1383  0.0852
32939ION     NA49413  15.686   2.901  10.713  0.1760  0.0823 -0.0114
32940ION     NA49414   4.733   9.148  10.697 -0.0276 -0.3172  0.0273
32941ION     NA49415  12.287   9.653  10.531 -0.2231  0.2311  0.0667
32942ION     NA49416  12.274   5.126   0.708 -0.1167 -0.2758  0.1712
32943ION     NA49417  17.292   6.247  10.907 -0.1365 -0.0703  0.1817
32944ION     NA49418   6.723   2.102  10.458 -0.0933 -0.2127 -0.0892
32945ION     NA49419  15.239   9.346  10.869  0.1428 -0.1742 -0.0239
32946ION     NA49420   0.323  13.079  16.272  0.0864  0.0641 -0.0059
32947ION     NA49421   5.263   6.280  10.872 -0.0810 -0.2243  0.2096
32948ION     NA49422  17.674  15.602  12.192  0.0225 -0.2186 -0.2182
32949ION     NA49423  17.118   1.737   6.266 -0.0778 -0.3825  0.3087
32950ION     NA49424  12.739   3.064  12.341 -0.1030 -0.0924  0.1545
32951ION     NA49425   3.774   3.609  10.802 -0.0032  0.2016 -0.1360
32952ION     NA49426  10.185  10.765   6.093 -0.1227  0.0662  0.1152
32953ION     NA49427  17.246   4.897  10.851 -0.2027  0.1727 -0.1415
32954ION     NA49428  11.368   9.786  12.005 -0.1661  0.2075 -0.1437
32955ION     NA49429   1.295   9.709   5.771  0.0777  0.0388 -0.0794
32956ION     NA49430  10.516  15.415  10.755 -0.1123  0.0522 -0.0223
32957ION     NA49431   0.523   8.549  10.553 -0.1334  0.2477 -0.1086
32958ION     NA49432   2.153  14.828   5.921  0.0402  0.0611  0.4139
32959ION     NA49433   9.475  17.150  11.856 -0.0018 -0.1747 -0.1728
32960ION     NA49434  12.293  12.871  10.975 -0.0919  0.1527 -0.3911
32961ION     NA49435   2.222   5.081  10.629  0.2068  0.1432  0.2478
32962ION     NA49436  12.516   3.956  11.115  0.1362 -0.0580 -0.3080
32963ION     NA49437  14.143  17.627   6.086  0.5429  0.4407 -0.1338
32964ION     NA49438   7.243   7.405  11.148  0.0131  0.1615 -0.0172
32965ION     NA49439   3.212  12.761  10.163 -0.3431 -0.3495  0.0337
32966ION     NA49440  13.715   4.887  11.177  0.1482 -0.3597  0.1932
32967ION     NA49441   3.000   0.470  13.951 -0.2219  0.2257  0.1107
32968ION     NA49442  13.947   5.797  14.483 -0.0188 -0.2973  0.3010
32969ION     NA49443   2.718   2.226  13.388 -0.2279  0.1285 -0.2045
32970ION     NA49444   1.719   3.112  11.792 -0.0774  0.0614  0.0332
32971ION     NA49445  16.557  15.771  16.054  0.0505  0.2189  0.1907
32972ION     NA49446  17.206  13.196  13.112  0.2990 -0.0706  0.1745
32973ION     NA49447  13.898   2.820  11.148 -0.0899  0.2705  0.1167
32974ION     NA49448  14.304  17.202  13.099  0.1234 -0.0708  0.3090
32975ION     NA49449  10.635   8.866   6.155  0.2058  0.0244  0.0264
32976ION     NA49450  13.912   9.127  10.735 -0.3118  0.1985  0.2296
32977ION     NA49451   0.875   1.196  15.044 -0.0028  0.2954 -0.2449
32978ION     NA49452  16.591  14.276   3.217 -0.1239 -0.3720  0.3379
32979ION     NA49453  11.289   9.631  16.266 -0.0639  0.0318 -0.0077
32980ION     NA49454  16.155  13.942  10.614  0.0261 -0.0893 -0.3501
32981ION     NA49455   7.421   1.566  10.349  0.0469  0.0928  0.2169
32982ION     NA49456  13.812   1.770  11.072  0.1038 -0.0810 -0.0819
32983ION     NA49457  13.298   0.195  10.932  0.2621  0.0128  0.1304
32984ION     NA49458  15.557  16.787  11.003 -0.2902 -0.0937 -0.0403
32985ION     NA49459  13.046  13.321  10.973  0.2367 -0.0523 -0.0656
32986ION     NA49460  13.452  10.677  11.868  0.1040 -0.0405  0.0693
32987ION     NA49461   6.543   6.441   5.524  0.0467  0.0870 -0.0739
32988ION     NA49462   1.379   6.771  11.355  0.1086 -0.2445 -0.3073
32989ION     NA49463   5.187   4.718  10.985 -0.0980 -0.1196  0.0518
32990ION     NA49464  16.236  11.898   6.032  0.0686  0.0393  0.5639
32991ION     NA49465   5.727  16.083  15.012  0.1580 -0.0843 -0.1852
32992ION     NA49466   1.017  16.000  10.738 -0.0234 -0.1870 -0.1541
32993ION     NA49467  11.843   4.965   5.697 -0.2536 -0.2534  0.1007
32994ION     NA49468   0.698   9.671   1.189 -0.1007 -0.1610 -0.3285
32995ION     NA49469  12.667   1.545   2.576 -0.1899 -0.1701  0.0489
32996ION     NA49470   2.545  15.521  10.770  0.2005 -0.0662 -0.1557
32997ION     NA49471   2.776   9.480  10.738 -0.0613  0.0942  0.2080
32998ION     NA49472  17.058  16.408  10.881  0.3426 -0.0755 -0.0039
32999ION     NA49473  12.187   2.810  10.908 -0.0667 -0.1286 -0.0904
33000ION     NA49474   2.692   3.253   5.557  0.3600  0.1009  0.2611
33001ION     NA49475   0.550   1.266  10.740  0.1142  0.1330  0.1487
33002ION     NA49476   6.618   0.050  10.240  0.1024  0.3079 -0.1952
33003ION     NA49477  14.192   4.074  11.386 -0.1122  0.2284  0.1772
33004ION     NA49478  12.080  13.396  10.881 -0.1625 -0.2339  0.0172
33005ION     NA49479  17.764  11.145  14.071 -0.3443 -0.2497 -0.1807
33006ION     NA49480  14.486  17.924  16.646 -0.0440  0.2189 -0.1489
33007ION     NA49481   1.330  14.006   2.877 -0.0241  0.0468  0.0740
33008ION     NA49482   4.267  13.599  10.235 -0.2548  0.2080  0.1480
33009ION     NA49483  11.953  12.953  16.175 -0.1590 -0.0483  0.0917
33010ION     NA49484  15.638   6.852  10.697 -0.2468 -0.2489  0.1800
33011ION     NA49485  11.677   4.393  10.959  0.1300 -0.2156  0.4027
33012ION     NA49486   5.604   3.742  12.875  0.1298  0.3915  0.1388
33013ION     NA49487  13.134   4.606   3.410  0.0296 -0.0055  0.1843
33014ION     NA49488   3.412   6.687  16.257  0.0869 -0.1359 -0.2392
33015ION     NA49489   6.420  13.849   5.873 -0.0865  0.0635 -0.0591
33016ION     NA49490  17.012  14.109  10.581  0.0785 -0.1646 -0.1265
33017ION     NA49491  14.113   7.013  10.585 -0.0443  0.2954 -0.1771
33018ION     NA49492  16.861  13.013   3.518 -0.0170 -0.0068 -0.1303
33019ION     NA49493   0.020  16.231  10.716 -0.1362  0.1258  0.0151
33020ION     NA49494  10.414  13.015  10.643  0.0119  0.0458  0.3487
33021ION     NA49495   0.579   1.154   5.165  0.3210 -0.0930 -0.0483
33022ION     NA49496  15.913  10.439   0.959 -0.0377  0.4794 -0.0668
33023ION     NA49497   5.980  13.886  10.513 -0.0063  0.0310 -0.2564
33024ION     NA49498  15.407   4.709  10.808  0.1233  0.0587 -0.1671
33025ION     NA49499   0.256  15.066  14.159 -0.1725 -0.2466 -0.2006
33026ION     NA49500  17.574  15.568  10.676 -0.0811  0.0707  0.3426
33027ION     NA49501  16.764   3.110  10.851 -0.1337 -0.3123 -0.0977
33028ION     NA49502   1.454   9.063  10.662 -0.0155 -0.1407  0.0190
33029ION     NA49503  13.317  10.167   6.056  0.1129  0.4107  0.2704
33030ION     NA49504   1.119   0.734   1.381  0.3865 -0.1137  0.2056
33031ION     NA49505   2.517  16.053   6.105  0.0220  0.2101 -0.3220
33032ION     NA49506   4.760  11.239   1.743 -0.0622 -0.0037 -0.0717
33033ION     NA49507  14.335   0.375  11.148  0.0908 -0.1205  0.0027
33034ION     NA49508  11.875   8.495  10.916 -0.1616  0.0464 -0.2200
33035ION     NA49509   8.071   0.912  10.379 -0.1102 -0.1741 -0.1477
33036ION     NA49510   7.244   0.442  16.512 -0.1345  0.0274  0.1845
33037ION     NA49511   8.789  17.082   5.563 -0.0203 -0.1343  0.2029
33038ION     NA49512   3.013  18.001   3.673 -0.1861  0.0115 -0.0458
33039ION     NA49513   2.914   3.206  12.105 -0.0549 -0.2771  0.0045
33040ION     NA49514   7.412   9.543  10.894  0.1471 -0.0699  0.0482
33041ION     NA49515   9.683  14.340  10.541  0.2412 -0.0112 -0.0108
33042ION     NA49516   6.123  14.259  14.994  0.1107  0.0298  0.0379
33043ION     NA49517  13.414  11.725  10.610 -0.2024 -0.0709  0.1565
33044ION     NA49518  15.475   3.773  10.948 -0.1134  0.0498  0.0206
33045ION     NA49519   0.608  14.594  10.352  0.0214 -0.0524  0.0123
33046ION     NA49520   6.068  14.830  10.651  0.3473 -0.0782  0.1406
33047ION     NA49521  12.891   1.174  11.029 -0.3032  0.1766  0.0060
33048ION     NA49522  10.091  13.977   5.506  0.1650 -0.2671 -0.0898
33049ION     NA49523   4.806  11.938  10.325 -0.2668  0.2779  0.1516
33050ION     NA49524  13.865   0.601  10.984 -0.1262  0.4172 -0.0364
33051ION     NA49525   6.123  17.225  13.956 -0.0030  0.2511 -0.3329
33052ION     NA49526  16.564  16.613   6.137 -0.1399  0.3001  0.0247
33053ION     NA49527   8.126   9.963  10.985  0.1371  0.2507  0.0470
33054ION     NA49528   5.697  15.672  10.665 -0.1398 -0.1902  0.4165
33055ION     NA49529  17.349  12.109  10.136  0.2031  0.3744  0.0405
33056ION     NA49530   4.605   9.905  10.573  0.1036  0.1353  0.0737
33057ION     NA49531  16.329   3.664   0.223  0.0136  0.0704  0.1040
33058ION     NA49532  11.777   9.575  11.167 -0.1482 -0.3374 -0.1153
33059ION     NA49533   7.913   6.739   4.065  0.0971  0.0944 -0.1713
33060ION     NA49534  12.976  13.042   3.677 -0.3179 -0.1653 -0.1457
33061ION     NA49535   0.514  13.254  12.532  0.0131  0.1987  0.0378
33062ION     NA49536   2.249   2.422  10.777  0.1569 -0.2215 -0.3039
33063ION     NA49537   1.054  14.166   5.825  0.0500  0.1426 -0.0408
33064ION     NA49538   0.415   5.460  10.741 -0.0756 -0.1270  0.1511
33065ION     NA49539   5.149   8.417  10.763 -0.0536 -0.2425 -0.0332
33066ION     NA49540  17.335   7.068  10.766  0.2533 -0.0427  0.3207
33067ION     NA49541  16.474   7.123  10.732 -0.0910  0.3594 -0.1014
33068ION     NA49542  17.700  16.008   6.236  0.1036 -0.3701 -0.1588
33069ION     NA49543   1.083   6.573  10.494  0.3317 -0.2916 -0.1531
33070ION     NA49544  17.406   4.955   3.341 -0.3712  0.1113 -0.2764
33071ION     NA49545  16.038  11.279  10.520 -0.0225 -0.3482  0.0506
33072ION     NA49546   1.133  15.357  13.111 -0.0035  0.0715 -0.0638
33073ION     NA49547   1.616  16.815  10.874  0.0385 -0.4469  0.0281
33074ION     NA49548  13.723  12.777  11.144 -0.0185  0.0754 -0.1473
33075ION     NA49549   9.506  12.838  10.403 -0.1090  0.1901  0.0380
33076ION     NA49550  17.508   5.536  15.932 -0.0573  0.3239 -0.0896
33077ION     NA49551  10.851   2.192  10.872  0.0794 -0.2310 -0.0127
33078ION     NA49552   8.064   2.937  10.679 -0.1126  0.0822 -0.3568
33079ION     NA49553   7.962   2.385  12.916 -0.2808  0.2209 -0.1252
33080ION     NA49554  10.489   6.894  16.055  0.1830  0.1435  0.0468
33081ION     NA49555  16.699   2.001  15.160  0.0052  0.1397 -0.0630
33082ION     NA49556   4.355   0.036  10.795  0.0711 -0.0016  0.0651
33083ION     NA49557   8.064  12.971   2.957 -0.2023 -0.0855 -0.1452
33084ION     NA49558   7.881  15.206  16.301 -0.1631  0.0316  0.2058
33085ION     NA49559   0.142   9.923  10.555 -0.1441  0.0838  0.2306
33086ION     NA49560  11.954   3.230  11.088  0.0934 -0.1904  0.2549
33087ION     NA49561   9.949   7.768  11.084  0.2843 -0.0958 -0.0425
33088ION     NA49562   5.969   5.355  10.909  0.0696 -0.1166  0.1798
33089ION     NA49563  12.988  12.340  11.029  0.3105 -0.2844 -0.1517
33090ION     NA49564   2.744  17.290  11.029 -0.0975  0.1899 -0.1130
33091ION     NA49565  11.447   3.819  14.935 -0.0110 -0.0445  0.0322
33092ION     NA49566   0.536   3.371  10.731 -0.1119 -0.0245 -0.0023
33093ION     NA49567  13.059  14.879  10.777  0.0665 -0.0566  0.0946
33094ION     NA49568  13.961  17.016   5.879 -0.0782  0.0075 -0.0351
33095ION     NA49569   6.330  17.518   5.801  0.2735 -0.4049 -0.1628
33096ION     NA49570  12.968   4.848   6.296  0.1368  0.1596  0.3062
33097ION     NA49571   8.237  17.345   1.937  0.1151 -0.0068 -0.1715
33098ION     NA49572  14.716  16.010  10.782 -0.1421  0.1221  0.2287
33099ION     NA49573   9.063   4.110   6.078 -0.2309 -0.1752  0.0133
33100ION     NA49574   9.754  11.909  10.491 -0.0223 -0.1468  0.0756
33101ION     NA49575   6.644   4.589  10.885  0.2359  0.3408  0.0727
33102ION     NA49576   2.776   1.693  10.485 -0.0536  0.1842 -0.0678
33103ION     NA49577   4.594   0.056   5.768 -0.2267 -0.0794 -0.0621
33104ION     NA49578  13.694   6.371  10.986  0.0246 -0.0245  0.0411
33105ION     NA49579  14.704  11.535  10.347  0.0881 -0.1607 -0.4369
33106ION     NA49580  10.683  10.558  10.865 -0.0588  0.0888  0.1640
33107ION     NA49581   1.660   7.318  10.391  0.0848  0.1041 -0.1626
33108ION     NA49582  10.322  11.231  10.575  0.0083  0.1491 -0.2025
33109ION     NA49583  15.487   5.950  10.782  0.0762 -0.2353  0.0109
33110ION     NA49584  12.974   2.370  10.983  0.1651  0.1050 -0.0345
33111ION     NA49585   6.772   0.237   0.632  0.3308 -0.2456 -0.2893
33112ION     NA49586  11.549   9.621  10.675  0.4743  0.0645  0.0161
33113ION     NA49587  16.256  15.749  10.608 -0.0000 -0.0404  0.0238
33114ION     NA49588   6.132   0.742  11.413 -0.1991  0.1668 -0.0173
33115ION     NA49589   2.908   7.209  10.533  0.2345 -0.1128  0.0407
33116ION     NA49590   4.269   1.490  11.584 -0.1332 -0.2610  0.0595
33117ION     NA49591   9.411  11.152  10.533 -0.2333 -0.3006  0.0421
33118ION     NA49592  13.388  15.194  11.959 -0.1452 -0.0321  0.3607
33119ION     NA49593   7.259   5.356  11.048  0.2329 -0.0395  0.2627
33120ION     NA49594   4.701   5.011   5.858 -0.1782 -0.0741  0.1011
33121ION     NA49595   9.853   3.875  10.813 -0.1098  0.1759  0.0095
33122ION     NA49596   7.224   5.068   3.732 -0.0459 -0.1985 -0.1282
33123ION     NA49597   7.958  15.649  10.757 -0.1319 -0.2312 -0.0373
33124ION     NA49598  11.068   5.596  12.290  0.0740 -0.0939 -0.0761
33125ION     NA49599   3.589   2.121  10.790 -0.0277  0.1568  0.0905
33126ION     NA49600  16.418   3.505  10.847 -0.2987  0.1102  0.1780
33127ION     NA49601  17.082  13.602   6.231  0.1193 -0.3284 -0.0318
33128ION     NA49602   3.212  13.700  10.586  0.0697  0.2290 -0.1558
33129ION     NA49603   7.275  13.136  10.631 -0.1163 -0.0728  0.1308
33130ION     NA49604   2.560  16.387  10.806 -0.1375  0.1565  0.2079
33131ION     NA49605   9.318   1.008  10.348 -0.1068  0.1158 -0.1108
33132ION     NA49606  17.331  11.275  10.783  0.3727  0.2005  0.0423
  18.00168  18.00168  16.78841
